 Gaussian 16, Revision A.03,
 Gaussian 16:  ES64L-G16RevA.03 25-Dec-2016

 --------------------------
 # td=(NStates=1) B3LYP/SVP
 --------------------------

 --
 TD
 --
 Symbolic Z-matrix:
 Charge =  0 Multiplicity = 1

                         Standard orientation:
 ---------------------------------------------------------------------
 Center     Atomic      Atomic             Coordinates (Angstroms)
 Number     Number       Type             X           Y           Z
 ---------------------------------------------------------------------
      1          6           0       -5.147740   -1.857766    0.510508
      2          6           0       -4.634278    2.821593    1.314281
      3          6           0       -9.232482    3.300225   -0.202491
      4          6           0       -9.909902   -1.465636   -0.723241
      5          7           0       -5.209941    0.559391    0.844758
      6          6           0       -4.511619   -0.695277    0.805966
      7          6           0       -3.108162   -0.488295    1.158040
      8          6           0       -3.011922    0.903551    1.820025
      9          6           0       -4.400968    1.419450    1.348036
     10          6           0       -2.939485    1.067921    3.234687
     11          6           0       -1.981008   -0.760605    0.015100
     12          6           0       -0.466997   -0.679424    0.454152
     13          6           0        0.477674   -1.003795   -0.640345
     14          8           0        0.089332   -1.359821   -1.792756
     15          8           0        1.685977   -0.845445   -0.236581
     16          7           0       -7.007365    2.691395    0.434736
     17          6           0       -5.901949    3.300324    0.898593
     18          6           0       -6.188203    4.721002    1.060231
     19          6           0       -7.400311    4.977580    0.533083
     20          6           0       -8.012787    3.615478    0.217131
     21          6           0       -5.268861    5.845955    1.562506
     22          6           0       -8.117734    6.309623    0.393925
     23          6           0       -9.179321    6.546048   -0.459439
     24          7           0       -9.204939    0.821921   -0.349531
     25          6           0       -9.772411    2.040632   -0.451592
     26          6           0      -11.127227    1.832003   -1.064686
     27          6           0      -11.293516    0.501563   -1.195775
     28          6           0      -10.115030   -0.150681   -0.723934
     29          6           0      -12.102000    2.998086   -1.336693
     30          6           0      -12.704169   -0.209610   -1.566293
     31          6           0      -12.714266   -0.365132   -3.194664
     32          7           0       -7.624058   -1.274940   -0.145352
     33          6           0       -8.635498   -2.106319   -0.508358
     34          6           0       -8.201886   -3.409386   -0.625267
     35          6           0       -6.812492   -3.343168   -0.329732
     36          6           0       -6.487885   -2.050992    0.072940
     37          6           0       -9.067028   -4.569696   -1.035877
     38          6           0       -5.745056   -4.335222    0.153569
     39          8           0       -5.657842   -5.519566    0.207056
     40          6           0       -4.458431   -3.345402    0.536835
     41          6           0       -3.900538   -3.779475    1.870978
     42          8           0       -4.138392   -3.327431    2.896099
     43          8           0       -3.101367   -4.854137    1.695301
     44          6           0       -2.635043   -5.474210    2.921652
     45          6           0        2.624613   -1.183497   -1.304300
     46          6           0        4.048385   -0.990884   -0.648769
     47          6           0        4.860447   -0.008985   -1.176760
     48          6           0        4.742851    0.688713   -2.472725
     49          6           0        6.237167    0.204041   -0.411981
     50          6           0        7.474374   -0.317802   -1.150497
     51          6           0        8.766111   -0.267372   -0.332298
     52          6           0        9.990623   -0.901092   -0.902942
     53          6           0       10.067670   -2.386228   -1.162227
     54          6           0       11.324958   -0.415559   -0.227986
     55          6           0       12.646129   -0.582716   -0.824740
     56          6           0       13.779347   -0.100068    0.132635
     57          6           0       15.277868   -0.246442   -0.382962
     58          6           0       15.672288   -1.748384   -0.387962
     59          6           0       16.235312    0.555517    0.481169
     60          6           0       17.651920    0.725102   -0.192439
     61          6           0       18.524782    1.768264    0.785708
     62          6           0       20.008728    1.772031    0.373349
     63          6           0       20.252556    2.216222   -1.127142
     64          6           0       20.677342    2.632252    1.406783
     65          1           0       -3.841038    3.593290    1.409660
     66          1           0      -10.034398    4.166864   -0.640604
     67          1           0      -10.628014   -2.250231   -1.021791
     68          1           0       -3.016683   -1.220082    1.891213
     69          1           0       -2.286816    1.402467    1.187750
     70          1           0       -1.908397    0.874449    3.669924
     71          1           0       -3.078683    2.272847    3.613318
     72          1           0       -3.702108    0.499528    3.867495
     73          1           0       -2.229058   -1.637178   -0.717851
     74          1           0       -2.501536   -0.009268   -0.817883
     75          1           0       -0.108988    0.517093    0.845499
     76          1           0       -0.360505   -1.284537    1.331434
     77          1           0       -4.075943    5.707862    1.240795
     78          1           0       -5.615116    6.811581    1.212101
     79          1           0       -5.375257    5.642011    2.890424
     80          1           0       -7.619017    7.072865    1.076896
     81          1           0       -9.594783    5.861133   -1.207282
     82          1           0       -9.626047    7.586487   -0.642096
     83          1           0      -12.424738    3.696927   -0.355069
     84          1           0      -11.578940    3.906571   -1.885726
     85          1           0      -13.092511    2.723920   -1.808880
     86          1           0      -12.713123   -1.208677   -1.228051
     87          1           0      -13.358598    0.568664   -1.343067
     88          1           0      -12.586141    0.580057   -3.638434
     89          1           0      -11.929578   -1.337988   -3.491668
     90          1           0      -13.614137   -0.854570   -3.611129
     91          1           0      -10.059840   -4.514611   -0.426517
     92          1           0       -9.249438   -4.538310   -2.168295
     93          1           0       -8.314376   -5.454084   -0.861652
     94          1           0       -3.634462   -3.223323   -0.237239
     95          1           0       -2.084536   -6.306836    2.590096
     96          1           0       -2.031567   -4.633095    3.326069
     97          1           0       -3.545698   -5.393705    3.828389
     98          1           0        2.529627   -2.177525   -1.615492
     99          1           0        2.717622   -0.530610   -2.221673
    100          1           0        4.269641   -1.630005    0.259392
    101          1           0        5.253093    1.562805   -2.272693
    102          1           0        5.225456    0.144210   -3.477626
    103          1           0        3.419312    1.064328   -2.374588
    104          1           0        6.441651    1.316327   -0.410060
    105          1           0        6.217293   -0.177725    0.601515
    106          1           0        7.162407   -1.414366   -1.538644
    107          1           0        7.366581    0.210241   -2.000904
    108          1           0        8.908599    0.870903   -0.189989
    109          1           0        8.578545   -0.914262    0.699843
    110          1           0       10.140273   -0.336700   -2.005719
    111          1           0        9.447086   -2.805922   -2.262294
    112          1           0       11.212655   -2.646480   -1.529149
    113          1           0        9.889646   -2.839437   -0.123862
    114          1           0       11.187682    0.624078    0.045485
    115          1           0       11.188402   -0.929495    0.747050
    116          1           0       12.635602   -1.633303   -0.968440
    117          1           0       12.709851   -0.270138   -1.916877
    118          1           0       13.603453    0.922633    0.189571
    119          1           0       13.902483   -0.597316    1.129080
    120          1           0       15.746044    0.005445   -1.418591
    121          1           0       15.010991   -2.137387   -1.314435
    122          1           0       16.784703   -1.689140   -0.583050
    123          1           0       15.316510   -2.345272    0.510392
    124          1           0       15.927697    1.538965    0.576181
    125          1           0       16.365474    0.066191    1.566371
    126          1           0       18.238687   -0.053057   -0.262998
    127          1           0       17.835098    1.474150   -1.085970
    128          1           0       18.064946    2.852109    0.473506
    129          1           0       18.467379    1.511639    1.651572
    130          1           0       20.319571    0.669478    0.568118
    131          1           0       19.952909    3.287122   -1.221325
    132          1           0       21.437297    2.397577   -1.188089
    133          1           0       19.817560    1.520549   -1.795790
    134          1           0       20.538106    2.419573    2.585761
    135          1           0       21.863578    2.344315    1.396310
    136          1           0       20.459284    3.674468    1.337778
    137          1           0       -7.282219    1.860974    0.152848
    138          1           0       -7.677726   -0.305573   -0.022165
 ---------------------------------------------------------------------

 SCF Done:  E(RB3LYP) =  -2732.86151387     A.U. after   17 cycles

 Excitation energies and oscillator strengths:

 Excited State   1:      Singlet-A      2.2334 eV  555.14 nm  f=0.1660  <S**2>=0.000
     235 -> 238        0.29422
     236 -> 237        0.63935
 This state for optimization and/or second-order correction.
 Total Energy, E(TD-HF/TD-DFT) =  -2732.77943843
 Copying the excited state density for this state as the 1-particle RhoCI density.

 The electronic state is 1-A.
 Alpha  occ. eigenvalues --  -19.20073 -19.16142 -19.12837 -19.12090 -19.11772
 Alpha  occ. eigenvalues --  -14.36719 -14.35450 -14.31634 -14.29819 -10.31773
 Alpha  occ. eigenvalues --  -10.30124 -10.28459 -10.25012 -10.24780 -10.24698
 Alpha  occ. eigenvalues --  -10.23915 -10.23750 -10.22770 -10.22684 -10.22653
 Alpha  occ. eigenvalues --  -10.22590 -10.22191 -10.21922 -10.21829 -10.21816
 Alpha  occ. eigenvalues --  -10.21769 -10.21759 -10.21705 -10.21224 -10.21219
 Alpha  occ. eigenvalues --  -10.21179 -10.21059 -10.20988 -10.20959 -10.20755
 Alpha  occ. eigenvalues --  -10.20606 -10.20441 -10.20394 -10.20198 -10.20104
 Alpha  occ. eigenvalues --  -10.20069 -10.19948 -10.19790 -10.19729 -10.19676
 Alpha  occ. eigenvalues --  -10.19586 -10.19422 -10.19412 -10.19381 -10.19365
 Alpha  occ. eigenvalues --  -10.19339 -10.19170 -10.19002 -10.18908 -10.18878
 Alpha  occ. eigenvalues --  -10.18779 -10.18696 -10.18575 -10.18545 -10.18322
 Alpha  occ. eigenvalues --  -10.18281 -10.18109 -10.17895 -10.17362  -1.12125
 Alpha  occ. eigenvalues --   -1.10441  -1.04075  -1.01542  -0.99607  -0.98508
 Alpha  occ. eigenvalues --   -0.97900  -0.94564  -0.93395  -0.83172  -0.82869
 Alpha  occ. eigenvalues --   -0.82587  -0.81952  -0.81059  -0.80885  -0.80483
 Alpha  occ. eigenvalues --   -0.79757  -0.79703  -0.78992  -0.78373  -0.77922
 Alpha  occ. eigenvalues --   -0.76952  -0.75903  -0.75124  -0.74615  -0.73787
 Alpha  occ. eigenvalues --   -0.73022  -0.72769  -0.72224  -0.71826  -0.70258
 Alpha  occ. eigenvalues --   -0.69864  -0.68607  -0.67937  -0.67732  -0.67514
 Alpha  occ. eigenvalues --   -0.66769  -0.66320  -0.65982  -0.65782  -0.65591
 Alpha  occ. eigenvalues --   -0.63738  -0.62406  -0.62014  -0.61211  -0.61131
 Alpha  occ. eigenvalues --   -0.60968  -0.59527  -0.58626  -0.58286  -0.57849
 Alpha  occ. eigenvalues --   -0.57540  -0.57023  -0.56141  -0.55194  -0.55099
 Alpha  occ. eigenvalues --   -0.54085  -0.53902  -0.53433  -0.53247  -0.52780
 Alpha  occ. eigenvalues --   -0.52458  -0.51873  -0.51615  -0.50970  -0.50353
 Alpha  occ. eigenvalues --   -0.49798  -0.49339  -0.48793  -0.48547  -0.48411
 Alpha  occ. eigenvalues --   -0.48306  -0.48233  -0.47801  -0.47615  -0.47135
 Alpha  occ. eigenvalues --   -0.46838  -0.46584  -0.46046  -0.45918  -0.45480
 Alpha  occ. eigenvalues --   -0.45297  -0.45073  -0.44944  -0.44897  -0.44562
 Alpha  occ. eigenvalues --   -0.44452  -0.44140  -0.43855  -0.43716  -0.43421
 Alpha  occ. eigenvalues --   -0.43351  -0.43077  -0.42747  -0.42524  -0.42413
 Alpha  occ. eigenvalues --   -0.41907  -0.41586  -0.41564  -0.41396  -0.41206
 Alpha  occ. eigenvalues --   -0.40892  -0.40664  -0.40524  -0.40213  -0.40137
 Alpha  occ. eigenvalues --   -0.40078  -0.39913  -0.39750  -0.39217  -0.39140
 Alpha  occ. eigenvalues --   -0.39057  -0.39044  -0.38902  -0.38689  -0.38331
 Alpha  occ. eigenvalues --   -0.38080  -0.37867  -0.37855  -0.37632  -0.37319
 Alpha  occ. eigenvalues --   -0.37292  -0.37156  -0.36898  -0.36767  -0.36669
 Alpha  occ. eigenvalues --   -0.36582  -0.36401  -0.36295  -0.36235  -0.35748
 Alpha  occ. eigenvalues --   -0.35666  -0.35289  -0.35186  -0.34891  -0.34601
 Alpha  occ. eigenvalues --   -0.34558  -0.34348  -0.34301  -0.33707  -0.33272
 Alpha  occ. eigenvalues --   -0.33217  -0.32641  -0.32346  -0.32134  -0.31989
 Alpha  occ. eigenvalues --   -0.31797  -0.31612  -0.31354  -0.31209  -0.31127
 Alpha  occ. eigenvalues --   -0.30679  -0.30454  -0.30336  -0.29826  -0.29620
 Alpha  occ. eigenvalues --   -0.29093  -0.28412  -0.28302  -0.27762  -0.27584
 Alpha  occ. eigenvalues --   -0.27102  -0.26834  -0.26311  -0.25862  -0.25295
 Alpha  occ. eigenvalues --   -0.24800  -0.24568  -0.24438  -0.22740  -0.19781
 Alpha  occ. eigenvalues --   -0.19094
 Alpha virt. eigenvalues --   -0.09673  -0.07188  -0.03826  -0.02106  -0.01878
 Alpha virt. eigenvalues --   -0.01130   0.00639   0.01312   0.02032   0.02350
 Alpha virt. eigenvalues --    0.02559   0.02744   0.03009   0.04016   0.04056

 Mulliken charges:
               1
     1  C   -0.028820
     2  C   -0.102664
     3  C   -0.130376
     4  C   -0.108871
     5  N   -0.159276
     6  C   -0.120062
     7  C    0.098441
     8  C    0.027784
     9  C   -0.052186
    10  C    0.025541
    11  C   -0.045901
    12  C    0.019112
    13  C    0.190388
    14  O   -0.296758
    15  O   -0.246033
    16  N    0.063881
    17  C    0.148664
    18  C   -0.134157
    19  C    0.010682
    20  C    0.054416
    21  C   -0.027440
    22  C   -0.005849
    23  C   -0.060115
    24  N   -0.263548
    25  C    0.032897
    26  C   -0.091638
    27  C   -0.125636
    28  C    0.172653
    29  C   -0.016213
    30  C    0.165718
    31  C   -0.064189
    32  N   -0.010020
    33  C    0.016467
    34  C   -0.131064
    35  C   -0.093333
    36  C    0.095095
    37  C    0.028353
    38  C    0.125567
    39  O   -0.138727
    40  C   -0.071881
    41  C    0.172343
    42  O   -0.165436
    43  O   -0.319312
    44  C    0.159969
    45  C    0.263575
    46  C   -0.102401
    47  C   -0.154638
    48  C    0.007500
    49  C    0.046246
    50  C    0.031395
    51  C    0.046022
    52  C   -0.100258
    53  C   -0.046714
    54  C    0.001782
    55  C    0.114123
    56  C    0.086520
    57  C   -0.117645
    58  C   -0.028834
    59  C    0.075843
    60  C   -0.020373
    61  C    0.058586
    62  C   -0.112448
    63  C    0.026369
    64  C   -0.023129
    65  H   -0.004627
    66  H    0.020322
    67  H   -0.026271
    68  H   -0.043070
    69  H   -0.015075
    70  H    0.015583
    71  H    0.021240
    72  H    0.044842
    73  H    0.046461
    74  H    0.020866
    75  H    0.063639
    76  H    0.038208
    77  H    0.060607
    78  H    0.037638
    79  H    0.065853
    80  H    0.021705
    81  H    0.040147
    82  H    0.040295
    83  H    0.035661
    84  H    0.032605
    85  H    0.030630
    86  H   -0.002238
    87  H   -0.003101
    88  H    0.022379
    89  H    0.022532
    90  H    0.012278
    91  H    0.053316
    92  H    0.045506
    93  H    0.059971
    94  H    0.065510
    95  H    0.038424
    96  H    0.013628
    97  H    0.066681
    98  H    0.013788
    99  H    0.032991
   100  H    0.019063
   101  H    0.000297
   102  H    0.090455
   103  H    0.061581
   104  H   -0.004643
   105  H   -0.008537
   106  H    0.001882
   107  H   -0.050153
   108  H    0.014129
   109  H    0.009058
   110  H   -0.018274
   111  H    0.047330
   112  H    0.038023
   113  H    0.024133
   114  H   -0.028667
   115  H   -0.025568
   116  H   -0.037555
   117  H    0.001133
   118  H   -0.018373
   119  H    0.012870
   120  H    0.000754
   121  H    0.024613
   122  H    0.022067
   123  H    0.014382
   124  H   -0.026512
   125  H    0.005786
   126  H   -0.034169
   127  H    0.028628
   128  H    0.007642
   129  H   -0.090499
   130  H    0.003899
   131  H    0.009731
   132  H    0.020004
   133  H    0.033867
   134  H    0.017881
   135  H    0.015017
   136  H    0.006788
   137  H    0.062925
   138  H    0.110100
 Sum of Mulliken charges =  -0.00000

 Dipole moment (field-independent basis, Debye):
    X=              3.8934    Y=              5.6024    Z=              0.3512  Tot=              6.8315
 Quadrupole moment (field-independent basis, Debye-Ang):
   XX=           -353.8540   YY=           -384.9066   ZZ=           -398.3379
   XY=            -24.3936   XZ=             12.7182   YZ=             -3.3706

 Normal termination of Gaussian 16 at Sun Aug 18 02:50:54 2019.
