 Gaussian 16, Revision A.03,
 Gaussian 16:  ES64L-G16RevA.03 25-Dec-2016

 --------------------------
 # td=(NStates=1) B3LYP/SVP
 --------------------------

 --
 TD
 --
 Symbolic Z-matrix:
 Charge =  0 Multiplicity = 1

                         Standard orientation:
 ---------------------------------------------------------------------
 Center     Atomic      Atomic             Coordinates (Angstroms)
 Number     Number       Type             X           Y           Z
 ---------------------------------------------------------------------
      1          6           0       -5.010247   -1.923099    0.468814
      2          6           0       -4.795054    2.855633    1.376926
      3          6           0       -9.491498    3.195417   -0.110102
      4          6           0       -9.775142   -1.604478   -0.908718
      5          7           0       -5.149282    0.539393    0.677649
      6          6           0       -4.398730   -0.654716    0.792320
      7          6           0       -2.981023   -0.463725    1.295131
      8          6           0       -3.055330    1.050482    1.839307
      9          6           0       -4.428359    1.509013    1.243550
     10          6           0       -3.013883    1.226532    3.305599
     11          6           0       -2.011407   -0.716513    0.137705
     12          6           0       -0.613748   -0.753907    0.633651
     13          6           0        0.375868   -0.999855   -0.471843
     14          8           0        0.025651   -1.576811   -1.549445
     15          8           0        1.624054   -0.533248   -0.297800
     16          7           0       -7.165776    2.747026    0.462142
     17          6           0       -6.039832    3.362567    0.864780
     18          6           0       -6.417178    4.801484    0.956017
     19          6           0       -7.666562    4.899090    0.422017
     20          6           0       -8.205568    3.657711    0.180263
     21          6           0       -5.437393    5.831289    1.296751
     22          6           0       -8.317707    6.309066    0.251010
     23          6           0       -9.359560    6.638484   -0.544097
     24          7           0       -9.301701    0.693256   -0.445330
     25          6           0       -9.952704    1.889062   -0.476569
     26          6           0      -11.336859    1.639843   -0.946106
     27          6           0      -11.518773    0.358155   -1.106764
     28          6           0      -10.157729   -0.188533   -0.775247
     29          6           0      -12.456642    2.749062   -1.055211
     30          6           0      -12.665851   -0.480713   -1.627338
     31          6           0      -12.551001   -1.006385   -3.097787
     32          7           0       -7.420867   -1.264776   -0.206288
     33          6           0       -8.531026   -2.087314   -0.589150
     34          6           0       -8.175737   -3.439126   -0.523647
     35          6           0       -6.711682   -3.411319   -0.191074
     36          6           0       -6.358514   -2.019744    0.030197
     37          6           0       -8.943181   -4.620264   -0.967188
     38          6           0       -5.637314   -4.325385   -0.021312
     39          8           0       -5.484069   -5.525038    0.064750
     40          6           0       -4.403477   -3.256861    0.352804
     41          6           0       -3.814229   -3.767264    1.621708
     42          8           0       -3.930273   -3.296515    2.733504
     43          8           0       -3.002498   -4.785250    1.476022
     44          6           0       -2.457045   -5.352695    2.628450
     45          6           0        2.670734   -0.790612   -1.349028
     46          6           0        3.946461   -0.340060   -0.603850
     47          6           0        4.975168    0.433953   -1.157705
     48          6           0        4.860936    1.153718   -2.458925
     49          6           0        6.313247    0.497420   -0.421291
     50          6           0        7.470523   -0.363621   -0.886376
     51          6           0        8.772420    0.047642   -0.089922
     52          6           0       10.055507   -0.713751   -0.657244
     53          6           0        9.855232   -2.305564   -0.581539
     54          6           0       11.292532   -0.118861    0.014829
     55          6           0       12.670011   -0.554201   -0.527138
     56          6           0       13.876077   -0.007659    0.241444
     57          6           0       15.247301   -0.276792   -0.365711
     58          6           0       15.616778   -1.785837   -0.392184
     59          6           0       16.370392    0.586324    0.362486
     60          6           0       17.790489    0.461498   -0.094901
     61          6           0       18.600447    1.729655    0.422871
     62          6           0       20.180504    1.459000    0.158981
     63          6           0       20.563663    1.689214   -1.378599
     64          6           0       20.912265    2.361564    1.121170
     65          1           0       -4.165851    3.550697    1.927987
     66          1           0      -10.273846    4.049036   -0.193513
     67          1           0      -10.496410   -2.392412   -1.302119
     68          1           0       -2.812379   -1.182682    2.146574
     69          1           0       -2.331749    1.683798    1.283391
     70          1           0       -2.152378    0.811744    3.789489
     71          1           0       -3.308001    2.142973    3.616499
     72          1           0       -3.625785    0.354640    3.803724
     73          1           0       -2.285357   -1.747227   -0.113315
     74          1           0       -2.265255   -0.218818   -0.723643
     75          1           0       -0.317563    0.071882    1.377525
     76          1           0       -0.420984   -1.658155    1.337734
     77          1           0       -4.562524    5.925829    0.739593
     78          1           0       -5.805019    6.740504    1.288738
     79          1           0       -5.131461    5.624661    2.361641
     80          1           0       -7.764630    7.120497    0.725697
     81          1           0       -9.920391    5.851001   -1.248823
     82          1           0       -9.848504    7.490524   -0.748698
     83          1           0      -12.359055    3.118890   -0.008858
     84          1           0      -12.137910    3.689958   -1.627373
     85          1           0      -13.362565    2.222352   -1.345356
     86          1           0      -12.555659   -1.341118   -0.806873
     87          1           0      -13.628896   -0.037808   -1.728033
     88          1           0      -12.673464   -0.222397   -3.820124
     89          1           0      -11.306549   -1.451659   -3.251588
     90          1           0      -13.298075   -1.926144   -3.278175
     91          1           0       -9.737917   -4.860204   -0.052068
     92          1           0       -9.270755   -4.171677   -1.916335
     93          1           0       -8.506603   -5.570871   -1.226736
     94          1           0       -3.792069   -3.431626   -0.344286
     95          1           0       -1.653954   -6.147938    2.506586
     96          1           0       -2.173484   -4.653471    3.299387
     97          1           0       -3.288898   -5.890672    3.174435
     98          1           0        2.584665   -1.871590   -1.691377
     99          1           0        2.377782   -0.054985   -2.294560
    100          1           0        4.183558   -1.012711    0.349241
    101          1           0        5.231912    2.074093   -2.387292
    102          1           0        5.716610    0.630479   -3.140990
    103          1           0        3.930344    0.954885   -3.071114
    104          1           0        6.614012    1.650585   -0.743491
    105          1           0        5.965357    0.630765    0.752156
    106          1           0        7.444605   -1.542595   -0.804220
    107          1           0        7.595082   -0.023519   -1.943510
    108          1           0        9.102265    1.154002   -0.267003
    109          1           0        8.708051   -0.134088    0.990362
    110          1           0       10.109478   -0.458875   -1.887117
    111          1           0        9.111123   -2.769221   -1.275255
    112          1           0       10.732146   -2.572079   -0.999621
    113          1           0        9.892870   -2.826078    0.567724
    114          1           0       11.549130    0.956700   -0.008247
    115          1           0       11.000769   -0.447384    1.174067
    116          1           0       12.505769   -1.620294   -0.734954
    117          1           0       12.574362    0.164765   -1.574222
    118          1           0       13.569209    1.145626    0.400760
    119          1           0       14.009251   -0.453986    1.200230
    120          1           0       15.184228   -0.050730   -1.525526
    121          1           0       14.745220   -2.449159   -0.751687
    122          1           0       16.516004   -2.118535   -1.175347
    123          1           0       15.821006   -2.149606    0.707800
    124          1           0       16.106190    1.757610    0.215776
    125          1           0       16.295444    0.408463    1.359476
    126          1           0       18.150583   -0.563886    0.492850
    127          1           0       18.019338    0.369540   -1.249828
    128          1           0       18.245687    2.685554   -0.068874
    129          1           0       18.306766    2.058615    1.738886
    130          1           0       20.653555    0.424764    0.473349
    131          1           0       20.023425    2.579799   -1.783636
    132          1           0       21.612149    1.715140   -1.718705
    133          1           0       19.673951    0.965056   -1.911451
    134          1           0       20.533200    2.150677    2.223906
    135          1           0       21.966623    2.430529    0.811514
    136          1           0       20.640133    3.547210    0.867323
    137          1           0       -7.309149    1.763318    0.282426
    138          1           0       -7.417722   -0.296507    0.070359
 ---------------------------------------------------------------------

 SCF Done:  E(RB3LYP) =  -2732.97908493     A.U. after   17 cycles

 Excitation energies and oscillator strengths:

 Excited State   1:      Singlet-A      2.0091 eV  617.11 nm  f=0.1839  <S**2>=0.000
     235 -> 237       -0.16497
     235 -> 238       -0.26370
     236 -> 237        0.62092
     236 -> 238       -0.12771
 This state for optimization and/or second-order correction.
 Total Energy, E(TD-HF/TD-DFT) =  -2732.90525187
 Copying the excited state density for this state as the 1-particle RhoCI density.

 The electronic state is 1-A.
 Alpha  occ. eigenvalues --  -19.17231 -19.16677 -19.12198 -19.10686 -19.10192
 Alpha  occ. eigenvalues --  -14.37162 -14.37118 -14.32490 -14.30267 -10.30967
 Alpha  occ. eigenvalues --  -10.29948 -10.27589 -10.26829 -10.24234 -10.23676
 Alpha  occ. eigenvalues --  -10.23659 -10.23587 -10.23276 -10.23027 -10.22658
 Alpha  occ. eigenvalues --  -10.22387 -10.21990 -10.21826 -10.21659 -10.21633
 Alpha  occ. eigenvalues --  -10.21632 -10.21632 -10.21267 -10.21213 -10.21151
 Alpha  occ. eigenvalues --  -10.21118 -10.21068 -10.20999 -10.20791 -10.20648
 Alpha  occ. eigenvalues --  -10.20596 -10.20495 -10.20469 -10.20403 -10.20269
 Alpha  occ. eigenvalues --  -10.20258 -10.20240 -10.20187 -10.20092 -10.20071
 Alpha  occ. eigenvalues --  -10.20023 -10.19939 -10.19939 -10.19931 -10.19844
 Alpha  occ. eigenvalues --  -10.19729 -10.19630 -10.19626 -10.19428 -10.19415
 Alpha  occ. eigenvalues --  -10.19278 -10.19230 -10.18829 -10.18679 -10.18453
 Alpha  occ. eigenvalues --  -10.18418 -10.18169 -10.17987 -10.17782  -1.10483
 Alpha  occ. eigenvalues --   -1.06834  -1.02403  -0.98875  -0.98515  -0.98203
 Alpha  occ. eigenvalues --   -0.96616  -0.95835  -0.93225  -0.84585  -0.82023
 Alpha  occ. eigenvalues --   -0.81978  -0.81728  -0.81506  -0.81322  -0.80245
 Alpha  occ. eigenvalues --   -0.79987  -0.79702  -0.78598  -0.78407  -0.77398
 Alpha  occ. eigenvalues --   -0.76414  -0.75834  -0.75733  -0.74692  -0.74209
 Alpha  occ. eigenvalues --   -0.73483  -0.73225  -0.72808  -0.72032  -0.71551
 Alpha  occ. eigenvalues --   -0.70514  -0.69056  -0.68780  -0.67960  -0.67828
 Alpha  occ. eigenvalues --   -0.66708  -0.66536  -0.66034  -0.65276  -0.64722
 Alpha  occ. eigenvalues --   -0.64154  -0.62845  -0.62410  -0.61484  -0.60784
 Alpha  occ. eigenvalues --   -0.60267  -0.58203  -0.57980  -0.57703  -0.57183
 Alpha  occ. eigenvalues --   -0.56893  -0.55936  -0.55886  -0.55797  -0.54560
 Alpha  occ. eigenvalues --   -0.54511  -0.54162  -0.54095  -0.53532  -0.52513
 Alpha  occ. eigenvalues --   -0.52327  -0.52025  -0.51623  -0.51279  -0.50254
 Alpha  occ. eigenvalues --   -0.49624  -0.49158  -0.48757  -0.48254  -0.47869
 Alpha  occ. eigenvalues --   -0.47742  -0.47363  -0.47154  -0.46795  -0.46221
 Alpha  occ. eigenvalues --   -0.46011  -0.45849  -0.45523  -0.45375  -0.45356
 Alpha  occ. eigenvalues --   -0.45202  -0.45060  -0.44922  -0.44770  -0.44381
 Alpha  occ. eigenvalues --   -0.44270  -0.44163  -0.43746  -0.43590  -0.43509
 Alpha  occ. eigenvalues --   -0.43457  -0.43210  -0.43090  -0.42909  -0.42818
 Alpha  occ. eigenvalues --   -0.42651  -0.42361  -0.42187  -0.41986  -0.41785
 Alpha  occ. eigenvalues --   -0.41455  -0.41388  -0.41122  -0.40938  -0.40674
 Alpha  occ. eigenvalues --   -0.40456  -0.40258  -0.40149  -0.39954  -0.39653
 Alpha  occ. eigenvalues --   -0.39348  -0.39201  -0.38658  -0.38594  -0.38461
 Alpha  occ. eigenvalues --   -0.38248  -0.38145  -0.38021  -0.37809  -0.37716
 Alpha  occ. eigenvalues --   -0.37527  -0.37242  -0.37086  -0.36946  -0.36447
 Alpha  occ. eigenvalues --   -0.36319  -0.36262  -0.35757  -0.35673  -0.35441
 Alpha  occ. eigenvalues --   -0.34631  -0.34532  -0.34322  -0.34142  -0.34050
 Alpha  occ. eigenvalues --   -0.33876  -0.33721  -0.33622  -0.33288  -0.33184
 Alpha  occ. eigenvalues --   -0.32895  -0.32767  -0.32516  -0.32256  -0.31978
 Alpha  occ. eigenvalues --   -0.31716  -0.31641  -0.31259  -0.31162  -0.30854
 Alpha  occ. eigenvalues --   -0.30833  -0.30630  -0.29930  -0.29792  -0.29168
 Alpha  occ. eigenvalues --   -0.29018  -0.28974  -0.28254  -0.28244  -0.27303
 Alpha  occ. eigenvalues --   -0.27045  -0.26568  -0.26410  -0.26027  -0.25621
 Alpha  occ. eigenvalues --   -0.24407  -0.24154  -0.23893  -0.23803  -0.19890
 Alpha  occ. eigenvalues --   -0.18802
 Alpha virt. eigenvalues --   -0.10592  -0.07372  -0.04542  -0.01352  -0.01271
 Alpha virt. eigenvalues --    0.00100   0.00727   0.01483   0.02582   0.02805
 Alpha virt. eigenvalues --    0.03092   0.03563   0.03615   0.04155   0.04574

 Mulliken charges:
               1
     1  C    0.041812
     2  C   -0.086375
     3  C   -0.114173
     4  C   -0.114045
     5  N   -0.200259
     6  C   -0.050942
     7  C   -0.070368
     8  C   -0.012038
     9  C   -0.001023
    10  C    0.125089
    11  C    0.146923
    12  C    0.032258
    13  C    0.188216
    14  O   -0.308326
    15  O   -0.316910
    16  N   -0.057875
    17  C    0.109768
    18  C   -0.189267
    19  C    0.044171
    20  C    0.065670
    21  C    0.206663
    22  C    0.015664
    23  C   -0.042412
    24  N   -0.143500
    25  C    0.059713
    26  C   -0.173275
    27  C   -0.067617
    28  C   -0.015304
    29  C    0.096948
    30  C    0.054026
    31  C   -0.078659
    32  N   -0.014553
    33  C    0.125964
    34  C   -0.084442
    35  C   -0.055152
    36  C    0.069478
    37  C    0.042832
    38  C    0.045785
    39  O   -0.161485
    40  C   -0.014104
    41  C    0.156967
    42  O   -0.254711
    43  O   -0.253185
    44  C    0.216065
    45  C    0.183276
    46  C   -0.082214
    47  C   -0.156909
    48  C    0.119966
    49  C   -0.042119
    50  C    0.062918
    51  C    0.007401
    52  C   -0.139914
    53  C    0.038512
    54  C   -0.029100
    55  C   -0.008733
    56  C    0.055463
    57  C   -0.062867
    58  C   -0.073037
    59  C    0.055693
    60  C   -0.001450
    61  C   -0.099470
    62  C   -0.097664
    63  C   -0.014136
    64  C    0.001694
    65  H   -0.018573
    66  H    0.002018
    67  H    0.009964
    68  H    0.024086
    69  H   -0.002711
    70  H   -0.006124
    71  H   -0.007068
    72  H    0.017760
    73  H    0.004547
    74  H   -0.013909
    75  H    0.030816
    76  H    0.041171
    77  H    0.014548
    78  H   -0.060036
    79  H    0.021752
    80  H   -0.001233
    81  H    0.034545
    82  H   -0.008956
    83  H    0.030912
    84  H    0.024733
    85  H    0.021227
    86  H    0.035010
    87  H   -0.004552
    88  H    0.026681
    89  H    0.023273
    90  H    0.043264
    91  H    0.062527
    92  H    0.046846
    93  H    0.036457
    94  H   -0.027795
    95  H    0.036849
    96  H   -0.009199
    97  H    0.013102
    98  H    0.061235
    99  H    0.054864
   100  H    0.023118
   101  H   -0.013990
   102  H    0.021243
   103  H    0.025261
   104  H    0.004904
   105  H    0.043248
   106  H    0.035572
   107  H    0.000747
   108  H    0.009064
   109  H    0.005405
   110  H   -0.000332
   111  H    0.030268
   112  H   -0.034241
   113  H    0.033756
   114  H    0.003494
   115  H    0.003653
   116  H    0.012905
   117  H    0.010023
   118  H    0.014709
   119  H   -0.015810
   120  H   -0.003989
   121  H    0.022394
   122  H    0.044046
   123  H    0.017293
   124  H    0.000611
   125  H   -0.026584
   126  H    0.026119
   127  H    0.032644
   128  H    0.029481
   129  H    0.015885
   130  H    0.025663
   131  H    0.002816
   132  H    0.043200
   133  H    0.008598
   134  H    0.042170
   135  H    0.001281
   136  H   -0.008292
   137  H    0.133185
   138  H    0.141126
 Sum of Mulliken charges =  -0.00000

 Dipole moment (field-independent basis, Debye):
    X=              2.5086    Y=              4.4986    Z=             -0.4257  Tot=              5.1684
 Quadrupole moment (field-independent basis, Debye-Ang):
   XX=           -335.8475   YY=           -384.4885   ZZ=           -395.8180
   XY=            -23.1007   XZ=              4.8215   YZ=             -1.3519

 Normal termination of Gaussian 16 at Tue Aug 20 19:12:14 2019.
