 Gaussian 16, Revision A.03,
 Gaussian 16:  ES64L-G16RevA.03 25-Dec-2016

 --------------------------
 # td=(NStates=1) B3LYP/SVP
 --------------------------

 --
 TD
 --
 Symbolic Z-matrix:
 Charge =  0 Multiplicity = 1

                         Standard orientation:
 ---------------------------------------------------------------------
 Center     Atomic      Atomic             Coordinates (Angstroms)
 Number     Number       Type             X           Y           Z
 ---------------------------------------------------------------------
      1          6           0       -5.065363   -1.986207    0.378998
      2          6           0       -4.642896    2.658360    1.560395
      3          6           0       -9.182637    3.407452   -0.169715
      4          6           0       -9.845248   -1.230623   -0.959629
      5          7           0       -5.185930    0.404724    0.762652
      6          6           0       -4.533563   -0.816037    0.840376
      7          6           0       -3.157931   -0.705285    1.356535
      8          6           0       -3.187264    0.688197    1.946458
      9          6           0       -4.329713    1.264656    1.430911
     10          6           0       -2.854985    0.699298    3.501213
     11          6           0       -2.052926   -0.872004    0.109565
     12          6           0       -0.660818   -1.174429    0.699562
     13          6           0        0.397546   -1.296262   -0.474337
     14          8           0        0.048224   -1.841676   -1.517486
     15          8           0        1.623832   -1.059131   -0.153610
     16          7           0       -6.855960    2.819316    0.443640
     17          6           0       -5.807984    3.435862    1.023693
     18          6           0       -6.019575    4.802128    1.133063
     19          6           0       -7.256740    5.051116    0.458851
     20          6           0       -7.854132    3.748975    0.194317
     21          6           0       -5.039678    5.712788    1.655810
     22          6           0       -7.811287    6.360541    0.187694
     23          6           0       -8.696355    6.642898   -0.863669
     24          7           0       -9.153527    1.048137   -0.468240
     25          6           0       -9.798453    2.236232   -0.514926
     26          6           0      -11.215050    2.102581   -0.862786
     27          6           0      -11.466391    0.768005   -1.062764
     28          6           0      -10.101630    0.106588   -0.811752
     29          6           0      -12.085481    3.268188   -1.039931
     30          6           0      -12.646232    0.126169   -1.466630
     31          6           0      -12.732284   -0.188676   -2.966258
     32          7           0       -7.539921   -1.198747   -0.136231
     33          6           0       -8.594421   -1.894401   -0.677031
     34          6           0       -8.184748   -3.197126   -0.788303
     35          6           0       -6.843427   -3.392925   -0.353939
     36          6           0       -6.434587   -1.970051    0.065014
     37          6           0       -9.046382   -4.454499   -1.234177
     38          6           0       -5.750927   -4.230588   -0.157573
     39          8           0       -5.661520   -5.392495   -0.276819
     40          6           0       -4.584179   -3.373157    0.381583
     41          6           0       -4.174400   -3.907408    1.668447
     42          8           0       -4.343422   -3.388820    2.698572
     43          8           0       -3.146263   -4.938329    1.455179
     44          6           0       -2.851135   -5.639737    2.725951
     45          6           0        2.684045   -1.367335   -1.141286
     46          6           0        3.840765   -0.748776   -0.589265
     47          6           0        4.925134   -0.129529   -1.229782
     48          6           0        4.777867    0.341405   -2.704290
     49          6           0        6.165389    0.290927   -0.488080
     50          6           0        7.429770   -0.509775   -1.153767
     51          6           0        8.674088   -0.370310   -0.277549
     52          6           0       10.049627   -0.915139   -0.786070
     53          6           0       10.051968   -2.452389   -0.838819
     54          6           0       11.210057   -0.185283   -0.101308
     55          6           0       12.612340   -0.657053   -0.572824
     56          6           0       13.682825    0.251132    0.173029
     57          6           0       15.170543   -0.201200   -0.201614
     58          6           0       15.577207   -1.708396   -0.038948
     59          6           0       16.238028    0.831056    0.443778
     60          6           0       17.637995    0.744366    0.017565
     61          6           0       18.654263    1.884909    0.656317
     62          6           0       20.037290    1.876552    0.155193
     63          6           0       20.304219    1.969128   -1.393147
     64          6           0       20.804047    2.966420    0.922137
     65          1           0       -3.920070    3.273457    1.903373
     66          1           0       -9.895018    4.258255   -0.358421
     67          1           0      -10.645474   -1.868711   -1.068633
     68          1           0       -3.002122   -1.285296    2.120463
     69          1           0       -2.375809    1.356758    1.530646
     70          1           0       -1.984358    0.310800    3.668498
     71          1           0       -2.907590    1.708936    3.950993
     72          1           0       -3.429337    0.046295    4.067414
     73          1           0       -2.384918   -1.708149   -0.476003
     74          1           0       -2.127253    0.054226   -0.393421
     75          1           0       -0.345979   -0.353913    1.446540
     76          1           0       -0.690058   -2.035404    1.309920
     77          1           0       -4.439687    6.312554    0.696374
     78          1           0       -5.549709    6.729380    2.269358
     79          1           0       -4.205123    5.001199    2.294622
     80          1           0       -7.362674    7.226339    0.713834
     81          1           0       -9.116251    6.030256   -1.628238
     82          1           0       -9.042703    7.731622   -0.852792
     83          1           0      -12.113795    3.824074   -0.088335
     84          1           0      -11.801674    4.159061   -1.711591
     85          1           0      -13.142175    3.127460   -1.293656
     86          1           0      -12.837410   -0.816868   -0.819587
     87          1           0      -13.486567    0.605274   -1.225888
     88          1           0      -12.321801    0.700844   -3.550751
     89          1           0      -11.900354   -0.928462   -3.212613
     90          1           0      -13.725362   -0.506979   -3.222528
     91          1           0      -10.069717   -4.533793   -0.661390
     92          1           0       -9.207845   -4.306911   -2.367094
     93          1           0       -8.322329   -5.351791   -1.355713
     94          1           0       -3.725449   -3.296868   -0.253748
     95          1           0       -2.401132   -6.591618    2.095309
     96          1           0       -2.341214   -5.004995    3.497642
     97          1           0       -3.925456   -6.166565    3.113206
     98          1           0        2.838203   -2.331667   -1.278692
     99          1           0        2.395023   -1.239703   -2.187362
    100          1           0        4.069195   -1.135656    0.543972
    101          1           0        5.345503    1.345305   -3.033515
    102          1           0        5.315491   -0.346443   -3.248946
    103          1           0        3.720113    0.369361   -3.074990
    104          1           0        6.474641    1.209686   -0.431842
    105          1           0        6.152210   -0.205215    0.586920
    106          1           0        7.198307   -1.758396   -1.072348
    107          1           0        7.398628   -0.277521   -2.329140
    108          1           0        8.758129    0.643226    0.047064
    109          1           0        8.060770   -0.994840    0.583546
    110          1           0       10.158520   -0.565693   -1.835350
    111          1           0        9.223954   -2.923529   -1.396351
    112          1           0       10.871439   -2.862288   -1.471125
    113          1           0       10.263671   -2.918566    0.247211
    114          1           0       11.298461    1.058194   -0.003883
    115          1           0       11.340929   -0.492736    1.018397
    116          1           0       12.736019   -1.756575   -0.445811
    117          1           0       12.659522   -0.379509   -1.611288
    118          1           0       13.755660    1.363615    0.017488
    119          1           0       13.675418    0.150327    1.434740
    120          1           0       15.226808   -0.193976   -1.360605
    121          1           0       14.610143   -2.275877   -0.454549
    122          1           0       16.449795   -1.994464   -0.734618
    123          1           0       15.744891   -1.923803    0.978380
    124          1           0       15.824890    1.841996    0.399661
    125          1           0       16.206054    0.658181    1.545131
    126          1           0       18.020325   -0.353625    0.260688
    127          1           0       17.740913    0.832369   -1.235147
    128          1           0       18.057945    2.822343    0.456342
    129          1           0       18.497796    2.044209    1.852128
    130          1           0       20.495486    0.770764    0.399737
    131          1           0       19.805358    3.041973   -1.937347
    132          1           0       21.181841    1.998197   -1.737101
    133          1           0       19.650873    1.234246   -2.023595
    134          1           0       20.690181    2.652815    1.991165
    135          1           0       21.923770    2.977002    0.736136
    136          1           0       20.298993    4.020677    0.752326
    137          1           0       -7.151298    1.892177    0.317554
    138          1           0       -7.754738   -0.215410    0.140082
 ---------------------------------------------------------------------

 SCF Done:  E(RB3LYP) =  -2732.96461613     A.U. after   17 cycles

 Excitation energies and oscillator strengths:

 Excited State   1:      Singlet-A      1.9496 eV  635.95 nm  f=0.2307  <S**2>=0.000
     235 -> 237       -0.25048
     235 -> 238        0.24743
     236 -> 237        0.60134
 This state for optimization and/or second-order correction.
 Total Energy, E(TD-HF/TD-DFT) =  -2732.89297056
 Copying the excited state density for this state as the 1-particle RhoCI density.

 The electronic state is 1-A.
 Alpha  occ. eigenvalues --  -19.18870 -19.15614 -19.13960 -19.11288 -19.10860
 Alpha  occ. eigenvalues --  -14.36881 -14.36478 -14.32129 -14.30464 -10.31347
 Alpha  occ. eigenvalues --  -10.31059 -10.26315 -10.25927 -10.24459 -10.24070
 Alpha  occ. eigenvalues --  -10.23972 -10.23875 -10.23496 -10.22786 -10.22478
 Alpha  occ. eigenvalues --  -10.21980 -10.21818 -10.21737 -10.21495 -10.21434
 Alpha  occ. eigenvalues --  -10.21201 -10.21029 -10.20837 -10.20769 -10.20759
 Alpha  occ. eigenvalues --  -10.20743 -10.20699 -10.20525 -10.20511 -10.20502
 Alpha  occ. eigenvalues --  -10.20300 -10.20196 -10.20048 -10.20024 -10.20004
 Alpha  occ. eigenvalues --  -10.19861 -10.19860 -10.19849 -10.19835 -10.19818
 Alpha  occ. eigenvalues --  -10.19783 -10.19726 -10.19680 -10.19604 -10.19539
 Alpha  occ. eigenvalues --  -10.19358 -10.19246 -10.19170 -10.19064 -10.19057
 Alpha  occ. eigenvalues --  -10.18964 -10.18923 -10.18919 -10.18762 -10.18440
 Alpha  occ. eigenvalues --  -10.18331 -10.18280 -10.18193 -10.17757  -1.10712
 Alpha  occ. eigenvalues --   -1.08785  -1.04388  -0.99516  -0.99102  -0.98763
 Alpha  occ. eigenvalues --   -0.97788  -0.94514  -0.93440  -0.85732  -0.82408
 Alpha  occ. eigenvalues --   -0.82126  -0.81257  -0.81241  -0.80612  -0.80433
 Alpha  occ. eigenvalues --   -0.80399  -0.79320  -0.78972  -0.78903  -0.78049
 Alpha  occ. eigenvalues --   -0.77177  -0.75869  -0.75567  -0.74940  -0.74709
 Alpha  occ. eigenvalues --   -0.73096  -0.72573  -0.72275  -0.71305  -0.70287
 Alpha  occ. eigenvalues --   -0.69790  -0.68872  -0.68176  -0.68009  -0.67800
 Alpha  occ. eigenvalues --   -0.66660  -0.66495  -0.66297  -0.65946  -0.65443
 Alpha  occ. eigenvalues --   -0.64768  -0.63394  -0.62945  -0.62593  -0.62111
 Alpha  occ. eigenvalues --   -0.61640  -0.59231  -0.59002  -0.57800  -0.57439
 Alpha  occ. eigenvalues --   -0.57271  -0.55927  -0.55847  -0.55198  -0.54847
 Alpha  occ. eigenvalues --   -0.54710  -0.54048  -0.53888  -0.53758  -0.53399
 Alpha  occ. eigenvalues --   -0.53314  -0.52517  -0.51940  -0.51655  -0.50543
 Alpha  occ. eigenvalues --   -0.50164  -0.49832  -0.48974  -0.48623  -0.48086
 Alpha  occ. eigenvalues --   -0.47860  -0.47787  -0.47195  -0.46987  -0.46480
 Alpha  occ. eigenvalues --   -0.46317  -0.46059  -0.45963  -0.45908  -0.45481
 Alpha  occ. eigenvalues --   -0.45303  -0.44964  -0.44916  -0.44763  -0.44463
 Alpha  occ. eigenvalues --   -0.44269  -0.44141  -0.43966  -0.43542  -0.43429
 Alpha  occ. eigenvalues --   -0.43146  -0.43004  -0.42817  -0.42663  -0.42481
 Alpha  occ. eigenvalues --   -0.42233  -0.42034  -0.41651  -0.41329  -0.41305
 Alpha  occ. eigenvalues --   -0.41190  -0.40753  -0.40593  -0.40467  -0.40271
 Alpha  occ. eigenvalues --   -0.40227  -0.40022  -0.39863  -0.39739  -0.39468
 Alpha  occ. eigenvalues --   -0.39160  -0.39087  -0.38754  -0.38736  -0.38450
 Alpha  occ. eigenvalues --   -0.38424  -0.37938  -0.37734  -0.37484  -0.37417
 Alpha  occ. eigenvalues --   -0.37244  -0.37147  -0.36857  -0.36750  -0.36690
 Alpha  occ. eigenvalues --   -0.36561  -0.36349  -0.36267  -0.36046  -0.35992
 Alpha  occ. eigenvalues --   -0.35680  -0.35621  -0.35225  -0.35031  -0.34912
 Alpha  occ. eigenvalues --   -0.34484  -0.34304  -0.34077  -0.33840  -0.33644
 Alpha  occ. eigenvalues --   -0.33588  -0.33340  -0.33242  -0.32892  -0.32603
 Alpha  occ. eigenvalues --   -0.32296  -0.31877  -0.31444  -0.30975  -0.30803
 Alpha  occ. eigenvalues --   -0.30700  -0.30542  -0.30448  -0.30047  -0.29570
 Alpha  occ. eigenvalues --   -0.29334  -0.29236  -0.28514  -0.28368  -0.28087
 Alpha  occ. eigenvalues --   -0.27407  -0.27126  -0.26852  -0.26088  -0.25548
 Alpha  occ. eigenvalues --   -0.24453  -0.24248  -0.23233  -0.23033  -0.19328
 Alpha  occ. eigenvalues --   -0.18869
 Alpha virt. eigenvalues --   -0.10936  -0.07141  -0.04236  -0.02375  -0.01265
 Alpha virt. eigenvalues --   -0.01180   0.00162   0.00351   0.02040   0.02877
 Alpha virt. eigenvalues --    0.03015   0.04105   0.04574   0.04697   0.04746

 Mulliken charges:
               1
     1  C   -0.104412
     2  C   -0.023680
     3  C   -0.065515
     4  C   -0.030942
     5  N   -0.195172
     6  C   -0.057252
     7  C    0.091844
     8  C   -0.063558
     9  C    0.033303
    10  C    0.174924
    11  C    0.091123
    12  C    0.031913
    13  C    0.171236
    14  O   -0.273777
    15  O   -0.259696
    16  N    0.005720
    17  C    0.076176
    18  C   -0.057451
    19  C    0.060590
    20  C    0.045103
    21  C   -0.116181
    22  C   -0.060277
    23  C   -0.043591
    24  N   -0.253183
    25  C    0.033793
    26  C   -0.061959
    27  C   -0.078200
    28  C    0.066910
    29  C    0.062671
    30  C    0.091862
    31  C    0.011992
    32  N   -0.040486
    33  C    0.054610
    34  C   -0.155259
    35  C    0.016824
    36  C    0.076630
    37  C    0.038799
    38  C   -0.018936
    39  O   -0.126369
    40  C    0.095039
    41  C    0.212827
    42  O   -0.160995
    43  O   -0.390044
    44  C    0.094233
    45  C    0.326495
    46  C   -0.108486
    47  C   -0.124714
    48  C    0.049429
    49  C    0.131021
    50  C   -0.153812
    51  C    0.037326
    52  C    0.019817
    53  C   -0.003265
    54  C   -0.070431
    55  C    0.042741
    56  C   -0.039660
    57  C   -0.115950
    58  C   -0.003307
    59  C    0.058607
    60  C   -0.042206
    61  C   -0.024930
    62  C   -0.073828
    63  C    0.043509
    64  C    0.008112
    65  H   -0.090626
    66  H   -0.027933
    67  H   -0.050177
    68  H   -0.079899
    69  H    0.004028
    70  H   -0.045932
    71  H    0.011153
    72  H   -0.004398
    73  H    0.021906
    74  H    0.002206
    75  H    0.017002
    76  H    0.024221
    77  H    0.060287
    78  H    0.057435
    79  H    0.069185
    80  H    0.003787
    81  H    0.031909
    82  H    0.031913
    83  H    0.013607
    84  H    0.026605
    85  H    0.004369
    86  H    0.001235
    87  H   -0.054569
    88  H    0.018564
    89  H    0.012240
    90  H    0.021016
    91  H    0.059372
    92  H    0.022852
    93  H    0.048655
    94  H    0.037642
    95  H    0.070059
    96  H    0.062599
    97  H    0.047703
    98  H   -0.015583
    99  H    0.011860
   100  H    0.025047
   101  H    0.029940
   102  H    0.006963
   103  H    0.033606
   104  H   -0.029614
   105  H    0.010451
   106  H    0.017984
   107  H    0.017323
   108  H   -0.011034
   109  H    0.018099
   110  H   -0.006781
   111  H    0.020030
   112  H    0.005113
   113  H    0.031626
   114  H    0.029666
   115  H    0.000688
   116  H    0.033660
   117  H   -0.009052
   118  H    0.019428
   119  H    0.009601
   120  H   -0.007191
   121  H    0.013048
   122  H    0.034131
   123  H    0.003970
   124  H   -0.021549
   125  H   -0.011366
   126  H    0.015853
   127  H    0.019965
   128  H   -0.008934
   129  H    0.008043
   130  H    0.017099
   131  H   -0.008823
   132  H   -0.040277
   133  H    0.021654
   134  H    0.012263
   135  H    0.017513
   136  H    0.030429
   137  H    0.110093
   138  H    0.159386
 Sum of Mulliken charges =  -0.00000

 Dipole moment (field-independent basis, Debye):
    X=              2.4129    Y=              4.5608    Z=              0.6794  Tot=              5.2043
 Quadrupole moment (field-independent basis, Debye-Ang):
   XX=           -337.0700   YY=           -392.1746   ZZ=           -392.4629
   XY=            -29.6075   XZ=              2.2766   YZ=             -2.9823

 Normal termination of Gaussian 16 at Thu Aug 15 09:34:39 2019.
