 Gaussian 16, Revision A.03,
 Gaussian 16:  ES64L-G16RevA.03 25-Dec-2016

 --------------------------
 # td=(NStates=1) B3LYP/SVP
 --------------------------

 --
 TD
 --
 Symbolic Z-matrix:
 Charge =  0 Multiplicity = 1

                         Standard orientation:
 ---------------------------------------------------------------------
 Center     Atomic      Atomic             Coordinates (Angstroms)
 Number     Number       Type             X           Y           Z
 ---------------------------------------------------------------------
      1          6           0       -5.064991   -1.981261    0.502615
      2          6           0       -4.717798    2.685253    1.430704
      3          6           0       -9.318694    3.266804   -0.083154
      4          6           0       -9.745878   -1.431489   -0.950389
      5          7           0       -5.237864    0.397060    0.772497
      6          6           0       -4.532080   -0.771677    0.904662
      7          6           0       -3.086794   -0.585645    1.289292
      8          6           0       -3.077355    0.910002    1.771738
      9          6           0       -4.497993    1.403662    1.382356
     10          6           0       -3.075198    1.060813    3.257374
     11          6           0       -2.083514   -0.745613    0.094513
     12          6           0       -0.603542   -0.786945    0.460915
     13          6           0        0.359154   -0.880758   -0.630267
     14          8           0        0.081186   -1.373643   -1.780147
     15          8           0        1.584099   -0.688673   -0.317068
     16          7           0       -7.045652    2.812897    0.481236
     17          6           0       -5.875517    3.419453    1.054976
     18          6           0       -6.291138    4.851829    1.026900
     19          6           0       -7.488038    4.985627    0.587632
     20          6           0       -8.068178    3.728139    0.187849
     21          6           0       -5.197283    5.897153    1.496382
     22          6           0       -8.111027    6.247807    0.285862
     23          6           0       -9.090339    6.520034   -0.546658
     24          7           0       -9.192734    0.825217   -0.423131
     25          6           0       -9.882127    2.083255   -0.394188
     26          6           0      -11.268450    1.752943   -0.795655
     27          6           0      -11.367325    0.484243   -1.066243
     28          6           0      -10.063167   -0.094031   -0.794088
     29          6           0      -12.140721    2.977058   -1.089795
     30          6           0      -12.537314   -0.261323   -1.646275
     31          6           0      -12.497390   -0.375305   -3.195597
     32          7           0       -7.400217   -1.338186   -0.318816
     33          6           0       -8.549635   -2.029288   -0.610631
     34          6           0       -8.093884   -3.462110   -0.756932
     35          6           0       -6.758959   -3.470332   -0.301452
     36          6           0       -6.401278   -2.103825   -0.023859
     37          6           0       -8.920838   -4.682360   -1.027332
     38          6           0       -5.674917   -4.324958   -0.022300
     39          8           0       -5.522481   -5.529746   -0.239817
     40          6           0       -4.550869   -3.284553    0.411730
     41          6           0       -3.923996   -3.883046    1.748446
     42          8           0       -4.223432   -3.417067    2.756553
     43          8           0       -3.138533   -5.018815    1.570281
     44          6           0       -2.744219   -5.478898    2.872697
     45          6           0        2.685060   -0.842056   -1.320471
     46          6           0        3.950232   -0.580704   -0.714389
     47          6           0        4.988313    0.130228   -1.132022
     48          6           0        4.911429    0.849575   -2.446334
     49          6           0        6.226971    0.418427   -0.345544
     50          6           0        7.529153   -0.297970   -0.997102
     51          6           0        8.841947   -0.110685   -0.180003
     52          6           0       10.071872   -0.805623   -0.673626
     53          6           0        9.887955   -2.389512   -0.749257
     54          6           0       11.318567   -0.369023    0.188292
     55          6           0       12.623805   -0.747704   -0.460921
     56          6           0       13.753784   -0.103829    0.283305
     57          6           0       15.211555   -0.306279   -0.273570
     58          6           0       15.558241   -1.787596   -0.215042
     59          6           0       16.221999    0.579901    0.503057
     60          6           0       17.577939    0.612559   -0.129939
     61          6           0       18.514882    1.633870    0.527337
     62          6           0       20.035150    1.701003    0.074587
     63          6           0       20.109093    2.033795   -1.462212
     64          6           0       20.924246    2.743924    1.000928
     65          1           0       -3.987577    3.315946    1.825227
     66          1           0       -9.999877    4.148776   -0.249294
     67          1           0      -10.671774   -2.069348   -1.203716
     68          1           0       -2.539052   -1.212445    2.008330
     69          1           0       -2.428028    1.535604    1.188591
     70          1           0       -2.049069    0.616592    3.865050
     71          1           0       -3.074798    1.940067    3.549487
     72          1           0       -3.781144    0.316316    3.814093
     73          1           0       -2.195615   -1.670351   -0.479255
     74          1           0       -2.192302    0.067823   -0.673103
     75          1           0       -0.372650    0.228563    0.939015
     76          1           0       -0.249504   -1.505148    1.218385
     77          1           0       -4.490982    6.182603    0.570377
     78          1           0       -5.795618    6.896116    1.856061
     79          1           0       -4.518368    5.340357    2.428041
     80          1           0       -7.714101    7.063324    0.733904
     81          1           0       -9.727115    5.536054   -0.982409
     82          1           0       -9.631913    7.525362   -0.625997
     83          1           0      -12.541121    3.565500   -0.172979
     84          1           0      -11.570989    3.876408   -1.647682
     85          1           0      -13.137743    2.545782   -1.514994
     86          1           0      -12.773786   -1.108421   -1.078779
     87          1           0      -13.569689    0.412028   -1.453135
     88          1           0      -12.598008    0.725967   -3.629236
     89          1           0      -11.531765   -0.667285   -3.615248
     90          1           0      -13.262455   -1.044389   -3.616544
     91          1           0      -10.102544   -4.492975   -0.866227
     92          1           0       -9.070346   -4.895599   -2.172586
     93          1           0       -8.611868   -5.713376   -0.867055
     94          1           0       -3.872525   -3.345021   -0.505924
     95          1           0       -1.673401   -6.140282    2.781918
     96          1           0       -2.259525   -4.531135    3.414793
     97          1           0       -3.580904   -5.837418    3.427310
     98          1           0        2.621846   -1.844604   -1.713162
     99          1           0        2.591974   -0.009762   -2.216449
    100          1           0        3.946604   -1.033606    0.297661
    101          1           0        5.297810    1.863126   -2.388105
    102          1           0        6.035702    0.531076   -2.973777
    103          1           0        4.115155    0.732754   -3.286057
    104          1           0        6.560852    1.434548   -0.106085
    105          1           0        6.068866   -0.069136    0.652301
    106          1           0        7.480269   -1.331580   -1.288187
    107          1           0        7.615099    0.345356   -1.902107
    108          1           0        9.093721    0.831747   -0.102599
    109          1           0        8.598867   -0.531890    0.737540
    110          1           0       10.483246   -0.433048   -1.723233
    111          1           0        9.230508   -2.755357   -1.666436
    112          1           0       10.802279   -2.820316   -1.132884
    113          1           0        9.494331   -2.808254    0.089804
    114          1           0       11.333641    0.784483    0.353692
    115          1           0       11.065689   -0.867507    1.342819
    116          1           0       12.743493   -1.770490   -0.729691
    117          1           0       12.601589   -0.132465   -1.456487
    118          1           0       13.570393    0.967401    0.154592
    119          1           0       13.747126   -0.390494    1.602063
    120          1           0       15.189921    0.089188   -1.366166
    121          1           0       14.895231   -2.268275   -0.738389
    122          1           0       16.540407   -2.002600   -0.499246
    123          1           0       15.657450   -2.257220    0.804819
    124          1           0       15.803393    1.648165    0.636074
    125          1           0       16.268084    0.327114    1.602002
    126          1           0       18.156244   -0.295801   -0.148620
    127          1           0       17.430102    0.874245   -1.142576
    128          1           0       18.303811    2.628568    0.485971
    129          1           0       18.471756    1.373265    1.530228
    130          1           0       20.428763    0.610057    0.459015
    131          1           0       19.608838    2.928785   -1.925902
    132          1           0       21.136124    2.219745   -2.001684
    133          1           0       19.566783    1.052125   -2.023218
    134          1           0       20.838080    2.485579    2.172574
    135          1           0       22.097079    2.547689    0.823633
    136          1           0       20.676072    3.747607    0.685505
    137          1           0       -7.161451    1.717730    0.563716
    138          1           0       -7.546437   -0.397043   -0.083681
 ---------------------------------------------------------------------

 SCF Done:  E(RB3LYP) =  -2732.98731408     A.U. after   16 cycles

 Excitation energies and oscillator strengths:

 Excited State   1:      Singlet-A      2.0391 eV  608.05 nm  f=0.1857  <S**2>=0.000
     235 -> 238       -0.28709
     236 -> 237        0.63391
 This state for optimization and/or second-order correction.
 Total Energy, E(TD-HF/TD-DFT) =  -2732.91238026
 Copying the excited state density for this state as the 1-particle RhoCI density.

 The electronic state is 1-A.
 Alpha  occ. eigenvalues --  -19.18195 -19.17282 -19.13269 -19.11908 -19.09692
 Alpha  occ. eigenvalues --  -14.37237 -14.36928 -14.32568 -14.30010 -10.31318
 Alpha  occ. eigenvalues --  -10.30658 -10.27333 -10.25952 -10.25459 -10.24570
 Alpha  occ. eigenvalues --  -10.24293 -10.24102 -10.23520 -10.23442 -10.23393
 Alpha  occ. eigenvalues --  -10.23192 -10.22179 -10.21515 -10.21378 -10.21191
 Alpha  occ. eigenvalues --  -10.21040 -10.21010 -10.20990 -10.20928 -10.20863
 Alpha  occ. eigenvalues --  -10.20814 -10.20759 -10.20598 -10.20572 -10.20570
 Alpha  occ. eigenvalues --  -10.20549 -10.20534 -10.20521 -10.20329 -10.20153
 Alpha  occ. eigenvalues --  -10.20143 -10.19957 -10.19903 -10.19886 -10.19824
 Alpha  occ. eigenvalues --  -10.19737 -10.19634 -10.19580 -10.19390 -10.19276
 Alpha  occ. eigenvalues --  -10.19075 -10.19043 -10.18972 -10.18797 -10.18793
 Alpha  occ. eigenvalues --  -10.18591 -10.18569 -10.18456 -10.18393 -10.17981
 Alpha  occ. eigenvalues --  -10.17363 -10.16699 -10.16510 -10.16174  -1.10495
 Alpha  occ. eigenvalues --   -1.10006  -1.02241  -1.01435  -1.00492  -0.96299
 Alpha  occ. eigenvalues --   -0.95710  -0.93748  -0.93443  -0.86241  -0.83480
 Alpha  occ. eigenvalues --   -0.82750  -0.82218  -0.81813  -0.81256  -0.80950
 Alpha  occ. eigenvalues --   -0.80446  -0.80131  -0.79550  -0.79102  -0.78199
 Alpha  occ. eigenvalues --   -0.77318  -0.76504  -0.75717  -0.75500  -0.74294
 Alpha  occ. eigenvalues --   -0.73334  -0.72965  -0.71969  -0.71691  -0.70904
 Alpha  occ. eigenvalues --   -0.70161  -0.68728  -0.68368  -0.68146  -0.67642
 Alpha  occ. eigenvalues --   -0.67356  -0.66680  -0.66075  -0.65869  -0.65697
 Alpha  occ. eigenvalues --   -0.64597  -0.63301  -0.63152  -0.62055  -0.61888
 Alpha  occ. eigenvalues --   -0.61207  -0.59653  -0.59305  -0.58363  -0.57682
 Alpha  occ. eigenvalues --   -0.57228  -0.56446  -0.55914  -0.55312  -0.55142
 Alpha  occ. eigenvalues --   -0.54945  -0.54726  -0.54002  -0.53743  -0.53299
 Alpha  occ. eigenvalues --   -0.52903  -0.52499  -0.51752  -0.51598  -0.50816
 Alpha  occ. eigenvalues --   -0.50396  -0.49890  -0.49330  -0.48991  -0.48652
 Alpha  occ. eigenvalues --   -0.48430  -0.48279  -0.48024  -0.47559  -0.47439
 Alpha  occ. eigenvalues --   -0.47131  -0.46924  -0.46693  -0.46321  -0.46134
 Alpha  occ. eigenvalues --   -0.45744  -0.45125  -0.44961  -0.44742  -0.44541
 Alpha  occ. eigenvalues --   -0.44385  -0.44281  -0.44033  -0.43538  -0.43489
 Alpha  occ. eigenvalues --   -0.43372  -0.43043  -0.42928  -0.42692  -0.42443
 Alpha  occ. eigenvalues --   -0.42329  -0.42153  -0.41662  -0.41580  -0.41163
 Alpha  occ. eigenvalues --   -0.40987  -0.40861  -0.40626  -0.40492  -0.40398
 Alpha  occ. eigenvalues --   -0.40179  -0.39740  -0.39685  -0.39512  -0.39418
 Alpha  occ. eigenvalues --   -0.39118  -0.38932  -0.38598  -0.38362  -0.38179
 Alpha  occ. eigenvalues --   -0.37979  -0.37953  -0.37916  -0.37787  -0.37553
 Alpha  occ. eigenvalues --   -0.37273  -0.37221  -0.36827  -0.36664  -0.36488
 Alpha  occ. eigenvalues --   -0.36438  -0.36231  -0.36200  -0.35900  -0.35762
 Alpha  occ. eigenvalues --   -0.35442  -0.35321  -0.35225  -0.35031  -0.34470
 Alpha  occ. eigenvalues --   -0.34417  -0.33986  -0.33960  -0.33703  -0.33399
 Alpha  occ. eigenvalues --   -0.33183  -0.32917  -0.32754  -0.32565  -0.32489
 Alpha  occ. eigenvalues --   -0.32407  -0.32153  -0.32053  -0.31980  -0.31828
 Alpha  occ. eigenvalues --   -0.31554  -0.31163  -0.30515  -0.30465  -0.30207
 Alpha  occ. eigenvalues --   -0.29062  -0.29012  -0.28905  -0.28698  -0.28142
 Alpha  occ. eigenvalues --   -0.27139  -0.26858  -0.26309  -0.26104  -0.25581
 Alpha  occ. eigenvalues --   -0.24782  -0.24668  -0.24432  -0.23704  -0.20059
 Alpha  occ. eigenvalues --   -0.19251
 Alpha virt. eigenvalues --   -0.10746  -0.07807  -0.04542  -0.01563  -0.00789
 Alpha virt. eigenvalues --   -0.00035   0.00176   0.01303   0.01873   0.02864
 Alpha virt. eigenvalues --    0.03442   0.03630   0.03962   0.04185   0.04404

 Mulliken charges:
               1
     1  C    0.077254
     2  C   -0.022553
     3  C   -0.028453
     4  C   -0.071382
     5  N   -0.206526
     6  C   -0.003712
     7  C   -0.008967
     8  C   -0.017925
     9  C    0.054122
    10  C    0.111814
    11  C    0.025951
    12  C    0.027241
    13  C    0.156861
    14  O   -0.327164
    15  O   -0.280793
    16  N   -0.195490
    17  C    0.053593
    18  C   -0.077800
    19  C    0.095940
    20  C    0.059006
    21  C   -0.046423
    22  C    0.006753
    23  C   -0.094142
    24  N   -0.250804
    25  C    0.037269
    26  C   -0.040404
    27  C   -0.083828
    28  C    0.009586
    29  C    0.006294
    30  C    0.023884
    31  C    0.003235
    32  N    0.093162
    33  C    0.050843
    34  C   -0.078878
    35  C    0.031576
    36  C   -0.008894
    37  C    0.037693
    38  C    0.030776
    39  O   -0.184177
    40  C   -0.090267
    41  C    0.184539
    42  O   -0.156807
    43  O   -0.311158
    44  C    0.127864
    45  C    0.283359
    46  C   -0.134613
    47  C   -0.059642
    48  C    0.004933
    49  C    0.061475
    50  C   -0.014113
    51  C    0.187305
    52  C   -0.121107
    53  C    0.047841
    54  C   -0.059407
    55  C    0.070927
    56  C   -0.039066
    57  C   -0.083453
    58  C    0.151094
    59  C    0.001279
    60  C    0.107327
    61  C    0.081107
    62  C   -0.118823
    63  C   -0.057521
    64  C   -0.046185
    65  H   -0.061666
    66  H   -0.031915
    67  H    0.007272
    68  H   -0.000293
    69  H   -0.000436
    70  H   -0.004084
    71  H   -0.061695
    72  H    0.044872
    73  H    0.018649
    74  H    0.010985
    75  H    0.019199
    76  H    0.037960
    77  H    0.067007
    78  H    0.053886
    79  H    0.065663
    80  H   -0.063184
    81  H    0.043879
    82  H    0.042323
    83  H    0.022618
    84  H    0.052998
    85  H    0.021627
    86  H   -0.001052
    87  H    0.011033
    88  H    0.024966
    89  H    0.013246
    90  H    0.022637
    91  H    0.031525
    92  H    0.023374
    93  H    0.041425
    94  H    0.076377
    95  H    0.055613
    96  H    0.029560
    97  H    0.040728
    98  H    0.036134
    99  H    0.045435
   100  H   -0.012448
   101  H    0.006042
   102  H    0.012206
   103  H    0.059870
   104  H    0.015040
   105  H   -0.002841
   106  H    0.000619
   107  H   -0.002998
   108  H   -0.063943
   109  H   -0.032832
   110  H   -0.009990
   111  H    0.015811
   112  H   -0.004648
   113  H   -0.001561
   114  H    0.011683
   115  H    0.008726
   116  H    0.005272
   117  H   -0.000096
   118  H   -0.008646
   119  H    0.011494
   120  H   -0.002296
   121  H   -0.044269
   122  H   -0.024944
   123  H   -0.004638
   124  H   -0.009283
   125  H   -0.011037
   126  H   -0.009006
   127  H   -0.024831
   128  H   -0.038944
   129  H   -0.035838
   130  H    0.014711
   131  H    0.020878
   132  H    0.022919
   133  H    0.032345
   134  H    0.032257
   135  H    0.028831
   136  H    0.023214
   137  H    0.195405
   138  H    0.109669
 Sum of Mulliken charges =  -0.00000

 Dipole moment (field-independent basis, Debye):
    X=              2.6192    Y=              4.7057    Z=              1.1451  Tot=              5.5059
 Quadrupole moment (field-independent basis, Debye-Ang):
   XX=           -343.7341   YY=           -386.7930   ZZ=           -397.3512
   XY=            -12.7092   XZ=             -0.9413   YZ=             -2.6960

 Normal termination of Gaussian 16 at Sun Aug 11 10:36:26 2019.
