 Gaussian 16, Revision A.03,
 Gaussian 16:  ES64L-G16RevA.03 25-Dec-2016

 --------------------------
 # td=(NStates=1) B3LYP/SVP
 --------------------------

 --
 TD
 --
 Symbolic Z-matrix:
 Charge =  0 Multiplicity = 1

                         Standard orientation:
 ---------------------------------------------------------------------
 Center     Atomic      Atomic             Coordinates (Angstroms)
 Number     Number       Type             X           Y           Z
 ---------------------------------------------------------------------
      1          6           0       -5.071448   -1.882565    0.392175
      2          6           0       -4.775101    2.816282    1.230312
      3          6           0       -9.409287    3.287769   -0.171920
      4          6           0       -9.801232   -1.522182   -0.954495
      5          7           0       -5.227697    0.453735    0.674069
      6          6           0       -4.483021   -0.681491    0.777536
      7          6           0       -3.064364   -0.484559    1.218455
      8          6           0       -3.125265    0.988450    1.700638
      9          6           0       -4.420460    1.468720    1.160466
     10          6           0       -3.015280    1.133725    3.201078
     11          6           0       -2.006960   -0.795610    0.074001
     12          6           0       -0.647472   -0.737975    0.502255
     13          6           0        0.412071   -0.988168   -0.492169
     14          8           0        0.136150   -1.477212   -1.619512
     15          8           0        1.634141   -0.634085   -0.147411
     16          7           0       -7.126770    2.760027    0.428541
     17          6           0       -5.905080    3.435118    0.842576
     18          6           0       -6.223287    4.732197    1.015758
     19          6           0       -7.644802    4.903907    0.713478
     20          6           0       -8.070402    3.626297    0.151889
     21          6           0       -5.254466    5.867771    1.535021
     22          6           0       -8.311740    6.220300    0.412726
     23          6           0       -9.240248    6.536256   -0.449781
     24          7           0       -9.116654    0.853233   -0.685733
     25          6           0       -9.846951    1.992206   -0.548196
     26          6           0      -11.219940    1.763687   -0.896266
     27          6           0      -11.388641    0.448215   -1.097086
     28          6           0       -9.994919   -0.145449   -0.959464
     29          6           0      -12.354800    2.733176   -0.994893
     30          6           0      -12.609770   -0.323802   -1.546554
     31          6           0      -12.784573   -0.542991   -3.111166
     32          7           0       -7.409266   -1.240047   -0.234055
     33          6           0       -8.535278   -2.033535   -0.640262
     34          6           0       -8.107998   -3.452989   -0.629214
     35          6           0       -6.793321   -3.509574   -0.174098
     36          6           0       -6.410425   -2.066147    0.058948
     37          6           0       -8.933408   -4.575866   -1.043418
     38          6           0       -5.647033   -4.307409   -0.007501
     39          8           0       -5.514750   -5.451440   -0.137639
     40          6           0       -4.443938   -3.324811    0.400047
     41          6           0       -3.890722   -3.846166    1.728450
     42          8           0       -4.031483   -3.291242    2.829094
     43          8           0       -3.192735   -4.904598    1.561900
     44          6           0       -2.663843   -5.493643    2.748387
     45          6           0        2.734641   -1.058330   -0.965313
     46          6           0        4.025597   -0.499595   -0.443806
     47          6           0        4.950657    0.174190   -1.129910
     48          6           0        4.781350    0.632984   -2.511606
     49          6           0        6.159428    0.567952   -0.482431
     50          6           0        7.445336   -0.330669   -0.940194
     51          6           0        8.790634   -0.007171   -0.274923
     52          6           0        9.997800   -0.673545   -0.825685
     53          6           0        9.946049   -2.233065   -0.771382
     54          6           0       11.185155   -0.050859   -0.017438
     55          6           0       12.624457   -0.450955   -0.492576
     56          6           0       13.834355    0.114039    0.285389
     57          6           0       15.276750   -0.358011   -0.209485
     58          6           0       15.541355   -1.866269    0.102712
     59          6           0       16.321243    0.673978    0.529968
     60          6           0       17.731367    0.506572   -0.124230
     61          6           0       18.659003    1.706774    0.369721
     62          6           0       20.170515    1.522035    0.061049
     63          6           0       20.537394    1.655135   -1.458600
     64          6           0       20.987224    2.627329    0.841380
     65          1           0       -4.144475    3.466337    1.795949
     66          1           0      -10.181052    4.030982   -0.103785
     67          1           0      -10.751604   -2.212597   -0.888815
     68          1           0       -2.784719   -1.355646    1.797153
     69          1           0       -2.315679    1.563421    1.182204
     70          1           0       -1.810909    0.766370    3.557871
     71          1           0       -3.144847    2.187408    3.597236
     72          1           0       -3.596365    0.348651    3.823592
     73          1           0       -2.334569   -1.850059   -0.457686
     74          1           0       -2.306983   -0.000698   -0.685407
     75          1           0       -0.446153    0.289143    0.909645
     76          1           0       -0.474028   -1.383472    1.424234
     77          1           0       -4.375290    5.674553    0.915743
     78          1           0       -5.566470    6.783542    1.183210
     79          1           0       -5.217607    5.734666    2.645298
     80          1           0       -8.141097    7.051643    1.123674
     81          1           0       -9.752710    5.709392   -1.149862
     82          1           0       -9.648446    7.633399   -0.481892
     83          1           0      -12.132307    3.341293   -0.057188
     84          1           0      -12.070707    3.263269   -1.938283
     85          1           0      -13.467040    2.681040   -1.015653
     86          1           0      -12.774317   -1.444750   -1.088605
     87          1           0      -13.430146    0.317344   -1.292616
     88          1           0      -12.587284    0.394215   -3.603558
     89          1           0      -11.804509   -1.255272   -3.466006
     90          1           0      -13.790358   -0.833098   -3.379726
     91          1           0       -9.933583   -4.847461   -0.292299
     92          1           0       -9.480699   -4.426618   -2.013816
     93          1           0       -8.418353   -5.483782   -1.033013
     94          1           0       -3.698265   -3.551333   -0.258736
     95          1           0       -2.112048   -6.310051    2.548347
     96          1           0       -1.777986   -4.662613    3.252934
     97          1           0       -3.525176   -5.900217    3.509403
     98          1           0        2.906202   -2.176676   -1.080280
     99          1           0        2.480265   -0.765675   -2.059631
    100          1           0        4.039281   -0.518779    0.806435
    101          1           0        4.806965    1.857896   -2.637376
    102          1           0        5.487615    0.378920   -3.124260
    103          1           0        3.935160    0.278301   -3.020107
    104          1           0        6.675640    1.511699   -0.552204
    105          1           0        5.927364    0.157036    0.676843
    106          1           0        7.125440   -1.379775   -1.083359
    107          1           0        7.724819   -0.157962   -2.135874
    108          1           0        8.794107    1.111012   -0.246549
    109          1           0        8.536009   -0.390676    0.802759
    110          1           0       10.324908   -0.322760   -1.992982
    111          1           0        9.265468   -2.644197   -1.341715
    112          1           0       10.809069   -2.671749   -1.038835
    113          1           0        9.764246   -2.631880    0.290957
    114          1           0       11.034698    1.015455   -0.124141
    115          1           0       10.925311   -0.324363    1.085345
    116          1           0       12.633776   -1.527769   -0.459536
    117          1           0       12.739212   -0.163700   -1.530389
    118          1           0       13.736622    1.371873    0.004978
    119          1           0       13.710702   -0.279794    1.473127
    120          1           0       15.551656   -0.412890   -1.511644
    121          1           0       14.878936   -2.909387   -0.075005
    122          1           0       16.468122   -2.323387   -0.372422
    123          1           0       15.799777   -2.089280    1.378502
    124          1           0       15.753427    1.709217    0.433962
    125          1           0       16.286429    0.547842    1.679135
    126          1           0       18.253617   -0.425254    0.305715
    127          1           0       17.647766    0.462099   -1.270726
    128          1           0       18.377757    2.687284   -0.224684
    129          1           0       18.499862    1.920597    1.454802
    130          1           0       20.539317    0.479377    0.399707
    131          1           0       20.078511    2.631774   -2.003705
    132          1           0       21.597532    1.611105   -1.633345
    133          1           0       19.949982    0.984576   -2.062968
    134          1           0       20.729116    2.441321    2.022647
    135          1           0       22.066970    2.833832    0.592798
    136          1           0       20.805808    3.772107    0.741609
    137          1           0       -7.206861    1.788429    0.332334
    138          1           0       -7.654122   -0.224827   -0.272829
 ---------------------------------------------------------------------

 SCF Done:  E(RB3LYP) =  -2732.99950699     A.U. after   17 cycles

 Excitation energies and oscillator strengths:

 Excited State   1:      Singlet-A      1.9713 eV  628.94 nm  f=0.1954  <S**2>=0.000
     235 -> 238        0.27717
     236 -> 237        0.64954
 This state for optimization and/or second-order correction.
 Total Energy, E(TD-HF/TD-DFT) =  -2732.92706202
 Copying the excited state density for this state as the 1-particle RhoCI density.

 The electronic state is 1-A.
 Alpha  occ. eigenvalues --  -19.19421 -19.19081 -19.12206 -19.11485 -19.11028
 Alpha  occ. eigenvalues --  -14.37143 -14.35951 -14.32610 -14.30667 -10.31768
 Alpha  occ. eigenvalues --  -10.31133 -10.27242 -10.26818 -10.26049 -10.23929
 Alpha  occ. eigenvalues --  -10.23764 -10.23199 -10.22979 -10.22724 -10.22620
 Alpha  occ. eigenvalues --  -10.22465 -10.22054 -10.21995 -10.21898 -10.21551
 Alpha  occ. eigenvalues --  -10.21504 -10.21433 -10.20934 -10.20840 -10.20803
 Alpha  occ. eigenvalues --  -10.20737 -10.20641 -10.20589 -10.20580 -10.20463
 Alpha  occ. eigenvalues --  -10.20447 -10.20434 -10.20243 -10.20242 -10.20234
 Alpha  occ. eigenvalues --  -10.20156 -10.20155 -10.20151 -10.20027 -10.19925
 Alpha  occ. eigenvalues --  -10.19908 -10.19898 -10.19896 -10.19858 -10.19799
 Alpha  occ. eigenvalues --  -10.19738 -10.19568 -10.19507 -10.19431 -10.19418
 Alpha  occ. eigenvalues --  -10.19296 -10.18840 -10.18645 -10.18432 -10.18395
 Alpha  occ. eigenvalues --  -10.18240 -10.17970 -10.17969 -10.16740  -1.12287
 Alpha  occ. eigenvalues --   -1.10371  -1.06033  -0.98859  -0.98506  -0.98097
 Alpha  occ. eigenvalues --   -0.97532  -0.94357  -0.93861  -0.84119  -0.83664
 Alpha  occ. eigenvalues --   -0.82265  -0.82100  -0.81332  -0.80856  -0.80112
 Alpha  occ. eigenvalues --   -0.79759  -0.79599  -0.79075  -0.78327  -0.78030
 Alpha  occ. eigenvalues --   -0.76905  -0.76015  -0.75620  -0.74719  -0.74192
 Alpha  occ. eigenvalues --   -0.73922  -0.73080  -0.72720  -0.71121  -0.70858
 Alpha  occ. eigenvalues --   -0.70539  -0.69677  -0.69498  -0.68552  -0.67768
 Alpha  occ. eigenvalues --   -0.67310  -0.66476  -0.66068  -0.65336  -0.65047
 Alpha  occ. eigenvalues --   -0.64151  -0.63089  -0.62343  -0.61280  -0.61024
 Alpha  occ. eigenvalues --   -0.60537  -0.58826  -0.58154  -0.57891  -0.57441
 Alpha  occ. eigenvalues --   -0.56475  -0.56061  -0.55772  -0.55224  -0.54790
 Alpha  occ. eigenvalues --   -0.54696  -0.54397  -0.53467  -0.53308  -0.52894
 Alpha  occ. eigenvalues --   -0.52522  -0.51909  -0.51691  -0.51366  -0.50903
 Alpha  occ. eigenvalues --   -0.50085  -0.49574  -0.49371  -0.49040  -0.48639
 Alpha  occ. eigenvalues --   -0.48108  -0.48030  -0.47740  -0.47102  -0.46617
 Alpha  occ. eigenvalues --   -0.46408  -0.46320  -0.46252  -0.45847  -0.45669
 Alpha  occ. eigenvalues --   -0.45485  -0.45036  -0.44840  -0.44719  -0.44353
 Alpha  occ. eigenvalues --   -0.44347  -0.44112  -0.44033  -0.43996  -0.43494
 Alpha  occ. eigenvalues --   -0.43159  -0.43075  -0.42695  -0.42512  -0.42435
 Alpha  occ. eigenvalues --   -0.42147  -0.41929  -0.41673  -0.41471  -0.41367
 Alpha  occ. eigenvalues --   -0.41328  -0.41256  -0.40728  -0.40589  -0.40510
 Alpha  occ. eigenvalues --   -0.40333  -0.40147  -0.39680  -0.39658  -0.39558
 Alpha  occ. eigenvalues --   -0.39210  -0.38987  -0.38862  -0.38327  -0.38253
 Alpha  occ. eigenvalues --   -0.37925  -0.37898  -0.37628  -0.37519  -0.37358
 Alpha  occ. eigenvalues --   -0.37290  -0.37184  -0.37015  -0.36604  -0.36138
 Alpha  occ. eigenvalues --   -0.35820  -0.35706  -0.35512  -0.35215  -0.35155
 Alpha  occ. eigenvalues --   -0.35040  -0.34973  -0.34656  -0.34332  -0.34191
 Alpha  occ. eigenvalues --   -0.34134  -0.33738  -0.33660  -0.33277  -0.33173
 Alpha  occ. eigenvalues --   -0.33142  -0.33065  -0.32810  -0.32682  -0.32639
 Alpha  occ. eigenvalues --   -0.32326  -0.31650  -0.31489  -0.31351  -0.31223
 Alpha  occ. eigenvalues --   -0.30718  -0.30487  -0.30392  -0.30299  -0.30261
 Alpha  occ. eigenvalues --   -0.29953  -0.29252  -0.28560  -0.28249  -0.27964
 Alpha  occ. eigenvalues --   -0.27070  -0.26998  -0.26905  -0.26523  -0.26112
 Alpha  occ. eigenvalues --   -0.24889  -0.24684  -0.23515  -0.23087  -0.19937
 Alpha  occ. eigenvalues --   -0.18715
 Alpha virt. eigenvalues --   -0.10574  -0.07608  -0.04143  -0.01022  -0.00889
 Alpha virt. eigenvalues --   -0.00680   0.00612   0.01041   0.01831   0.03027
 Alpha virt. eigenvalues --    0.03312   0.03609   0.03901   0.04190   0.04446

 Mulliken charges:
               1
     1  C    0.060903
     2  C   -0.124265
     3  C   -0.099685
     4  C   -0.119557
     5  N   -0.184481
     6  C   -0.059035
     7  C    0.006855
     8  C    0.049576
     9  C    0.011321
    10  C   -0.022313
    11  C   -0.069793
    12  C    0.088610
    13  C    0.183653
    14  O   -0.284798
    15  O   -0.274043
    16  N   -0.042905
    17  C    0.197268
    18  C   -0.202757
    19  C   -0.011075
    20  C    0.082532
    21  C    0.168900
    22  C   -0.020821
    23  C   -0.106842
    24  N   -0.250002
    25  C    0.083433
    26  C   -0.108928
    27  C   -0.087963
    28  C    0.052986
    29  C    0.029318
    30  C    0.028537
    31  C   -0.017351
    32  N   -0.041481
    33  C    0.081148
    34  C   -0.113854
    35  C    0.049986
    36  C    0.044984
    37  C    0.049482
    38  C   -0.014424
    39  O   -0.105106
    40  C   -0.013415
    41  C    0.169315
    42  O   -0.271938
    43  O   -0.220315
    44  C    0.141697
    45  C    0.214713
    46  C   -0.141582
    47  C   -0.096123
    48  C    0.173455
    49  C    0.069169
    50  C   -0.102423
    51  C    0.057893
    52  C   -0.141142
    53  C    0.150992
    54  C    0.020875
    55  C    0.090005
    56  C   -0.047125
    57  C   -0.109782
    58  C   -0.099479
    59  C   -0.003722
    60  C    0.027239
    61  C   -0.014306
    62  C   -0.069810
    63  C    0.012167
    64  C   -0.048430
    65  H   -0.039931
    66  H   -0.022490
    67  H    0.038096
    68  H   -0.012095
    69  H    0.007274
    70  H    0.013765
    71  H    0.034426
    72  H    0.056627
    73  H    0.051424
    74  H    0.012791
    75  H    0.023169
    76  H    0.034034
    77  H    0.019146
    78  H   -0.006321
    79  H    0.053968
    80  H    0.006339
    81  H    0.043056
    82  H    0.038974
    83  H    0.037431
    84  H    0.032045
    85  H    0.034114
    86  H    0.026156
    87  H   -0.012270
    88  H    0.002425
    89  H    0.030306
    90  H    0.023763
    91  H    0.037205
    92  H    0.035007
    93  H    0.017798
    94  H    0.006971
    95  H    0.004414
    96  H    0.050238
    97  H    0.067201
    98  H    0.041041
    99  H    0.040212
   100  H    0.038892
   101  H    0.029959
   102  H   -0.044292
   103  H   -0.026786
   104  H   -0.001403
   105  H    0.013794
   106  H    0.001042
   107  H   -0.007493
   108  H    0.002574
   109  H    0.009864
   110  H    0.008351
   111  H   -0.034570
   112  H   -0.032427
   113  H    0.001397
   114  H   -0.016821
   115  H   -0.003073
   116  H   -0.014275
   117  H   -0.014866
   118  H    0.026937
   119  H    0.037039
   120  H    0.029245
   121  H    0.039828
   122  H    0.022615
   123  H    0.005457
   124  H    0.017207
   125  H    0.018715
   126  H    0.020829
   127  H    0.025240
   128  H    0.011477
   129  H    0.006745
   130  H    0.015750
   131  H    0.004826
   132  H    0.020078
   133  H   -0.004780
   134  H    0.021269
   135  H    0.010094
   136  H    0.007507
   137  H    0.111249
   138  H    0.160554
 Sum of Mulliken charges =  -0.00000

 Dipole moment (field-independent basis, Debye):
    X=              2.1259    Y=              2.4629    Z=              0.8327  Tot=              3.3584
 Quadrupole moment (field-independent basis, Debye-Ang):
   XX=           -346.5643   YY=           -379.8021   ZZ=           -399.8183
   XY=            -19.8914   XZ=             -2.4390   YZ=             -2.2440

 Normal termination of Gaussian 16 at Wed Aug 14 09:42:45 2019.
