 Gaussian 16, Revision A.03,
 Gaussian 16:  ES64L-G16RevA.03 25-Dec-2016

 --------------------------
 # td=(NStates=1) B3LYP/SVP
 --------------------------

 --
 TD
 --
 Symbolic Z-matrix:
 Charge =  0 Multiplicity = 1

                         Standard orientation:
 ---------------------------------------------------------------------
 Center     Atomic      Atomic             Coordinates (Angstroms)
 Number     Number       Type             X           Y           Z
 ---------------------------------------------------------------------
      1          6           0       -5.109131   -1.887692    0.400936
      2          6           0       -4.651344    2.786777    1.349400
      3          6           0       -9.248717    3.385777   -0.291846
      4          6           0       -9.835985   -1.380609   -0.895851
      5          7           0       -5.174479    0.444885    0.806960
      6          6           0       -4.509503   -0.705065    0.894788
      7          6           0       -3.089835   -0.634178    1.332569
      8          6           0       -3.139214    0.756223    2.003284
      9          6           0       -4.353061    1.429976    1.286977
     10          6           0       -3.123499    0.840671    3.445949
     11          6           0       -2.176086   -0.649297    0.114482
     12          6           0       -0.681779   -0.728313    0.494034
     13          6           0        0.394074   -1.054666   -0.577767
     14          8           0        0.061820   -1.565008   -1.640637
     15          8           0        1.693002   -0.909076   -0.186627
     16          7           0       -7.008091    2.739785    0.612297
     17          6           0       -5.752735    3.397365    1.010630
     18          6           0       -6.064796    4.862078    0.984701
     19          6           0       -7.328046    5.046851    0.434693
     20          6           0       -7.877463    3.699977    0.200928
     21          6           0       -5.124166    5.957608    1.575566
     22          6           0       -8.026584    6.319576    0.265204
     23          6           0       -8.940183    6.615502   -0.732618
     24          7           0       -9.139354    0.934210   -0.383491
     25          6           0       -9.794292    2.170022   -0.470223
     26          6           0      -11.171150    1.948217   -1.031190
     27          6           0      -11.326943    0.652611   -1.122902
     28          6           0      -10.126787   -0.000390   -0.747324
     29          6           0      -12.074418    3.108666   -1.157510
     30          6           0      -12.653107   -0.016045   -1.534382
     31          6           0      -12.521275   -0.216881   -3.071569
     32          7           0       -7.546838   -1.198973   -0.037888
     33          6           0       -8.631036   -1.987710   -0.598692
     34          6           0       -8.151170   -3.322146   -0.579774
     35          6           0       -6.940744   -3.374448   -0.272169
     36          6           0       -6.475615   -1.982350    0.044930
     37          6           0       -9.121462   -4.556814   -0.801031
     38          6           0       -5.761778   -4.314454   -0.045485
     39          8           0       -5.764522   -5.478615   -0.114442
     40          6           0       -4.550215   -3.321728    0.338537
     41          6           0       -3.953997   -3.857748    1.649026
     42          8           0       -4.081083   -3.434304    2.727485
     43          8           0       -3.277868   -4.938562    1.416265
     44          6           0       -2.836792   -5.656469    2.607356
     45          6           0        2.732194   -1.385369   -1.165070
     46          6           0        3.960248   -0.838934   -0.606197
     47          6           0        4.970692   -0.177698   -1.418187
     48          6           0        4.925525    0.040746   -2.973592
     49          6           0        6.232980    0.255367   -0.586662
     50          6           0        7.566440   -0.536187   -1.018882
     51          6           0        8.802694   -0.206075   -0.157122
     52          6           0       10.084714   -0.864009   -0.783065
     53          6           0       10.049941   -2.363457   -0.584580
     54          6           0       11.363316   -0.399068   -0.008880
     55          6           0       12.595838   -0.630824   -0.704711
     56          6           0       13.855469   -0.101784    0.166683
     57          6           0       15.273201   -0.212822   -0.330900
     58          6           0       15.694813   -1.692492   -0.309948
     59          6           0       16.140579    0.768410    0.425242
     60          6           0       17.671475    0.677288   -0.037692
     61          6           0       18.559568    1.730025    0.752796
     62          6           0       20.007817    1.855600    0.216014
     63          6           0       19.987794    2.261670   -1.209592
     64          6           0       20.785014    2.904970    1.072150
     65          1           0       -3.808857    3.538496    1.481589
     66          1           0       -9.958289    4.172213   -0.376526
     67          1           0      -10.651900   -2.006132   -0.927593
     68          1           0       -2.789448   -1.540930    2.107056
     69          1           0       -2.318420    1.427510    1.621937
     70          1           0       -2.148785    0.413826    3.927429
     71          1           0       -3.033525    1.804881    3.824662
     72          1           0       -3.911273    0.272888    3.953984
     73          1           0       -2.435325   -1.544920   -0.799927
     74          1           0       -2.237922    0.251456   -0.514691
     75          1           0       -0.164763    0.254841    1.009575
     76          1           0       -0.397992   -1.525487    1.352426
     77          1           0       -4.138333    5.976024    1.099939
     78          1           0       -5.615459    6.840634    1.583141
     79          1           0       -4.922948    5.706165    2.679556
     80          1           0       -7.802919    7.068001    0.949594
     81          1           0       -9.331919    5.952491   -1.532948
     82          1           0       -9.217399    7.629182   -0.668066
     83          1           0      -12.259600    3.768663   -0.081770
     84          1           0      -11.930075    4.121593   -1.825708
     85          1           0      -13.061639    2.644298   -1.389202
     86          1           0      -13.030037   -0.875909   -1.038762
     87          1           0      -13.591662    0.697458   -1.456863
     88          1           0      -12.259561    0.652871   -3.683036
     89          1           0      -11.681073   -0.915401   -3.337379
     90          1           0      -13.382548   -0.916121   -3.474635
     91          1           0       -9.969551   -4.689295   -0.126366
     92          1           0       -9.737622   -4.649997   -1.739281
     93          1           0       -8.580390   -5.431168   -0.574303
     94          1           0       -3.914415   -3.399360   -0.433699
     95          1           0       -1.947255   -6.335164    2.167702
     96          1           0       -2.468398   -4.858806    3.306548
     97          1           0       -3.692404   -6.235677    3.046966
     98          1           0        2.478768   -2.630619   -1.030071
     99          1           0        2.552204   -1.153360   -2.300541
    100          1           0        4.318703   -1.026371    0.310294
    101          1           0        5.232864    1.040491   -3.540910
    102          1           0        5.378111   -0.807612   -3.629355
    103          1           0        3.816329    0.051613   -3.484719
    104          1           0        6.535905    1.405756   -0.819651
    105          1           0        6.062814    0.220867    0.690344
    106          1           0        7.138255   -1.620545   -0.679732
    107          1           0        7.811439   -0.409556   -2.097549
    108          1           0        8.874211    0.834478   -0.253325
    109          1           0        8.662572   -0.357670    0.876304
    110          1           0       10.093518   -0.729185   -1.752864
    111          1           0        9.133372   -2.803685   -0.965453
    112          1           0       10.949192   -2.879922   -0.912092
    113          1           0        9.915787   -2.680753    0.405339
    114          1           0       11.250941    0.760888    0.243718
    115          1           0       11.292372   -0.960910    0.817121
    116          1           0       13.019937   -1.699265   -1.055258
    117          1           0       12.577393   -0.103818   -1.707021
    118          1           0       13.673327    1.014277    0.303804
    119          1           0       13.582032   -0.627620    1.081129
    120          1           0       15.307934    0.164443   -1.320372
    121          1           0       15.294128   -2.376280   -0.993553
    122          1           0       16.786919   -1.745764   -0.623489
    123          1           0       15.863646   -2.030041    0.532544
    124          1           0       15.852325    2.096281    0.295583
    125          1           0       16.150703    0.485328    1.389551
    126          1           0       18.048299   -0.228896    0.329159
    127          1           0       17.659137    0.824948   -1.125379
    128          1           0       18.109044    2.742232    0.523750
    129          1           0       18.276216    1.603438    1.921588
    130          1           0       20.425724    0.734286    0.461930
    131          1           0       19.300551    3.186583   -1.294941
    132          1           0       21.154927    2.430529   -1.431379
    133          1           0       19.425003    1.427030   -1.690346
    134          1           0       20.809888    2.639044    2.239536
    135          1           0       21.767218    2.994247    0.756984
    136          1           0       20.342941    4.099597    0.866951
    137          1           0       -7.062603    1.760399    0.428663
    138          1           0       -7.628675   -0.246354    0.052083
 ---------------------------------------------------------------------

 SCF Done:  E(RB3LYP) =  -2732.98166953     A.U. after   17 cycles

 Excitation energies and oscillator strengths:

 Excited State   1:      Singlet-A      1.9926 eV  622.23 nm  f=0.1683  <S**2>=0.000
     235 -> 238       -0.28528
     236 -> 237        0.64273
 This state for optimization and/or second-order correction.
 Total Energy, E(TD-HF/TD-DFT) =  -2732.90844326
 Copying the excited state density for this state as the 1-particle RhoCI density.

 The electronic state is 1-A.
 Alpha  occ. eigenvalues --  -19.17337 -19.17326 -19.13852 -19.11885 -19.11491
 Alpha  occ. eigenvalues --  -14.36645 -14.36037 -14.32416 -14.29565 -10.31151
 Alpha  occ. eigenvalues --  -10.30784 -10.28883 -10.26926 -10.25783 -10.24310
 Alpha  occ. eigenvalues --  -10.23605 -10.23271 -10.23269 -10.22901 -10.22863
 Alpha  occ. eigenvalues --  -10.22736 -10.22644 -10.22620 -10.22433 -10.21708
 Alpha  occ. eigenvalues --  -10.21082 -10.21065 -10.21018 -10.21011 -10.20707
 Alpha  occ. eigenvalues --  -10.20496 -10.20449 -10.20357 -10.20301 -10.20186
 Alpha  occ. eigenvalues --  -10.20115 -10.20080 -10.20041 -10.20029 -10.20000
 Alpha  occ. eigenvalues --  -10.19764 -10.19649 -10.19557 -10.19424 -10.19404
 Alpha  occ. eigenvalues --  -10.19213 -10.19105 -10.19081 -10.19027 -10.18989
 Alpha  occ. eigenvalues --  -10.18753 -10.18662 -10.18437 -10.18201 -10.18168
 Alpha  occ. eigenvalues --  -10.18147 -10.18101 -10.18007 -10.17779 -10.17730
 Alpha  occ. eigenvalues --  -10.17722 -10.17614 -10.16278 -10.16251  -1.11923
 Alpha  occ. eigenvalues --   -1.07317  -1.06533  -1.01798  -0.98861  -0.97952
 Alpha  occ. eigenvalues --   -0.96087  -0.94859  -0.91829  -0.83731  -0.82644
 Alpha  occ. eigenvalues --   -0.81865  -0.81602  -0.81249  -0.80987  -0.80500
 Alpha  occ. eigenvalues --   -0.80368  -0.80028  -0.79199  -0.79004  -0.77140
 Alpha  occ. eigenvalues --   -0.76686  -0.75626  -0.75230  -0.74369  -0.73564
 Alpha  occ. eigenvalues --   -0.73320  -0.73076  -0.72202  -0.71376  -0.70809
 Alpha  occ. eigenvalues --   -0.70013  -0.69080  -0.68666  -0.68486  -0.67564
 Alpha  occ. eigenvalues --   -0.66839  -0.66548  -0.65780  -0.65623  -0.64611
 Alpha  occ. eigenvalues --   -0.63716  -0.62534  -0.61973  -0.61458  -0.60949
 Alpha  occ. eigenvalues --   -0.60651  -0.59477  -0.58408  -0.57736  -0.57284
 Alpha  occ. eigenvalues --   -0.56910  -0.56488  -0.56117  -0.55667  -0.55198
 Alpha  occ. eigenvalues --   -0.55121  -0.54786  -0.54209  -0.53342  -0.52869
 Alpha  occ. eigenvalues --   -0.52529  -0.52368  -0.51741  -0.50972  -0.50649
 Alpha  occ. eigenvalues --   -0.49866  -0.48919  -0.48449  -0.48126  -0.47909
 Alpha  occ. eigenvalues --   -0.47683  -0.47446  -0.47373  -0.47016  -0.46775
 Alpha  occ. eigenvalues --   -0.46542  -0.46359  -0.46098  -0.45827  -0.45746
 Alpha  occ. eigenvalues --   -0.45605  -0.45168  -0.44993  -0.44782  -0.44468
 Alpha  occ. eigenvalues --   -0.44376  -0.44209  -0.43966  -0.43514  -0.43375
 Alpha  occ. eigenvalues --   -0.43192  -0.43056  -0.42893  -0.42627  -0.42518
 Alpha  occ. eigenvalues --   -0.42494  -0.42172  -0.41920  -0.41440  -0.41156
 Alpha  occ. eigenvalues --   -0.41122  -0.40555  -0.40443  -0.40176  -0.39996
 Alpha  occ. eigenvalues --   -0.39827  -0.39714  -0.39591  -0.39533  -0.39312
 Alpha  occ. eigenvalues --   -0.39206  -0.38894  -0.38781  -0.38589  -0.38291
 Alpha  occ. eigenvalues --   -0.38168  -0.38059  -0.37687  -0.37389  -0.37327
 Alpha  occ. eigenvalues --   -0.37322  -0.37116  -0.36867  -0.36821  -0.36532
 Alpha  occ. eigenvalues --   -0.36326  -0.36249  -0.36016  -0.35920  -0.35602
 Alpha  occ. eigenvalues --   -0.35372  -0.35292  -0.35055  -0.34838  -0.34730
 Alpha  occ. eigenvalues --   -0.34640  -0.34520  -0.34377  -0.33941  -0.33831
 Alpha  occ. eigenvalues --   -0.33541  -0.33506  -0.32804  -0.32338  -0.32131
 Alpha  occ. eigenvalues --   -0.31999  -0.31866  -0.31369  -0.31224  -0.31174
 Alpha  occ. eigenvalues --   -0.30864  -0.30783  -0.30347  -0.30233  -0.30197
 Alpha  occ. eigenvalues --   -0.29754  -0.29436  -0.28521  -0.28216  -0.27892
 Alpha  occ. eigenvalues --   -0.27727  -0.27397  -0.26714  -0.26337  -0.25849
 Alpha  occ. eigenvalues --   -0.25459  -0.24257  -0.23805  -0.22751  -0.19914
 Alpha  occ. eigenvalues --   -0.17708
 Alpha virt. eigenvalues --   -0.09403  -0.07546  -0.03905  -0.03692  -0.01922
 Alpha virt. eigenvalues --   -0.00068   0.00481   0.01689   0.02642   0.03366
 Alpha virt. eigenvalues --    0.03442   0.03944   0.04429   0.04659   0.04984

 Mulliken charges:
               1
     1  C    0.003027
     2  C   -0.086551
     3  C   -0.053304
     4  C   -0.038820
     5  N   -0.156019
     6  C   -0.053758
     7  C   -0.077770
     8  C   -0.013492
     9  C   -0.019699
    10  C    0.132437
    11  C    0.021971
    12  C   -0.054906
    13  C    0.184336
    14  O   -0.255868
    15  O   -0.338667
    16  N   -0.087288
    17  C    0.114801
    18  C   -0.148613
    19  C    0.048815
    20  C    0.086344
    21  C    0.144953
    22  C   -0.068188
    23  C   -0.004772
    24  N   -0.307539
    25  C    0.069418
    26  C   -0.043336
    27  C   -0.060202
    28  C    0.058484
    29  C   -0.044880
    30  C    0.057568
    31  C   -0.026116
    32  N   -0.001120
    33  C    0.083521
    34  C   -0.154225
    35  C    0.008673
    36  C    0.057996
    37  C    0.092641
    38  C    0.081123
    39  O   -0.094159
    40  C    0.046306
    41  C    0.142589
    42  O   -0.198051
    43  O   -0.271904
    44  C    0.124237
    45  C    0.189192
    46  C    0.025759
    47  C   -0.073312
    48  C   -0.074870
    49  C   -0.060552
    50  C   -0.055514
    51  C    0.113781
    52  C   -0.003683
    53  C    0.060035
    54  C    0.099371
    55  C   -0.031253
    56  C   -0.003265
    57  C    0.023042
    58  C    0.157718
    59  C   -0.024059
    60  C    0.025159
    61  C   -0.038317
    62  C   -0.117504
    63  C    0.011803
    64  C    0.001646
    65  H   -0.006085
    66  H   -0.041956
    67  H   -0.044369
    68  H    0.061371
    69  H   -0.014362
    70  H    0.003130
    71  H   -0.015769
    72  H    0.018226
    73  H    0.065079
    74  H    0.016594
    75  H    0.044696
    76  H    0.046700
    77  H    0.031500
    78  H   -0.020359
    79  H    0.029045
    80  H   -0.015803
    81  H    0.043234
    82  H    0.008990
    83  H    0.038879
    84  H    0.049015
    85  H    0.010194
    86  H   -0.002003
    87  H    0.015513
    88  H    0.024018
    89  H    0.002595
    90  H    0.010585
    91  H    0.006578
    92  H    0.023518
    93  H    0.010738
    94  H    0.000757
    95  H    0.058872
    96  H    0.053231
    97  H    0.055981
    98  H    0.048122
    99  H    0.062709
   100  H   -0.043192
   101  H    0.046795
   102  H    0.055865
   103  H    0.032620
   104  H    0.021585
   105  H    0.042412
   106  H    0.024598
   107  H    0.025046
   108  H   -0.035613
   109  H   -0.023140
   110  H   -0.066441
   111  H   -0.012885
   112  H    0.002936
   113  H   -0.029726
   114  H    0.008113
   115  H   -0.044275
   116  H    0.009678
   117  H   -0.015145
   118  H   -0.006968
   119  H   -0.014092
   120  H   -0.035952
   121  H    0.005123
   122  H   -0.023364
   123  H   -0.076272
   124  H    0.023754
   125  H   -0.036562
   126  H   -0.006519
   127  H    0.013068
   128  H   -0.019259
   129  H    0.013506
   130  H    0.013148
   131  H    0.022484
   132  H    0.040562
   133  H    0.023364
   134  H    0.029138
   135  H   -0.009313
   136  H    0.016774
   137  H    0.136818
   138  H    0.086998
 Sum of Mulliken charges =  -0.00000

 Dipole moment (field-independent basis, Debye):
    X=              3.7977    Y=              2.5556    Z=              1.0371  Tot=              4.6935
 Quadrupole moment (field-independent basis, Debye-Ang):
   XX=           -358.7410   YY=           -377.3189   ZZ=           -393.0341
   XY=            -22.6259   XZ=             -2.5279   YZ=             -4.4910

 Normal termination of Gaussian 16 at Sun Aug 18 06:35:30 2019.
