 Gaussian 16, Revision A.03,
 Gaussian 16:  ES64L-G16RevA.03 25-Dec-2016

 --------------------------
 # td=(NStates=1) B3LYP/SVP
 --------------------------

 --
 TD
 --
 Symbolic Z-matrix:
 Charge =  0 Multiplicity = 1

                         Standard orientation:
 ---------------------------------------------------------------------
 Center     Atomic      Atomic             Coordinates (Angstroms)
 Number     Number       Type             X           Y           Z
 ---------------------------------------------------------------------
      1          6           0       -5.222851   -2.018622    0.503642
      2          6           0       -4.663009    2.659094    1.517073
      3          6           0       -9.271128    3.443878   -0.143299
      4          6           0       -9.805943   -1.341684   -1.062189
      5          7           0       -5.194132    0.268026    0.892709
      6          6           0       -4.615437   -0.861759    0.890144
      7          6           0       -3.064424   -0.692903    1.299209
      8          6           0       -3.085317    0.651712    1.960319
      9          6           0       -4.446412    1.262948    1.435027
     10          6           0       -2.978537    0.782340    3.412505
     11          6           0       -2.048656   -0.869785    0.157001
     12          6           0       -0.637297   -0.796139    0.576297
     13          6           0        0.376640   -1.084905   -0.533931
     14          8           0        0.183889   -1.672499   -1.644260
     15          8           0        1.557547   -0.772457   -0.220936
     16          7           0       -7.050438    2.709327    0.679307
     17          6           0       -5.907111    3.342153    1.105687
     18          6           0       -6.170328    4.707932    1.166827
     19          6           0       -7.428360    4.932504    0.636317
     20          6           0       -8.006518    3.665049    0.317936
     21          6           0       -5.199230    5.682878    1.807698
     22          6           0       -8.042662    6.317656    0.410341
     23          6           0       -8.718659    6.780420   -0.575255
     24          7           0       -9.069840    1.015037   -0.457029
     25          6           0       -9.703236    2.178714   -0.528383
     26          6           0      -11.071050    2.001890   -1.019623
     27          6           0      -11.282488    0.676161   -1.289467
     28          6           0      -10.034109   -0.035765   -0.891060
     29          6           0      -12.091147    3.208761   -1.297273
     30          6           0      -12.513110   -0.111293   -1.788981
     31          6           0      -12.613612   -0.200836   -3.299801
     32          7           0       -7.556615   -1.309897   -0.191520
     33          6           0       -8.619282   -1.986715   -0.708557
     34          6           0       -8.290922   -3.378117   -0.730978
     35          6           0       -6.983337   -3.449634   -0.191646
     36          6           0       -6.575721   -2.119446    0.161738
     37          6           0       -9.211997   -4.454497   -1.223097
     38          6           0       -5.823678   -4.346056   -0.012254
     39          8           0       -5.808922   -5.527105   -0.130021
     40          6           0       -4.643837   -3.416128    0.407729
     41          6           0       -4.000373   -4.001235    1.650144
     42          8           0       -4.336124   -3.749391    2.801835
     43          8           0       -3.037371   -4.911563    1.454827
     44          6           0       -2.552223   -5.627311    2.658502
     45          6           0        2.624938   -0.897795   -1.229801
     46          6           0        3.892295   -0.531301   -0.703196
     47          6           0        4.931426    0.272402   -1.137308
     48          6           0        4.719965    0.979769   -2.394673
     49          6           0        6.201920    0.472399   -0.273566
     50          6           0        7.439903   -0.137055   -0.931694
     51          6           0        8.810401    0.124544   -0.274423
     52          6           0       10.038692   -0.643662   -0.782826
     53          6           0        9.953701   -2.211955   -0.946478
     54          6           0       11.363189   -0.177479    0.002499
     55          6           0       12.646267   -0.658539   -0.595820
     56          6           0       13.744670    0.126659    0.219775
     57          6           0       15.196992   -0.147862   -0.328142
     58          6           0       15.526243   -1.655794   -0.615382
     59          6           0       16.179800    0.630123    0.433322
     60          6           0       17.664752    0.571925   -0.104336
     61          6           0       18.673589    1.450091    0.665553
     62          6           0       20.096849    1.506191    0.131417
     63          6           0       20.135832    2.049471   -1.331191
     64          6           0       21.166955    2.216109    1.034483
     65          1           0       -3.994216    3.290343    1.873841
     66          1           0       -9.872038    4.301916   -0.317601
     67          1           0      -10.744728   -2.023305   -1.410679
     68          1           0       -2.870887   -1.710301    2.119401
     69          1           0       -2.270464    1.238725    1.436151
     70          1           0       -1.677520    0.604541    3.701645
     71          1           0       -3.243231    1.831697    3.825202
     72          1           0       -3.526173   -0.101835    4.075476
     73          1           0       -2.257807   -1.908873   -0.399219
     74          1           0       -2.300317   -0.077037   -0.637466
     75          1           0       -0.312182    0.175632    1.010892
     76          1           0       -0.559847   -1.594658    1.207594
     77          1           0       -4.102222    5.720557    1.292270
     78          1           0       -5.298530    6.815554    1.891850
     79          1           0       -4.908063    5.464491    2.770453
     80          1           0       -7.482415    7.085021    1.198569
     81          1           0       -9.167826    5.994555   -1.117233
     82          1           0       -9.031247    7.867244   -0.666185
     83          1           0      -12.502990    3.719082   -0.469936
     84          1           0      -11.705186    3.846609   -2.082620
     85          1           0      -13.118842    2.926683   -1.463069
     86          1           0      -12.461987   -1.136641   -1.365960
     87          1           0      -13.546709    0.222920   -1.415166
     88          1           0      -12.751335    0.711944   -3.871229
     89          1           0      -11.567831   -0.585357   -3.880001
     90          1           0      -13.253039   -1.174740   -3.429882
     91          1           0       -9.688042   -4.526892   -0.466435
     92          1           0       -9.807680   -4.297934   -2.107743
     93          1           0       -8.323049   -5.213921   -1.490626
     94          1           0       -3.982904   -3.420632   -0.438628
     95          1           0       -1.932578   -6.321259    2.152316
     96          1           0       -2.313870   -4.936693    3.535894
     97          1           0       -3.496936   -6.328275    3.079605
     98          1           0        2.789826   -1.867731   -1.583738
     99          1           0        2.421400   -0.209394   -2.164831
    100          1           0        3.934783   -1.220417    0.368055
    101          1           0        5.139551    2.163518   -2.603150
    102          1           0        5.356208    0.344090   -2.973509
    103          1           0        3.607158    0.814134   -2.666082
    104          1           0        6.308760    1.527629   -0.013842
    105          1           0        5.950082    0.247699    0.826775
    106          1           0        7.337436   -1.172888   -1.189516
    107          1           0        7.665732    0.318483   -2.095656
    108          1           0        9.008570    1.187890   -0.111711
    109          1           0        8.462875   -0.012078    0.927660
    110          1           0       10.359063   -0.512478   -1.799108
    111          1           0        9.132947   -2.580931   -1.639552
    112          1           0       11.027829   -2.500135   -1.278547
    113          1           0        9.928514   -2.609364    0.110230
    114          1           0       11.108397    0.884232    0.276163
    115          1           0       11.122570   -0.939489    0.914964
    116          1           0       12.808650   -1.726506   -0.635355
    117          1           0       12.571677   -0.141927   -1.546813
    118          1           0       13.702814    1.200298    0.372331
    119          1           0       13.783610   -0.243140    1.252789
    120          1           0       15.266953    0.307960   -1.468977
    121          1           0       14.841116   -2.065795   -1.223051
    122          1           0       16.514994   -1.762624   -0.894101
    123          1           0       15.659895   -2.185485    0.280211
    124          1           0       16.249697    1.932686    0.543580
    125          1           0       16.089557    0.124994    1.444009
    126          1           0       18.054277   -0.322103   -0.155835
    127          1           0       17.597011    0.788040   -1.168682
    128          1           0       18.285156    2.518023    0.660691
    129          1           0       18.790552    0.959870    1.730832
    130          1           0       20.400308    0.407850   -0.062688
    131          1           0       19.775604    3.159416   -1.230580
    132          1           0       21.212057    1.994612   -1.849719
    133          1           0       19.525152    1.445457   -2.015864
    134          1           0       21.310109    1.748121    2.035360
    135          1           0       22.137243    2.137269    0.510825
    136          1           0       20.820125    3.259991    1.330108
    137          1           0       -7.334656    1.712897    0.796864
    138          1           0       -7.404025   -0.322172   -0.407165
 ---------------------------------------------------------------------

 SCF Done:  E(RB3LYP) =  -2732.96245759     A.U. after   17 cycles

 Excitation energies and oscillator strengths:

 Excited State   1:      Singlet-A      2.1155 eV  586.09 nm  f=0.2378  <S**2>=0.000
     235 -> 237       -0.19659
     235 -> 238        0.24352
     236 -> 237        0.62117
     236 -> 238        0.13273
 This state for optimization and/or second-order correction.
 Total Energy, E(TD-HF/TD-DFT) =  -2732.88471573
 Copying the excited state density for this state as the 1-particle RhoCI density.

 The electronic state is 1-A.
 Alpha  occ. eigenvalues --  -19.18839 -19.17364 -19.12240 -19.11225 -19.10102
 Alpha  occ. eigenvalues --  -14.36831 -14.36693 -14.31813 -14.30479 -10.31094
 Alpha  occ. eigenvalues --  -10.30942 -10.27687 -10.25685 -10.25461 -10.24333
 Alpha  occ. eigenvalues --  -10.23560 -10.23247 -10.22812 -10.22746 -10.22406
 Alpha  occ. eigenvalues --  -10.21976 -10.21664 -10.21469 -10.21384 -10.21372
 Alpha  occ. eigenvalues --  -10.21359 -10.21349 -10.21308 -10.21088 -10.21010
 Alpha  occ. eigenvalues --  -10.20879 -10.20800 -10.20705 -10.20603 -10.20485
 Alpha  occ. eigenvalues --  -10.20473 -10.20460 -10.20212 -10.20192 -10.20090
 Alpha  occ. eigenvalues --  -10.19999 -10.19971 -10.19935 -10.19928 -10.19775
 Alpha  occ. eigenvalues --  -10.19736 -10.19686 -10.19633 -10.19496 -10.19469
 Alpha  occ. eigenvalues --  -10.19207 -10.19193 -10.19192 -10.19155 -10.19132
 Alpha  occ. eigenvalues --  -10.19102 -10.19004 -10.18788 -10.18747 -10.18619
 Alpha  occ. eigenvalues --  -10.18404 -10.18388 -10.16915 -10.16592  -1.11720
 Alpha  occ. eigenvalues --   -1.08561  -1.04254  -0.99743  -0.98410  -0.98020
 Alpha  occ. eigenvalues --   -0.96368  -0.95820  -0.91940  -0.85234  -0.83313
 Alpha  occ. eigenvalues --   -0.82054  -0.81871  -0.81732  -0.81607  -0.80887
 Alpha  occ. eigenvalues --   -0.80751  -0.79790  -0.79379  -0.78592  -0.78223
 Alpha  occ. eigenvalues --   -0.77670  -0.76716  -0.76096  -0.75332  -0.74362
 Alpha  occ. eigenvalues --   -0.73783  -0.73700  -0.73213  -0.72419  -0.71528
 Alpha  occ. eigenvalues --   -0.70257  -0.69808  -0.69004  -0.68790  -0.68154
 Alpha  occ. eigenvalues --   -0.68062  -0.66617  -0.66605  -0.65683  -0.64764
 Alpha  occ. eigenvalues --   -0.63978  -0.62709  -0.62544  -0.61239  -0.60876
 Alpha  occ. eigenvalues --   -0.60803  -0.59671  -0.58469  -0.58358  -0.57783
 Alpha  occ. eigenvalues --   -0.57274  -0.56852  -0.56022  -0.55315  -0.55203
 Alpha  occ. eigenvalues --   -0.54525  -0.54514  -0.53270  -0.53245  -0.53025
 Alpha  occ. eigenvalues --   -0.52497  -0.52200  -0.51687  -0.51313  -0.51052
 Alpha  occ. eigenvalues --   -0.50251  -0.49744  -0.49040  -0.48761  -0.48449
 Alpha  occ. eigenvalues --   -0.47844  -0.47720  -0.47588  -0.47209  -0.46790
 Alpha  occ. eigenvalues --   -0.46564  -0.46475  -0.46274  -0.46145  -0.46037
 Alpha  occ. eigenvalues --   -0.45797  -0.45616  -0.45048  -0.44925  -0.44776
 Alpha  occ. eigenvalues --   -0.44553  -0.44375  -0.44225  -0.43932  -0.43723
 Alpha  occ. eigenvalues --   -0.43586  -0.43442  -0.43344  -0.43201  -0.42802
 Alpha  occ. eigenvalues --   -0.42768  -0.42416  -0.42370  -0.42251  -0.42025
 Alpha  occ. eigenvalues --   -0.41671  -0.41376  -0.41081  -0.41034  -0.40897
 Alpha  occ. eigenvalues --   -0.40745  -0.40432  -0.40134  -0.39877  -0.39861
 Alpha  occ. eigenvalues --   -0.39698  -0.39214  -0.39027  -0.38832  -0.38818
 Alpha  occ. eigenvalues --   -0.38645  -0.38071  -0.37810  -0.37656  -0.37567
 Alpha  occ. eigenvalues --   -0.37081  -0.36986  -0.36767  -0.36579  -0.36363
 Alpha  occ. eigenvalues --   -0.36313  -0.36055  -0.36029  -0.35847  -0.35449
 Alpha  occ. eigenvalues --   -0.35358  -0.35175  -0.35098  -0.34896  -0.34487
 Alpha  occ. eigenvalues --   -0.34431  -0.34138  -0.33905  -0.33647  -0.33504
 Alpha  occ. eigenvalues --   -0.33293  -0.32976  -0.32927  -0.32529  -0.32018
 Alpha  occ. eigenvalues --   -0.31911  -0.31539  -0.31409  -0.31298  -0.31151
 Alpha  occ. eigenvalues --   -0.30628  -0.30213  -0.29632  -0.29388  -0.29369
 Alpha  occ. eigenvalues --   -0.29178  -0.28586  -0.28298  -0.27597  -0.27322
 Alpha  occ. eigenvalues --   -0.26874  -0.26392  -0.26134  -0.25850  -0.25628
 Alpha  occ. eigenvalues --   -0.24967  -0.24702  -0.24075  -0.23018  -0.20647
 Alpha  occ. eigenvalues --   -0.19018
 Alpha virt. eigenvalues --   -0.10644  -0.07324  -0.03790  -0.01004  -0.00659
 Alpha virt. eigenvalues --    0.00297   0.00610   0.00848   0.02227   0.03495
 Alpha virt. eigenvalues --    0.03616   0.03770   0.04028   0.04413   0.04658

 Mulliken charges:
               1
     1  C   -0.000233
     2  C    0.026507
     3  C   -0.107884
     4  C   -0.139629
     5  N   -0.091613
     6  C   -0.102379
     7  C   -0.146233
     8  C    0.012860
     9  C    0.013244
    10  C   -0.039785
    11  C   -0.023295
    12  C    0.151724
    13  C    0.132557
    14  O   -0.315322
    15  O   -0.242918
    16  N   -0.090790
    17  C    0.058197
    18  C   -0.054696
    19  C   -0.014920
    20  C    0.114883
    21  C    0.039314
    22  C   -0.045861
    23  C   -0.003816
    24  N   -0.283938
    25  C    0.095696
    26  C   -0.156759
    27  C   -0.046771
    28  C    0.092806
    29  C    0.118045
    30  C    0.055680
    31  C   -0.050596
    32  N    0.021741
    33  C    0.049252
    34  C   -0.175712
    35  C   -0.048176
    36  C    0.046045
    37  C    0.203755
    38  C    0.027901
    39  O   -0.136395
    40  C    0.065210
    41  C    0.195867
    42  O   -0.257041
    43  O   -0.309557
    44  C    0.146664
    45  C    0.297946
    46  C   -0.188988
    47  C   -0.145153
    48  C    0.027461
    49  C    0.122409
    50  C   -0.015723
    51  C    0.027755
    52  C   -0.036351
    53  C   -0.037710
    54  C   -0.072702
    55  C    0.104010
    56  C    0.041872
    57  C   -0.128382
    58  C    0.149630
    59  C   -0.033706
    60  C    0.071445
    61  C    0.026541
    62  C   -0.121770
    63  C   -0.039013
    64  C    0.041430
    65  H   -0.094452
    66  H   -0.035831
    67  H    0.028093
    68  H    0.045211
    69  H    0.007301
    70  H    0.013795
    71  H    0.037591
    72  H    0.062444
    73  H    0.042564
    74  H    0.013698
    75  H    0.033470
    76  H   -0.003412
    77  H    0.024421
    78  H    0.025596
    79  H    0.003332
    80  H    0.020136
    81  H    0.007016
    82  H    0.045038
    83  H   -0.002666
    84  H    0.031453
    85  H   -0.015389
    86  H   -0.004131
    87  H    0.018479
    88  H    0.033055
    89  H    0.011683
    90  H    0.027197
    91  H   -0.050847
    92  H    0.022464
    93  H    0.069540
    94  H    0.041400
    95  H    0.037663
    96  H    0.071991
    97  H    0.047291
    98  H    0.029318
    99  H    0.027292
   100  H    0.018145
   101  H    0.050069
   102  H    0.026487
   103  H    0.027329
   104  H   -0.008680
   105  H    0.006721
   106  H   -0.000245
   107  H    0.006522
   108  H   -0.010198
   109  H   -0.010145
   110  H   -0.026602
   111  H    0.043774
   112  H    0.012229
   113  H    0.007829
   114  H    0.022209
   115  H    0.000544
   116  H    0.032322
   117  H   -0.006231
   118  H   -0.004599
   119  H   -0.017957
   120  H   -0.012498
   121  H   -0.003320
   122  H   -0.028442
   123  H   -0.030486
   124  H    0.027708
   125  H   -0.004058
   126  H   -0.060761
   127  H   -0.015384
   128  H   -0.000951
   129  H    0.013019
   130  H   -0.007711
   131  H    0.017276
   132  H    0.019792
   133  H    0.018472
   134  H    0.005387
   135  H    0.018566
   136  H    0.014949
   137  H    0.163444
   138  H    0.149045
 Sum of Mulliken charges =  -0.00000

 Dipole moment (field-independent basis, Debye):
    X=              2.2259    Y=              4.6291    Z=              0.1401  Tot=              5.1384
 Quadrupole moment (field-independent basis, Debye-Ang):
   XX=           -331.3202   YY=           -384.7900   ZZ=           -399.4402
   XY=            -35.2748   XZ=              8.7365   YZ=              2.4595

 Normal termination of Gaussian 16 at Wed Aug 21 18:51:40 2019.
