 Gaussian 16, Revision A.03,
 Gaussian 16:  ES64L-G16RevA.03 25-Dec-2016

 --------------------------
 # td=(NStates=1) B3LYP/SVP
 --------------------------

 --
 TD
 --
 Symbolic Z-matrix:
 Charge =  0 Multiplicity = 1

                         Standard orientation:
 ---------------------------------------------------------------------
 Center     Atomic      Atomic             Coordinates (Angstroms)
 Number     Number       Type             X           Y           Z
 ---------------------------------------------------------------------
      1          6           0       -5.162725   -1.850835    0.280982
      2          6           0       -4.610105    2.765909    1.425612
      3          6           0       -9.188177    3.407611   -0.180953
      4          6           0       -9.841731   -1.269330   -0.930300
      5          7           0       -5.087399    0.481130    0.704237
      6          6           0       -4.418411   -0.688277    0.782873
      7          6           0       -3.111339   -0.657172    1.272522
      8          6           0       -2.990127    0.793109    1.817651
      9          6           0       -4.245063    1.423226    1.298264
     10          6           0       -2.912670    0.949701    3.328554
     11          6           0       -2.047426   -1.063676    0.242595
     12          6           0       -0.668143   -1.124079    0.671016
     13          6           0        0.325575   -1.399657   -0.461555
     14          8           0        0.025435   -1.803887   -1.518673
     15          8           0        1.659101   -1.081085   -0.145988
     16          7           0       -6.878083    2.731164    0.469318
     17          6           0       -5.805174    3.432912    0.988471
     18          6           0       -6.105998    4.799591    1.027564
     19          6           0       -7.333669    4.997688    0.551376
     20          6           0       -7.905292    3.676583    0.173195
     21          6           0       -5.148673    5.811308    1.409726
     22          6           0       -7.851483    6.255710    0.258432
     23          6           0       -8.751985    6.740742   -0.715702
     24          7           0       -9.127737    1.058550   -0.598850
     25          6           0       -9.882839    2.190279   -0.479342
     26          6           0      -11.207792    2.018706   -0.827176
     27          6           0      -11.394690    0.729900   -1.121255
     28          6           0      -10.062523    0.066636   -0.843432
     29          6           0      -12.235720    3.149273   -0.826179
     30          6           0      -12.548388   -0.043494   -1.591478
     31          6           0      -12.796923   -0.190231   -3.093194
     32          7           0       -7.461578   -1.174349   -0.402324
     33          6           0       -8.596082   -1.951395   -0.648463
     34          6           0       -8.238918   -3.387809   -0.753643
     35          6           0       -6.879572   -3.411576   -0.321322
     36          6           0       -6.386303   -1.974718   -0.037691
     37          6           0       -9.110695   -4.444743   -1.045668
     38          6           0       -5.703910   -4.215804   -0.219532
     39          8           0       -5.680458   -5.414068   -0.247541
     40          6           0       -4.564189   -3.291781    0.369520
     41          6           0       -4.108878   -3.781809    1.710230
     42          8           0       -4.314335   -3.385521    2.767054
     43          8           0       -3.272650   -4.905003    1.463113
     44          6           0       -2.840541   -5.591590    2.666935
     45          6           0        2.670423   -1.538373   -1.047808
     46          6           0        3.984223   -1.055120   -0.388560
     47          6           0        4.906236   -0.174129   -0.926182
     48          6           0        4.691749    0.809859   -2.055795
     49          6           0        6.141697    0.000518   -0.063967
     50          6           0        7.439078   -0.471081   -0.892035
     51          6           0        8.678763   -0.321434   -0.009760
     52          6           0        9.959626   -0.768735   -0.788384
     53          6           0        9.930851   -2.190489   -1.095374
     54          6           0       11.283794   -0.342028   -0.008979
     55          6           0       12.652821   -0.536483   -0.753369
     56          6           0       13.862523   -0.123926    0.213064
     57          6           0       15.238611   -0.148138   -0.493634
     58          6           0       15.775614   -1.621474   -0.451474
     59          6           0       16.158468    0.810233    0.231809
     60          6           0       17.586124    0.787510   -0.324300
     61          6           0       18.616414    1.608200    0.599652
     62          6           0       20.097885    1.826824    0.063878
     63          6           0       20.091149    2.660371   -1.265389
     64          6           0       20.955884    2.419447    1.144443
     65          1           0       -3.663744    3.488445    1.597635
     66          1           0       -9.753536    4.365210   -0.098439
     67          1           0      -10.597496   -1.959560   -1.261182
     68          1           0       -2.982895   -1.209200    2.129298
     69          1           0       -2.071376    1.183769    1.157375
     70          1           0       -2.086341    0.480221    3.895774
     71          1           0       -2.797769    2.081579    3.546363
     72          1           0       -3.818137    0.479376    3.712744
     73          1           0       -2.362256   -2.053790   -0.082102
     74          1           0       -2.065084   -0.234127   -0.549577
     75          1           0       -0.263776   -0.203075    1.368668
     76          1           0       -0.571686   -1.933382    1.276910
     77          1           0       -4.106938    5.782085    0.762693
     78          1           0       -5.554478    6.877597    1.049563
     79          1           0       -4.947898    5.615405    2.446340
     80          1           0       -7.748052    6.996506    1.075971
     81          1           0       -9.096173    6.179174   -1.625020
     82          1           0       -9.246138    7.799488   -0.600138
     83          1           0      -12.183391    3.534700    0.217751
     84          1           0      -11.751468    3.985408   -1.629190
     85          1           0      -13.329659    2.863056   -1.038082
     86          1           0      -12.750231   -1.027657   -0.864329
     87          1           0      -13.393663    0.366207   -1.183572
     88          1           0      -13.037396    0.798368   -3.767250
     89          1           0      -11.868367   -0.801388   -3.440741
     90          1           0      -13.666920   -0.764232   -3.298365
     91          1           0      -10.029455   -4.688883   -0.434846
     92          1           0       -9.492941   -4.364638   -2.032164
     93          1           0       -8.569290   -5.424558   -0.846805
     94          1           0       -3.779505   -3.738352   -0.360339
     95          1           0       -1.921530   -6.103278    2.181263
     96          1           0       -2.473434   -4.854980    3.397035
     97          1           0       -3.547288   -6.260466    2.992388
     98          1           0        2.639894   -2.791666   -1.263904
     99          1           0        2.510663   -0.984998   -2.081196
    100          1           0        4.102567   -1.536270    0.561533
    101          1           0        4.976080    1.926488   -1.762653
    102          1           0        5.263248    0.682068   -2.841162
    103          1           0        3.611464    0.706615   -2.511180
    104          1           0        6.391003    1.157169    0.251365
    105          1           0        6.099478   -0.542397    0.913726
    106          1           0        7.178678   -1.561801   -1.103265
    107          1           0        7.578468   -0.106072   -1.908056
    108          1           0        8.882611    0.775637    0.324738
    109          1           0        8.533262   -1.016137    0.834533
    110          1           0       10.063762   -0.254091   -1.761714
    111          1           0        9.217973   -2.293619   -1.860440
    112          1           0       10.933904   -2.588553   -1.616829
    113          1           0        9.608763   -2.705026   -0.117373
    114          1           0       11.303331    0.714208    0.382520
    115          1           0       11.281551   -0.835940    0.995536
    116          1           0       12.737415   -1.575409   -0.754563
    117          1           0       12.770629   -0.137865   -1.846470
    118          1           0       13.730234    0.915780    0.749897
    119          1           0       13.725578   -0.708236    1.125437
    120          1           0       14.977364    0.372326   -1.511486
    121          1           0       14.717138   -2.280916   -0.848109
    122          1           0       16.604284   -1.744830   -1.165904
    123          1           0       15.921305   -1.980844    0.458567
    124          1           0       15.917234    1.789667    0.416834
    125          1           0       16.294611    0.338802    1.265245
    126          1           0       17.894906   -0.180411   -0.222289
    127          1           0       17.688028    1.109474   -1.339266
    128          1           0       18.129480    2.374020    0.822147
    129          1           0       18.905373    1.125875    1.619923
    130          1           0       20.387205    0.813095   -0.220038
    131          1           0       19.614205    3.590944   -1.228002
    132          1           0       21.200529    2.899636   -1.500250
    133          1           0       19.581786    2.016044   -2.112412
    134          1           0       21.212241    1.717245    1.920196
    135          1           0       21.825999    2.602697    0.621371
    136          1           0       20.614720    3.357617    1.556147
    137          1           0       -7.215493    1.859088    0.401311
    138          1           0       -7.684456   -0.248157   -0.289296
 ---------------------------------------------------------------------

 SCF Done:  E(RB3LYP) =  -2733.05940364     A.U. after   16 cycles

 Excitation energies and oscillator strengths:

 Excited State   1:      Singlet-A      1.9783 eV  626.73 nm  f=0.2438  <S**2>=0.000
     235 -> 237       -0.13887
     235 -> 238        0.25677
     236 -> 237        0.62862
     236 -> 238        0.13990
 This state for optimization and/or second-order correction.
 Total Energy, E(TD-HF/TD-DFT) =  -2732.98670298
 Copying the excited state density for this state as the 1-particle RhoCI density.

 The electronic state is 1-A.
 Alpha  occ. eigenvalues --  -19.16813 -19.15518 -19.13493 -19.13248 -19.11394
 Alpha  occ. eigenvalues --  -14.36393 -14.35994 -14.32499 -14.29921 -10.31607
 Alpha  occ. eigenvalues --  -10.30999 -10.26879 -10.26364 -10.24381 -10.23683
 Alpha  occ. eigenvalues --  -10.23428 -10.23301 -10.23241 -10.23085 -10.22873
 Alpha  occ. eigenvalues --  -10.22262 -10.21525 -10.21303 -10.21218 -10.21133
 Alpha  occ. eigenvalues --  -10.21039 -10.20993 -10.20982 -10.20836 -10.20791
 Alpha  occ. eigenvalues --  -10.20781 -10.20420 -10.20349 -10.20004 -10.19971
 Alpha  occ. eigenvalues --  -10.19951 -10.19876 -10.19860 -10.19776 -10.19750
 Alpha  occ. eigenvalues --  -10.19705 -10.19589 -10.19525 -10.19426 -10.19413
 Alpha  occ. eigenvalues --  -10.19386 -10.19181 -10.19111 -10.19090 -10.19079
 Alpha  occ. eigenvalues --  -10.19000 -10.18684 -10.18490 -10.18455 -10.18382
 Alpha  occ. eigenvalues --  -10.18286 -10.18271 -10.18081 -10.18038 -10.17976
 Alpha  occ. eigenvalues --  -10.17048 -10.16498 -10.16490 -10.16435  -1.09895
 Alpha  occ. eigenvalues --   -1.09358  -1.03084  -1.01373  -1.00560  -0.97717
 Alpha  occ. eigenvalues --   -0.96898  -0.95060  -0.93438  -0.85122  -0.83910
 Alpha  occ. eigenvalues --   -0.83024  -0.81813  -0.81237  -0.81225  -0.80571
 Alpha  occ. eigenvalues --   -0.80260  -0.79536  -0.79226  -0.78942  -0.78202
 Alpha  occ. eigenvalues --   -0.76693  -0.75759  -0.75162  -0.74594  -0.74138
 Alpha  occ. eigenvalues --   -0.73510  -0.72767  -0.72215  -0.71660  -0.71245
 Alpha  occ. eigenvalues --   -0.71007  -0.68854  -0.68452  -0.67899  -0.67586
 Alpha  occ. eigenvalues --   -0.67143  -0.66788  -0.66125  -0.65958  -0.64748
 Alpha  occ. eigenvalues --   -0.64613  -0.63463  -0.62383  -0.62156  -0.61691
 Alpha  occ. eigenvalues --   -0.60821  -0.58901  -0.58646  -0.58176  -0.57005
 Alpha  occ. eigenvalues --   -0.56946  -0.56620  -0.56267  -0.55642  -0.55416
 Alpha  occ. eigenvalues --   -0.54565  -0.54193  -0.54067  -0.53467  -0.53253
 Alpha  occ. eigenvalues --   -0.52963  -0.52329  -0.52144  -0.51264  -0.50383
 Alpha  occ. eigenvalues --   -0.49797  -0.49492  -0.49313  -0.48339  -0.48187
 Alpha  occ. eigenvalues --   -0.47512  -0.47457  -0.47384  -0.47224  -0.46792
 Alpha  occ. eigenvalues --   -0.46716  -0.46548  -0.46126  -0.45877  -0.45471
 Alpha  occ. eigenvalues --   -0.45389  -0.45275  -0.44933  -0.44755  -0.44654
 Alpha  occ. eigenvalues --   -0.44620  -0.44419  -0.44215  -0.43948  -0.43798
 Alpha  occ. eigenvalues --   -0.43097  -0.42994  -0.42784  -0.42692  -0.42449
 Alpha  occ. eigenvalues --   -0.42217  -0.42169  -0.41813  -0.41527  -0.41471
 Alpha  occ. eigenvalues --   -0.41339  -0.41175  -0.41000  -0.40911  -0.40886
 Alpha  occ. eigenvalues --   -0.40396  -0.40158  -0.39791  -0.39679  -0.39421
 Alpha  occ. eigenvalues --   -0.39197  -0.39096  -0.38743  -0.38701  -0.38305
 Alpha  occ. eigenvalues --   -0.38167  -0.38084  -0.37977  -0.37930  -0.37533
 Alpha  occ. eigenvalues --   -0.37251  -0.37073  -0.36839  -0.36653  -0.36599
 Alpha  occ. eigenvalues --   -0.36492  -0.36255  -0.36062  -0.35677  -0.35449
 Alpha  occ. eigenvalues --   -0.35343  -0.35178  -0.35151  -0.35041  -0.34857
 Alpha  occ. eigenvalues --   -0.34785  -0.34298  -0.34231  -0.34038  -0.33955
 Alpha  occ. eigenvalues --   -0.33506  -0.33247  -0.33097  -0.32247  -0.32190
 Alpha  occ. eigenvalues --   -0.32004  -0.31965  -0.31627  -0.31459  -0.31125
 Alpha  occ. eigenvalues --   -0.31026  -0.30878  -0.30579  -0.29876  -0.29847
 Alpha  occ. eigenvalues --   -0.29656  -0.28998  -0.28865  -0.28610  -0.28077
 Alpha  occ. eigenvalues --   -0.27841  -0.27820  -0.27070  -0.26360  -0.25873
 Alpha  occ. eigenvalues --   -0.24162  -0.24120  -0.24108  -0.23062  -0.20492
 Alpha  occ. eigenvalues --   -0.18036
 Alpha virt. eigenvalues --   -0.10087  -0.08172  -0.04967  -0.02513  -0.01182
 Alpha virt. eigenvalues --   -0.00035   0.00267   0.00808   0.01584   0.03852
 Alpha virt. eigenvalues --    0.04186   0.04211   0.04666   0.04919   0.05242

 Mulliken charges:
               1
     1  C    0.021485
     2  C   -0.099801
     3  C   -0.073256
     4  C   -0.075893
     5  N   -0.176375
     6  C   -0.084990
     7  C    0.100038
     8  C   -0.057607
     9  C   -0.030790
    10  C    0.070979
    11  C    0.039255
    12  C    0.070483
    13  C    0.158850
    14  O   -0.172838
    15  O   -0.345135
    16  N   -0.016193
    17  C    0.110830
    18  C   -0.090395
    19  C    0.109163
    20  C    0.014474
    21  C    0.028659
    22  C   -0.118190
    23  C   -0.094345
    24  N   -0.271992
    25  C    0.082349
    26  C   -0.105721
    27  C   -0.081075
    28  C    0.109499
    29  C    0.039025
    30  C    0.047049
    31  C    0.003085
    32  N   -0.013157
    33  C   -0.000473
    34  C   -0.068152
    35  C   -0.006302
    36  C    0.147818
    37  C    0.053025
    38  C    0.015675
    39  O   -0.161798
    40  C   -0.135946
    41  C    0.204868
    42  O   -0.141440
    43  O   -0.379322
    44  C    0.195777
    45  C    0.168650
    46  C   -0.077733
    47  C   -0.081149
    48  C    0.100034
    49  C    0.019073
    50  C   -0.038894
    51  C    0.045975
    52  C   -0.063422
    53  C    0.031812
    54  C   -0.004871
    55  C    0.058506
    56  C   -0.044882
    57  C   -0.042156
    58  C    0.051599
    59  C    0.024354
    60  C    0.078999
    61  C    0.066328
    62  C   -0.107663
    63  C   -0.007838
    64  C    0.116129
    65  H    0.016946
    66  H   -0.016599
    67  H   -0.031897
    68  H   -0.044318
    69  H    0.013985
    70  H    0.016740
    71  H    0.029391
    72  H    0.029329
    73  H    0.017148
    74  H    0.020622
    75  H    0.051081
    76  H   -0.010794
    77  H    0.047905
    78  H    0.041088
    79  H    0.036887
    80  H    0.024448
    81  H    0.042844
    82  H    0.047009
    83  H    0.033181
    84  H    0.047358
    85  H    0.033567
    86  H    0.014688
    87  H   -0.047425
    88  H    0.038942
    89  H    0.026623
    90  H    0.003124
    91  H    0.036201
    92  H    0.022233
    93  H    0.043036
    94  H    0.084204
    95  H    0.036341
    96  H    0.029102
    97  H    0.023442
    98  H    0.051087
    99  H    0.027925
   100  H   -0.007757
   101  H    0.035990
   102  H   -0.025330
   103  H    0.026407
   104  H    0.012705
   105  H    0.007668
   106  H    0.007548
   107  H   -0.000228
   108  H    0.016636
   109  H   -0.003057
   110  H   -0.019000
   111  H   -0.006061
   112  H    0.024337
   113  H    0.012296
   114  H   -0.016103
   115  H   -0.020386
   116  H   -0.012194
   117  H    0.018603
   118  H   -0.009713
   119  H   -0.019279
   120  H    0.004570
   121  H    0.013226
   122  H    0.035372
   123  H   -0.016260
   124  H   -0.026218
   125  H   -0.016512
   126  H   -0.034489
   127  H   -0.015090
   128  H   -0.082945
   129  H   -0.011909
   130  H   -0.010827
   131  H   -0.003320
   132  H    0.009882
   133  H    0.028998
   134  H    0.002593
   135  H   -0.028867
   136  H    0.004328
   137  H    0.083996
   138  H    0.090904
 Sum of Mulliken charges =  -0.00000

 Dipole moment (field-independent basis, Debye):
    X=              0.7463    Y=              3.7470    Z=              1.6808  Tot=              4.1740
 Quadrupole moment (field-independent basis, Debye-Ang):
   XX=           -340.6772   YY=           -385.7378   ZZ=           -392.7900
   XY=            -17.9956   XZ=              3.9118   YZ=             -2.9264

 Normal termination of Gaussian 16 at Fri Aug  9 14:59:30 2019.
