 Gaussian 16, Revision A.03,
 Gaussian 16:  ES64L-G16RevA.03 25-Dec-2016

 --------------------------
 # td=(NStates=1) B3LYP/SVP
 --------------------------

 --
 TD
 --
 Symbolic Z-matrix:
 Charge =  0 Multiplicity = 1

                         Standard orientation:
 ---------------------------------------------------------------------
 Center     Atomic      Atomic             Coordinates (Angstroms)
 Number     Number       Type             X           Y           Z
 ---------------------------------------------------------------------
      1          6           0       -5.159389   -1.937855    0.567814
      2          6           0       -4.638148    2.795222    1.310368
      3          6           0       -9.416302    3.439935   -0.183022
      4          6           0       -9.895614   -1.383290   -0.861684
      5          7           0       -5.138223    0.531086    0.777939
      6          6           0       -4.601620   -0.684896    0.719695
      7          6           0       -3.064478   -0.553235    1.184662
      8          6           0       -3.057019    0.837370    1.815431
      9          6           0       -4.377250    1.445133    1.327833
     10          6           0       -3.051688    1.002476    3.418111
     11          6           0       -2.010961   -0.713742    0.055100
     12          6           0       -0.590486   -0.815331    0.508762
     13          6           0        0.347790   -1.275612   -0.617256
     14          8           0        0.094168   -1.722312   -1.656724
     15          8           0        1.707966   -0.937079   -0.327736
     16          7           0       -7.032165    2.800779    0.488677
     17          6           0       -5.842478    3.459943    0.973428
     18          6           0       -6.105614    4.894366    0.999345
     19          6           0       -7.470866    5.084266    0.456524
     20          6           0       -8.009874    3.690854    0.163602
     21          6           0       -5.123044    5.828769    1.404688
     22          6           0       -8.050016    6.316217    0.317038
     23          6           0       -9.035140    6.717760   -0.506311
     24          7           0       -9.228291    0.887856   -0.218042
     25          6           0       -9.876937    2.057665   -0.423051
     26          6           0      -11.285845    1.887043   -0.923644
     27          6           0      -11.451696    0.639459   -1.135913
     28          6           0      -10.192723   -0.123143   -0.731056
     29          6           0      -12.151386    3.026900   -1.345095
     30          6           0      -12.482069   -0.172281   -1.721546
     31          6           0      -12.436223   -0.431705   -3.256432
     32          7           0       -7.469232   -1.295210   -0.209536
     33          6           0       -8.547373   -1.984801   -0.649684
     34          6           0       -8.142401   -3.348096   -0.652739
     35          6           0       -6.780382   -3.392752   -0.260393
     36          6           0       -6.436466   -2.080335   -0.025412
     37          6           0       -9.051913   -4.499560   -0.948446
     38          6           0       -5.752213   -4.324388    0.071469
     39          8           0       -5.706897   -5.552837    0.058626
     40          6           0       -4.494032   -3.345893    0.607300
     41          6           0       -4.004564   -3.837290    1.935041
     42          8           0       -4.336051   -3.339105    3.012067
     43          8           0       -3.100191   -4.762021    1.653341
     44          6           0       -2.589054   -5.424794    2.859255
     45          6           0        2.664436   -1.183213   -1.286938
     46          6           0        4.000622   -0.961533   -0.645797
     47          6           0        4.890596   -0.152021   -1.077375
     48          6           0        4.871990    0.759770   -2.286000
     49          6           0        6.196325   -0.138949   -0.194644
     50          6           0        7.421173   -0.482515   -1.139227
     51          6           0        8.699979   -0.362514   -0.344765
     52          6           0       10.078407   -0.815084   -0.911182
     53          6           0       10.060398   -2.297861   -1.318089
     54          6           0       11.258500   -0.463626    0.043861
     55          6           0       12.646152   -0.687959   -0.678088
     56          6           0       13.824987   -0.143557    0.213217
     57          6           0       15.201504   -0.193886   -0.430449
     58          6           0       15.714363   -1.579159   -0.617239
     59          6           0       16.222849    0.649846    0.304811
     60          6           0       17.646464    0.954678   -0.141543
     61          6           0       18.464599    1.773426    0.714442
     62          6           0       19.979522    1.879097    0.283767
     63          6           0       20.188392    2.415936   -1.073832
     64          6           0       20.852938    2.549988    1.418260
     65          1           0       -3.867335    3.573274    1.751836
     66          1           0      -10.151092    4.304668   -0.344214
     67          1           0      -10.446500   -2.140379   -1.213790
     68          1           0       -2.887099   -1.165577    2.014059
     69          1           0       -2.041206    1.535124    1.561566
     70          1           0       -2.166931    0.747672    3.719612
     71          1           0       -3.310827    2.031226    3.686147
     72          1           0       -3.703619    0.339529    3.826827
     73          1           0       -2.229999   -1.610600   -0.637383
     74          1           0       -2.301748    0.006792   -0.619811
     75          1           0       -0.141351   -0.028205    1.151250
     76          1           0       -0.430327   -1.580366    1.245538
     77          1           0       -3.921693    5.768072    0.776532
     78          1           0       -5.534214    6.867766    1.359529
     79          1           0       -4.806254    5.581676    2.493859
     80          1           0       -7.645937    7.066047    0.778795
     81          1           0       -9.608200    5.926144   -1.161358
     82          1           0       -9.189428    7.777011   -0.446834
     83          1           0      -12.602473    3.718897   -0.498535
     84          1           0      -11.623924    3.764734   -2.041368
     85          1           0      -13.234070    2.938485   -1.760326
     86          1           0      -12.500641   -1.470503   -1.099115
     87          1           0      -13.462088    0.176167   -1.465827
     88          1           0      -12.300149    0.448888   -3.879321
     89          1           0      -11.669446   -1.206755   -3.575072
     90          1           0      -13.193651   -0.988781   -3.735156
     91          1           0      -10.074940   -4.536815   -0.523985
     92          1           0       -9.431739   -4.418838   -2.212758
     93          1           0       -8.606796   -5.323423   -0.639253
     94          1           0       -3.553588   -3.548748    0.017562
     95          1           0       -1.757960   -6.187920    2.334049
     96          1           0       -2.041938   -4.568195    3.444962
     97          1           0       -3.392522   -5.822776    3.435936
     98          1           0        2.661395   -2.318009   -1.698587
     99          1           0        2.432954   -0.388103   -2.218872
    100          1           0        4.296788   -1.561802    0.186830
    101          1           0        5.503723    1.634492   -2.161301
    102          1           0        5.127726   -0.044144   -3.070672
    103          1           0        3.772306    1.182580   -2.577101
    104          1           0        6.260967    0.949614    0.241165
    105          1           0        6.076431   -0.801627    0.806267
    106          1           0        7.453885   -1.567091   -1.679209
    107          1           0        7.397118    0.121223   -2.193425
    108          1           0        8.859641    0.551046    0.033984
    109          1           0        8.428110   -1.035317    0.544936
    110          1           0       10.330331   -0.207181   -1.802778
    111          1           0        9.353938   -2.406457   -1.952481
    112          1           0       11.078158   -2.651870   -1.620402
    113          1           0        9.617681   -3.032163   -0.484449
    114          1           0       11.111513    0.605335    0.292222
    115          1           0       11.214433   -1.057491    1.000027
    116          1           0       12.669572   -1.775387   -0.765688
    117          1           0       12.495710   -0.045421   -1.752637
    118          1           0       13.625646    0.899248    0.230514
    119          1           0       13.778752   -0.383007    1.152508
    120          1           0       15.007771    0.210236   -1.536110
    121          1           0       15.037641   -2.448016   -0.960357
    122          1           0       16.565326   -1.774639   -1.454243
    123          1           0       15.989312   -2.022329    0.378695
    124          1           0       15.660670    1.652520    0.571442
    125          1           0       16.358258    0.152528    1.368643
    126          1           0       18.117237   -0.059937   -0.212353
    127          1           0       17.618867    1.212357   -1.214442
    128          1           0       18.192281    2.919034    0.841628
    129          1           0       18.058806    1.535289    1.750671
    130          1           0       20.456550    0.809531    0.000791
    131          1           0       20.040720    3.440771   -1.248653
    132          1           0       21.346347    2.341167   -1.372180
    133          1           0       19.583207    1.794629   -2.075810
    134          1           0       20.833453    1.957242    2.421891
    135          1           0       22.119417    2.646105    1.090422
    136          1           0       20.556424    3.555054    1.717723
    137          1           0       -7.183416    1.805812    0.422524
    138          1           0       -7.612888   -0.226325   -0.256743
 ---------------------------------------------------------------------

 SCF Done:  E(RB3LYP) =  -2732.94926104     A.U. after   17 cycles

 Excitation energies and oscillator strengths:

 Excited State   1:      Singlet-A      1.9553 eV  634.11 nm  f=0.2837  <S**2>=0.000
     235 -> 237       -0.14158
     235 -> 238       -0.21216
     236 -> 237        0.65755
 This state for optimization and/or second-order correction.
 Total Energy, E(TD-HF/TD-DFT) =  -2732.87740674
 Copying the excited state density for this state as the 1-particle RhoCI density.

 The electronic state is 1-A.
 Alpha  occ. eigenvalues --  -19.18616 -19.15593 -19.13566 -19.12136 -19.11934
 Alpha  occ. eigenvalues --  -14.37726 -14.37127 -14.32181 -14.32109 -10.31548
 Alpha  occ. eigenvalues --  -10.31043 -10.27940 -10.26496 -10.25864 -10.25162
 Alpha  occ. eigenvalues --  -10.25034 -10.23607 -10.23078 -10.22914 -10.22855
 Alpha  occ. eigenvalues --  -10.22823 -10.22470 -10.22108 -10.21955 -10.21829
 Alpha  occ. eigenvalues --  -10.21802 -10.21653 -10.21500 -10.21115 -10.21061
 Alpha  occ. eigenvalues --  -10.21005 -10.20994 -10.20950 -10.20892 -10.20750
 Alpha  occ. eigenvalues --  -10.20747 -10.20670 -10.20642 -10.20398 -10.20242
 Alpha  occ. eigenvalues --  -10.19939 -10.19823 -10.19809 -10.19786 -10.19565
 Alpha  occ. eigenvalues --  -10.19527 -10.19400 -10.19284 -10.19257 -10.19211
 Alpha  occ. eigenvalues --  -10.19182 -10.18958 -10.18818 -10.18772 -10.18752
 Alpha  occ. eigenvalues --  -10.18597 -10.18328 -10.18192 -10.17835 -10.17389
 Alpha  occ. eigenvalues --  -10.17081 -10.16998 -10.16824 -10.16288  -1.09835
 Alpha  occ. eigenvalues --   -1.09711  -1.01648  -1.01479  -1.00071  -0.99825
 Alpha  occ. eigenvalues --   -0.96999  -0.95407  -0.92616  -0.84399  -0.83132
 Alpha  occ. eigenvalues --   -0.82267  -0.81900  -0.81443  -0.81160  -0.80719
 Alpha  occ. eigenvalues --   -0.80636  -0.80057  -0.79758  -0.79525  -0.77619
 Alpha  occ. eigenvalues --   -0.76794  -0.76059  -0.75763  -0.74712  -0.74533
 Alpha  occ. eigenvalues --   -0.73945  -0.72862  -0.72380  -0.71514  -0.70773
 Alpha  occ. eigenvalues --   -0.70069  -0.69496  -0.68596  -0.68159  -0.67699
 Alpha  occ. eigenvalues --   -0.67329  -0.66491  -0.66287  -0.65990  -0.65228
 Alpha  occ. eigenvalues --   -0.64445  -0.63658  -0.63159  -0.62896  -0.62241
 Alpha  occ. eigenvalues --   -0.60711  -0.58587  -0.58468  -0.58050  -0.56999
 Alpha  occ. eigenvalues --   -0.56446  -0.55960  -0.55424  -0.55261  -0.55153
 Alpha  occ. eigenvalues --   -0.55012  -0.54364  -0.54241  -0.54024  -0.53617
 Alpha  occ. eigenvalues --   -0.52691  -0.51911  -0.51555  -0.50902  -0.50364
 Alpha  occ. eigenvalues --   -0.49460  -0.49291  -0.48915  -0.48528  -0.48180
 Alpha  occ. eigenvalues --   -0.48104  -0.47817  -0.47302  -0.46994  -0.46923
 Alpha  occ. eigenvalues --   -0.46680  -0.46483  -0.46450  -0.45944  -0.45821
 Alpha  occ. eigenvalues --   -0.45750  -0.45326  -0.45180  -0.44723  -0.44330
 Alpha  occ. eigenvalues --   -0.44289  -0.44032  -0.43940  -0.43725  -0.43624
 Alpha  occ. eigenvalues --   -0.43458  -0.43173  -0.43029  -0.42641  -0.42339
 Alpha  occ. eigenvalues --   -0.42219  -0.42067  -0.41874  -0.41684  -0.41467
 Alpha  occ. eigenvalues --   -0.41301  -0.41138  -0.41038  -0.41019  -0.40730
 Alpha  occ. eigenvalues --   -0.40152  -0.40134  -0.40120  -0.39699  -0.39553
 Alpha  occ. eigenvalues --   -0.39329  -0.38939  -0.38799  -0.38741  -0.38583
 Alpha  occ. eigenvalues --   -0.38312  -0.37999  -0.37925  -0.37799  -0.37272
 Alpha  occ. eigenvalues --   -0.37165  -0.36927  -0.36764  -0.36659  -0.36490
 Alpha  occ. eigenvalues --   -0.36344  -0.36093  -0.36068  -0.36004  -0.35769
 Alpha  occ. eigenvalues --   -0.35690  -0.35323  -0.35305  -0.34956  -0.34896
 Alpha  occ. eigenvalues --   -0.34000  -0.33864  -0.33669  -0.33479  -0.33298
 Alpha  occ. eigenvalues --   -0.33091  -0.32939  -0.32765  -0.32714  -0.32299
 Alpha  occ. eigenvalues --   -0.32273  -0.31954  -0.31666  -0.31210  -0.31149
 Alpha  occ. eigenvalues --   -0.31032  -0.30729  -0.30381  -0.30174  -0.30081
 Alpha  occ. eigenvalues --   -0.29716  -0.28558  -0.28400  -0.28343  -0.28151
 Alpha  occ. eigenvalues --   -0.27937  -0.27546  -0.26785  -0.25884  -0.25510
 Alpha  occ. eigenvalues --   -0.24994  -0.24611  -0.24531  -0.23225  -0.20430
 Alpha  occ. eigenvalues --   -0.19149
 Alpha virt. eigenvalues --   -0.11387  -0.07337  -0.04914  -0.02804  -0.00447
 Alpha virt. eigenvalues --    0.00328   0.00452   0.00963   0.02519   0.02591
 Alpha virt. eigenvalues --    0.03242   0.03489   0.03959   0.04105   0.04125

 Mulliken charges:
               1
     1  C    0.052034
     2  C   -0.052563
     3  C   -0.111579
     4  C    0.008290
     5  N   -0.112592
     6  C   -0.073216
     7  C    0.034207
     8  C   -0.214355
     9  C    0.015310
    10  C    0.188922
    11  C    0.108357
    12  C    0.101333
    13  C    0.145947
    14  O   -0.153941
    15  O   -0.345510
    16  N   -0.086132
    17  C    0.093427
    18  C   -0.066687
    19  C    0.083058
    20  C    0.113382
    21  C   -0.038785
    22  C   -0.049063
    23  C   -0.028662
    24  N   -0.309405
    25  C    0.068431
    26  C   -0.072545
    27  C    0.046686
    28  C    0.162126
    29  C   -0.018991
    30  C   -0.049579
    31  C    0.040824
    32  N    0.011077
    33  C   -0.059410
    34  C   -0.130554
    35  C    0.020166
    36  C    0.039907
    37  C    0.090965
    38  C    0.075074
    39  O   -0.183782
    40  C   -0.111999
    41  C    0.202680
    42  O   -0.251876
    43  O   -0.294664
    44  C    0.140803
    45  C    0.195754
    46  C   -0.045176
    47  C   -0.152303
    48  C    0.036140
    49  C    0.000037
    50  C   -0.066146
    51  C    0.096994
    52  C   -0.063190
    53  C    0.089225
    54  C   -0.009421
    55  C   -0.030351
    56  C    0.138562
    57  C   -0.020655
    58  C   -0.029798
    59  C   -0.062009
    60  C    0.098630
    61  C    0.017933
    62  C   -0.064914
    63  C   -0.046078
    64  C   -0.036822
    65  H    0.009801
    66  H    0.023381
    67  H   -0.086087
    68  H   -0.034533
    69  H    0.021779
    70  H   -0.038917
    71  H    0.007411
    72  H   -0.005700
    73  H    0.024068
    74  H   -0.025473
    75  H    0.021477
    76  H    0.006199
    77  H    0.059538
    78  H    0.031674
    79  H    0.051404
    80  H   -0.090240
    81  H    0.045551
    82  H    0.017246
    83  H    0.026272
    84  H    0.041126
    85  H    0.024176
    86  H    0.014044
    87  H    0.004367
    88  H    0.016584
    89  H    0.004416
    90  H   -0.006627
    91  H    0.021296
    92  H    0.035318
    93  H   -0.005963
    94  H    0.060991
    95  H    0.070355
    96  H    0.048553
    97  H    0.049496
    98  H    0.030950
    99  H    0.018686
   100  H   -0.033939
   101  H    0.028333
   102  H    0.056796
   103  H    0.039782
   104  H    0.023071
   105  H    0.029217
   106  H    0.013919
   107  H    0.014288
   108  H   -0.049978
   109  H   -0.007633
   110  H   -0.017907
   111  H   -0.054983
   112  H    0.018736
   113  H   -0.000724
   114  H   -0.010032
   115  H   -0.000520
   116  H    0.017558
   117  H    0.024248
   118  H   -0.029618
   119  H   -0.062270
   120  H   -0.004529
   121  H    0.003419
   122  H    0.026702
   123  H   -0.002422
   124  H   -0.004180
   125  H   -0.003378
   126  H   -0.008285
   127  H   -0.010901
   128  H   -0.008334
   129  H   -0.006434
   130  H    0.016336
   131  H   -0.007499
   132  H    0.018322
   133  H    0.036406
   134  H    0.030625
   135  H    0.024556
   136  H    0.016496
   137  H    0.138737
   138  H    0.179868
 Sum of Mulliken charges =  -0.00000

 Dipole moment (field-independent basis, Debye):
    X=             -0.0141    Y=              5.6616    Z=              0.5330  Tot=              5.6867
 Quadrupole moment (field-independent basis, Debye-Ang):
   XX=           -360.1408   YY=           -381.6670   ZZ=           -395.1072
   XY=            -33.0643   XZ=             21.1757   YZ=             -2.0969

 Normal termination of Gaussian 16 at Sun Aug 18 16:12:27 2019.
