 Gaussian 16, Revision A.03,
 Gaussian 16:  ES64L-G16RevA.03 25-Dec-2016

 --------------------------
 # td=(NStates=1) B3LYP/SVP
 --------------------------

 --
 TD
 --
 Symbolic Z-matrix:
 Charge =  0 Multiplicity = 1

                         Standard orientation:
 ---------------------------------------------------------------------
 Center     Atomic      Atomic             Coordinates (Angstroms)
 Number     Number       Type             X           Y           Z
 ---------------------------------------------------------------------
      1          6           0       -5.133198   -2.067922    0.529646
      2          6           0       -4.687484    2.723259    1.345048
      3          6           0       -9.244214    3.321750   -0.307232
      4          6           0       -9.796234   -1.496707   -0.812400
      5          7           0       -5.188234    0.353068    0.828167
      6          6           0       -4.475124   -0.779873    0.777565
      7          6           0       -3.015687   -0.644767    1.219057
      8          6           0       -3.028649    0.805776    1.772011
      9          6           0       -4.333320    1.314896    1.310741
     10          6           0       -3.035768    0.884568    3.293115
     11          6           0       -2.060954   -0.822227    0.005004
     12          6           0       -0.565224   -0.660364    0.479356
     13          6           0        0.342332   -1.051055   -0.653666
     14          8           0        0.138368   -1.247916   -1.819610
     15          8           0        1.546044   -0.739658   -0.239776
     16          7           0       -6.997876    2.788023    0.497272
     17          6           0       -5.832499    3.363046    0.944228
     18          6           0       -6.075423    4.772210    1.072339
     19          6           0       -7.445258    4.957932    0.542565
     20          6           0       -7.975012    3.681691    0.215475
     21          6           0       -5.276905    5.725660    1.658644
     22          6           0       -8.152805    6.240148    0.565527
     23          6           0       -9.150584    6.584475   -0.397740
     24          7           0       -9.216383    0.927502   -0.505265
     25          6           0       -9.853281    2.120856   -0.546264
     26          6           0      -11.263557    1.879095   -0.933658
     27          6           0      -11.368215    0.517952   -1.074789
     28          6           0      -10.065301   -0.059054   -0.923554
     29          6           0      -12.232526    3.026785   -1.110465
     30          6           0      -12.629715   -0.238724   -1.696873
     31          6           0      -12.534080   -0.367643   -3.275547
     32          7           0       -7.482701   -1.270208   -0.242125
     33          6           0       -8.597935   -2.000806   -0.559658
     34          6           0       -8.205719   -3.420958   -0.622192
     35          6           0       -6.859138   -3.407040   -0.195672
     36          6           0       -6.483914   -2.134793    0.066962
     37          6           0       -9.135428   -4.528973   -0.887938
     38          6           0       -5.757538   -4.362998    0.062701
     39          8           0       -5.647766   -5.561591   -0.015255
     40          6           0       -4.534559   -3.499637    0.518331
     41          6           0       -3.860732   -3.894516    1.788967
     42          8           0       -4.082070   -3.405921    2.857741
     43          8           0       -3.066405   -4.831004    1.549781
     44          6           0       -2.441759   -5.485623    2.631445
     45          6           0        2.596496   -0.782816   -1.299487
     46          6           0        3.924416   -0.540488   -0.511896
     47          6           0        4.998001    0.113757   -1.076883
     48          6           0        5.013391    0.793409   -2.414624
     49          6           0        6.224482    0.399765   -0.290521
     50          6           0        7.452772   -0.383128   -0.894665
     51          6           0        8.762950   -0.020089   -0.222481
     52          6           0        9.966932   -0.740053   -0.864736
     53          6           0        9.831079   -2.251550   -0.884136
     54          6           0       11.294285   -0.385439   -0.193529
     55          6           0       12.627307   -0.547345   -0.772623
     56          6           0       13.751065   -0.130815    0.088579
     57          6           0       15.260652   -0.139942   -0.459951
     58          6           0       15.691419   -1.562816   -0.664170
     59          6           0       16.134439    0.693090    0.348181
     60          6           0       17.618477    0.712444   -0.143776
     61          6           0       18.552476    1.493172    0.798727
     62          6           0       20.031230    1.551616    0.248591
     63          6           0       20.230559    2.384581   -1.030867
     64          6           0       20.872486    2.129897    1.395023
     65          1           0       -3.782150    3.344016    1.563429
     66          1           0       -9.921309    4.110347   -0.171737
     67          1           0      -10.687431   -2.243485   -1.119365
     68          1           0       -2.845018   -1.385074    1.913831
     69          1           0       -2.213529    1.572164    1.352206
     70          1           0       -2.071265    0.532114    3.624257
     71          1           0       -2.947797    2.017949    3.416059
     72          1           0       -3.914293    0.407657    3.831397
     73          1           0       -2.231860   -1.733882   -0.596265
     74          1           0       -2.193499    0.105450   -0.787656
     75          1           0       -0.254644    0.231110    0.936755
     76          1           0       -0.296457   -1.673746    1.203072
     77          1           0       -4.218811    5.704232    1.216670
     78          1           0       -5.705975    6.650556    1.195078
     79          1           0       -5.234984    5.647180    2.780265
     80          1           0       -7.570726    7.000285    1.137579
     81          1           0       -9.381194    5.873224   -1.341814
     82          1           0       -9.773730    7.600313   -0.313085
     83          1           0      -12.301886    3.517376   -0.219324
     84          1           0      -11.936478    3.710967   -1.813452
     85          1           0      -13.325170    2.850924   -1.330045
     86          1           0      -12.851116   -1.296822   -1.346193
     87          1           0      -13.514461    0.169178   -1.327501
     88          1           0      -12.382346    0.519816   -3.775843
     89          1           0      -11.806618   -0.871837   -3.650906
     90          1           0      -13.258238   -1.027862   -3.501697
     91          1           0       -9.919787   -4.720182   -0.107903
     92          1           0       -9.881093   -4.181195   -1.783843
     93          1           0       -8.597966   -5.464415   -1.131493
     94          1           0       -3.742157   -3.688776   -0.320747
     95          1           0       -1.696291   -6.254692    1.934839
     96          1           0       -1.951354   -4.709181    3.322812
     97          1           0       -3.290068   -6.068968    3.466802
     98          1           0        2.600265   -1.716181   -1.612014
     99          1           0        2.420773    0.001389   -2.125192
    100          1           0        4.002161   -1.137251    0.288447
    101          1           0        5.539928    1.787489   -2.606634
    102          1           0        5.553846    0.295411   -3.152865
    103          1           0        3.932108    1.227903   -2.718370
    104          1           0        6.392997    1.491344   -0.138758
    105          1           0        6.133529    0.196847    0.931180
    106          1           0        7.221370   -1.477601   -0.791613
    107          1           0        7.569080   -0.019419   -2.065311
    108          1           0        9.082504    1.124945   -0.269296
    109          1           0        8.787508   -0.512355    0.868339
    110          1           0       10.064713   -0.345672   -2.010124
    111          1           0        8.915347   -2.630263   -1.331060
    112          1           0       10.698033   -2.854043   -1.196960
    113          1           0        9.717464   -2.748079    0.181810
    114          1           0       11.239758    0.642996   -0.081325
    115          1           0       11.412710   -0.592739    0.728955
    116          1           0       12.694180   -1.631246   -0.948379
    117          1           0       12.512569   -0.154311   -1.899411
    118          1           0       13.603587    0.978949    0.190531
    119          1           0       13.584445   -0.742069    1.018338
    120          1           0       15.047515    0.340559   -1.490198
    121          1           0       15.082195   -2.099285   -1.403223
    122          1           0       16.625693   -1.778388   -1.320479
    123          1           0       15.832096   -2.091619    0.341330
    124          1           0       15.689226    1.661584    0.572798
    125          1           0       16.135316    0.157616    1.364103
    126          1           0       18.112189   -0.199185   -0.247795
    127          1           0       17.720356    0.936306   -1.164396
    128          1           0       18.158556    2.504665    0.815500
    129          1           0       18.570038    0.953593    1.860306
    130          1           0       20.518443    0.401315   -0.037586
    131          1           0       19.983600    3.358012   -1.082045
    132          1           0       21.252928    2.115253   -1.423382
    133          1           0       19.657573    1.990661   -1.969608
    134          1           0       20.526022    1.613108    2.295653
    135          1           0       21.924586    2.244548    1.139709
    136          1           0       20.460933    3.027228    1.495552
    137          1           0       -7.051296    1.730617    0.306493
    138          1           0       -7.551189   -0.299363   -0.013603
 ---------------------------------------------------------------------

 SCF Done:  E(RB3LYP) =  -2733.03961329     A.U. after   17 cycles

 Excitation energies and oscillator strengths:

 Excited State   1:      Singlet-A      1.9784 eV  626.68 nm  f=0.1327  <S**2>=0.000
     235 -> 237       -0.21048
     235 -> 238       -0.29752
     236 -> 237        0.57898
     236 -> 238       -0.16313
 This state for optimization and/or second-order correction.
 Total Energy, E(TD-HF/TD-DFT) =  -2732.96690764
 Copying the excited state density for this state as the 1-particle RhoCI density.

 The electronic state is 1-A.
 Alpha  occ. eigenvalues --  -19.19567 -19.16869 -19.12734 -19.11808 -19.11727
 Alpha  occ. eigenvalues --  -14.36565 -14.36406 -14.32662 -14.28939 -10.31078
 Alpha  occ. eigenvalues --  -10.30517 -10.28844 -10.28388 -10.24389 -10.23330
 Alpha  occ. eigenvalues --  -10.23185 -10.23070 -10.22973 -10.22769 -10.22690
 Alpha  occ. eigenvalues --  -10.21926 -10.21905 -10.21754 -10.21331 -10.21330
 Alpha  occ. eigenvalues --  -10.21323 -10.21152 -10.21040 -10.20934 -10.20925
 Alpha  occ. eigenvalues --  -10.20905 -10.20808 -10.20565 -10.20443 -10.20416
 Alpha  occ. eigenvalues --  -10.20391 -10.20372 -10.20244 -10.20092 -10.19972
 Alpha  occ. eigenvalues --  -10.19827 -10.19826 -10.19599 -10.19490 -10.19480
 Alpha  occ. eigenvalues --  -10.19181 -10.19144 -10.19132 -10.18958 -10.18951
 Alpha  occ. eigenvalues --  -10.18879 -10.18700 -10.18397 -10.18286 -10.18279
 Alpha  occ. eigenvalues --  -10.18270 -10.17932 -10.17886 -10.17877 -10.17366
 Alpha  occ. eigenvalues --  -10.16731 -10.16268 -10.15159 -10.15116  -1.14405
 Alpha  occ. eigenvalues --   -1.10228  -1.03605  -1.02016  -0.99906  -0.99142
 Alpha  occ. eigenvalues --   -0.97560  -0.94785  -0.92735  -0.85033  -0.83168
 Alpha  occ. eigenvalues --   -0.82270  -0.81717  -0.81349  -0.81030  -0.80862
 Alpha  occ. eigenvalues --   -0.80156  -0.79760  -0.79108  -0.78390  -0.77698
 Alpha  occ. eigenvalues --   -0.77531  -0.76791  -0.75903  -0.74542  -0.74364
 Alpha  occ. eigenvalues --   -0.74100  -0.73556  -0.72569  -0.71810  -0.70587
 Alpha  occ. eigenvalues --   -0.70140  -0.69254  -0.68933  -0.68418  -0.67976
 Alpha  occ. eigenvalues --   -0.67570  -0.67518  -0.67133  -0.65560  -0.65184
 Alpha  occ. eigenvalues --   -0.64199  -0.62931  -0.62349  -0.62120  -0.61292
 Alpha  occ. eigenvalues --   -0.60733  -0.59509  -0.58486  -0.57199  -0.57066
 Alpha  occ. eigenvalues --   -0.56888  -0.56180  -0.55744  -0.55554  -0.55520
 Alpha  occ. eigenvalues --   -0.54706  -0.54626  -0.53958  -0.53706  -0.53505
 Alpha  occ. eigenvalues --   -0.52371  -0.52059  -0.51695  -0.51233  -0.50610
 Alpha  occ. eigenvalues --   -0.50479  -0.49567  -0.49182  -0.48984  -0.48713
 Alpha  occ. eigenvalues --   -0.48083  -0.47860  -0.47536  -0.47328  -0.47103
 Alpha  occ. eigenvalues --   -0.46700  -0.46463  -0.46159  -0.45970  -0.45708
 Alpha  occ. eigenvalues --   -0.45484  -0.45446  -0.45325  -0.45157  -0.44897
 Alpha  occ. eigenvalues --   -0.44289  -0.44150  -0.43868  -0.43502  -0.43309
 Alpha  occ. eigenvalues --   -0.43197  -0.43119  -0.42952  -0.42645  -0.42630
 Alpha  occ. eigenvalues --   -0.42305  -0.42221  -0.42179  -0.42070  -0.41641
 Alpha  occ. eigenvalues --   -0.41524  -0.41066  -0.40697  -0.40514  -0.40414
 Alpha  occ. eigenvalues --   -0.40289  -0.40029  -0.39852  -0.39699  -0.39513
 Alpha  occ. eigenvalues --   -0.39450  -0.39250  -0.39130  -0.39047  -0.38731
 Alpha  occ. eigenvalues --   -0.38590  -0.38161  -0.38054  -0.37792  -0.37771
 Alpha  occ. eigenvalues --   -0.37595  -0.37402  -0.37247  -0.37081  -0.36961
 Alpha  occ. eigenvalues --   -0.36688  -0.36531  -0.36424  -0.36104  -0.35759
 Alpha  occ. eigenvalues --   -0.35647  -0.35476  -0.35139  -0.34734  -0.34540
 Alpha  occ. eigenvalues --   -0.34387  -0.34122  -0.33799  -0.33560  -0.33415
 Alpha  occ. eigenvalues --   -0.33309  -0.32998  -0.32957  -0.32760  -0.32491
 Alpha  occ. eigenvalues --   -0.32114  -0.31811  -0.31628  -0.31347  -0.31207
 Alpha  occ. eigenvalues --   -0.31156  -0.30973  -0.30766  -0.30537  -0.30197
 Alpha  occ. eigenvalues --   -0.29991  -0.29190  -0.28489  -0.28312  -0.28175
 Alpha  occ. eigenvalues --   -0.27885  -0.27377  -0.26398  -0.25722  -0.25414
 Alpha  occ. eigenvalues --   -0.25127  -0.24756  -0.22157  -0.21957  -0.19450
 Alpha  occ. eigenvalues --   -0.18422
 Alpha virt. eigenvalues --   -0.10041  -0.08005  -0.04668  -0.02847  -0.01167
 Alpha virt. eigenvalues --   -0.00534   0.00450   0.00711   0.02449   0.02689
 Alpha virt. eigenvalues --    0.03685   0.03795   0.04089   0.04184   0.04726

 Mulliken charges:
               1
     1  C   -0.030783
     2  C   -0.102725
     3  C   -0.022777
     4  C   -0.147160
     5  N   -0.170024
     6  C   -0.066251
     7  C    0.093016
     8  C   -0.116556
     9  C   -0.032091
    10  C    0.093736
    11  C    0.008859
    12  C   -0.009287
    13  C    0.164347
    14  O   -0.236699
    15  O   -0.324390
    16  N   -0.081610
    17  C    0.156121
    18  C   -0.135740
    19  C   -0.008099
    20  C    0.060632
    21  C    0.060512
    22  C   -0.032840
    23  C   -0.119479
    24  N   -0.250742
    25  C    0.008425
    26  C   -0.095311
    27  C   -0.124697
    28  C    0.040241
    29  C    0.175921
    30  C    0.051841
    31  C    0.169251
    32  N    0.000569
    33  C    0.127094
    34  C   -0.122057
    35  C   -0.031486
    36  C    0.109873
    37  C    0.039145
    38  C    0.079353
    39  O   -0.149092
    40  C   -0.083476
    41  C    0.147156
    42  O   -0.223222
    43  O   -0.189952
    44  C    0.050769
    45  C    0.316065
    46  C   -0.059056
    47  C   -0.061927
    48  C    0.021778
    49  C    0.021288
    50  C   -0.028283
    51  C   -0.014144
    52  C   -0.061258
    53  C    0.014938
    54  C    0.153297
    55  C    0.045163
    56  C   -0.007143
    57  C   -0.066265
    58  C    0.017089
    59  C    0.087728
    60  C    0.093252
    61  C    0.005529
    62  C   -0.194773
    63  C    0.040199
    64  C    0.175174
    65  H   -0.019311
    66  H   -0.030364
    67  H    0.024713
    68  H   -0.026911
    69  H    0.022187
    70  H    0.002752
    71  H    0.003374
    72  H    0.055976
    73  H    0.028347
    74  H    0.032529
    75  H    0.036132
    76  H    0.041334
    77  H    0.024939
    78  H    0.022166
    79  H    0.052006
    80  H    0.013832
    81  H    0.073846
    82  H    0.053167
    83  H   -0.009123
    84  H   -0.009032
    85  H    0.002843
    86  H   -0.015056
    87  H   -0.020870
    88  H   -0.006944
    89  H   -0.062511
    90  H   -0.030517
    91  H    0.044796
    92  H    0.032037
    93  H    0.048753
    94  H    0.071669
    95  H    0.080741
    96  H    0.059269
    97  H    0.070992
    98  H   -0.018091
    99  H    0.044536
   100  H   -0.044810
   101  H    0.007800
   102  H    0.020106
   103  H    0.035700
   104  H    0.012092
   105  H    0.002192
   106  H    0.028512
   107  H    0.019946
   108  H    0.026183
   109  H    0.015362
   110  H   -0.001719
   111  H    0.003883
   112  H    0.011741
   113  H   -0.009521
   114  H   -0.070744
   115  H   -0.101996
   116  H   -0.031090
   117  H   -0.013563
   118  H   -0.005074
   119  H    0.006046
   120  H   -0.011896
   121  H    0.001571
   122  H    0.004236
   123  H    0.017818
   124  H   -0.012826
   125  H   -0.016361
   126  H   -0.040174
   127  H   -0.039887
   128  H   -0.004438
   129  H    0.019820
   130  H    0.005363
   131  H   -0.012143
   132  H    0.011230
   133  H   -0.000872
   134  H   -0.007971
   135  H    0.006344
   136  H   -0.052806
   137  H    0.173036
   138  H    0.125735
 Sum of Mulliken charges =  -0.00000

 Dipole moment (field-independent basis, Debye):
    X=              3.8328    Y=              2.5237    Z=              0.5833  Tot=              4.6260
 Quadrupole moment (field-independent basis, Debye-Ang):
   XX=           -373.1352   YY=           -380.3144   ZZ=           -397.7722
   XY=             -6.5533   XZ=              2.2424   YZ=             -2.5913

 Normal termination of Gaussian 16 at Sat Aug 31 17:31:14 2019.
