 Gaussian 16, Revision A.03,
 Gaussian 16:  ES64L-G16RevA.03 25-Dec-2016

 --------------------------
 # td=(NStates=1) B3LYP/SVP
 --------------------------

 --
 TD
 --
 Symbolic Z-matrix:
 Charge =  0 Multiplicity = 1

                         Standard orientation:
 ---------------------------------------------------------------------
 Center     Atomic      Atomic             Coordinates (Angstroms)
 Number     Number       Type             X           Y           Z
 ---------------------------------------------------------------------
      1          6           0       -5.219646   -1.839150    0.628812
      2          6           0       -4.862924    2.862487    1.373678
      3          6           0       -9.529392    3.189890   -0.189305
      4          6           0       -9.824400   -1.661930   -1.053118
      5          7           0       -5.240578    0.509126    0.846524
      6          6           0       -4.553974   -0.620149    0.792504
      7          6           0       -3.138726   -0.473721    1.205742
      8          6           0       -3.167943    0.974781    1.734180
      9          6           0       -4.511531    1.510430    1.358847
     10          6           0       -2.995265    1.129331    3.291302
     11          6           0       -2.033044   -0.600319    0.196820
     12          6           0       -0.577904   -0.572065    0.670388
     13          6           0        0.467303   -0.891645   -0.476989
     14          8           0        0.199292   -1.321526   -1.536232
     15          8           0        1.611686   -0.536192   -0.031994
     16          7           0       -7.167455    2.692603    0.508281
     17          6           0       -6.110158    3.436906    0.966550
     18          6           0       -6.419012    4.805314    0.869883
     19          6           0       -7.786838    4.880789    0.516242
     20          6           0       -8.261984    3.559403    0.190697
     21          6           0       -5.469170    5.858347    1.458893
     22          6           0       -8.473582    6.220320    0.281064
     23          6           0       -9.525569    6.581760   -0.469260
     24          7           0       -9.218373    0.703194   -0.558642
     25          6           0       -9.996600    1.930083   -0.600843
     26          6           0      -11.328997    1.693697   -1.010150
     27          6           0      -11.466996    0.334948   -1.201483
     28          6           0      -10.180998   -0.302211   -0.866566
     29          6           0      -12.334274    2.699798   -1.238191
     30          6           0      -12.576976   -0.431586   -1.745291
     31          6           0      -12.436631   -0.947296   -3.319925
     32          7           0       -7.601276   -1.355289   -0.199730
     33          6           0       -8.560966   -2.196239   -0.620980
     34          6           0       -8.100984   -3.509444   -0.630930
     35          6           0       -6.757389   -3.413685   -0.200617
     36          6           0       -6.483153   -2.069762    0.117997
     37          6           0       -8.786861   -4.827048   -1.164144
     38          6           0       -5.565286   -4.291317    0.088144
     39          8           0       -5.540410   -5.493950    0.092130
     40          6           0       -4.541075   -3.229297    0.519503
     41          6           0       -3.742670   -3.698017    1.738483
     42          8           0       -4.001261   -3.279915    2.926440
     43          8           0       -3.029865   -4.729633    1.476700
     44          6           0       -2.249101   -5.408893    2.478330
     45          6           0        2.715543   -0.803789   -1.109811
     46          6           0        4.047717   -0.378679   -0.530636
     47          6           0        5.001557    0.327492   -1.039474
     48          6           0        5.053186    0.858309   -2.498183
     49          6           0        6.404746    0.577774   -0.342820
     50          6           0        7.612395   -0.132919   -0.924923
     51          6           0        8.801906   -0.024011   -0.004063
     52          6           0       10.087406   -0.740295   -0.558156
     53          6           0        9.951806   -2.356540   -0.587657
     54          6           0       11.238507   -0.184941    0.218936
     55          6           0       12.698707   -0.516957   -0.497459
     56          6           0       13.920116   -0.077244    0.284941
     57          6           0       15.137003   -0.256453   -0.301115
     58          6           0       15.571045   -1.717883   -0.402999
     59          6           0       16.324824    0.562645    0.474780
     60          6           0       17.753017    0.618733   -0.306500
     61          6           0       18.806909    1.437237    0.493085
     62          6           0       20.219761    1.483023   -0.127010
     63          6           0       20.207162    1.878156   -1.611883
     64          6           0       21.027750    2.395733    0.843737
     65          1           0       -4.181507    3.576331    1.685280
     66          1           0      -10.338171    3.918669   -0.424331
     67          1           0      -10.575844   -2.320691   -1.294051
     68          1           0       -2.697045   -1.079700    2.076739
     69          1           0       -2.391362    1.718134    1.281609
     70          1           0       -2.103273    0.724821    3.614352
     71          1           0       -3.090265    2.326059    3.691571
     72          1           0       -3.855513    0.582100    3.719786
     73          1           0       -2.094787   -1.539414   -0.327843
     74          1           0       -2.153566    0.072910   -0.636061
     75          1           0       -0.140571    0.542697    1.053533
     76          1           0       -0.193672   -1.097087    1.664736
     77          1           0       -4.387705    5.853861    1.260978
     78          1           0       -5.892999    6.857706    1.148967
     79          1           0       -5.521318    6.002706    2.723358
     80          1           0       -8.132211    7.078008    1.040187
     81          1           0       -9.838085    6.134578   -1.242992
     82          1           0      -10.065635    7.471461   -0.581498
     83          1           0      -12.573567    3.298922   -0.417835
     84          1           0      -11.902871    3.226242   -2.195062
     85          1           0      -13.324902    2.211532   -1.439160
     86          1           0      -12.730307   -1.562123   -1.234055
     87          1           0      -13.536222    0.253360   -1.869740
     88          1           0      -12.453883    0.083661   -3.937983
     89          1           0      -11.134358   -1.438074   -3.410528
     90          1           0      -13.073379   -1.735530   -3.776296
     91          1           0      -10.006421   -4.790806   -0.747385
     92          1           0       -8.799974   -5.105817   -2.343793
     93          1           0       -8.203976   -5.799933   -0.697668
     94          1           0       -3.644398   -3.174669   -0.240338
     95          1           0       -2.042908   -6.496701    2.131439
     96          1           0       -1.428188   -4.913991    2.940983
     97          1           0       -3.064490   -5.435779    3.401734
     98          1           0        2.626860   -1.800138   -1.256513
     99          1           0        2.579683   -0.133031   -1.985526
    100          1           0        4.286161   -0.823244    0.385049
    101          1           0        5.330347    1.944291   -2.459326
    102          1           0        5.623954    0.002654   -3.037746
    103          1           0        3.905525    1.108335   -2.693274
    104          1           0        6.571691    1.660922   -0.431964
    105          1           0        6.319694    0.148104    0.764769
    106          1           0        7.310836   -1.317271   -0.964139
    107          1           0        7.783186    0.274363   -1.978867
    108          1           0        8.966379    0.983084    0.151403
    109          1           0        8.345362   -0.465330    0.955677
    110          1           0       10.159578   -0.498503   -1.773493
    111          1           0        9.215253   -2.528482   -1.556305
    112          1           0       10.982438   -3.012256   -0.616783
    113          1           0        9.139113   -2.578308    0.426639
    114          1           0       11.333859    0.800941    0.235419
    115          1           0       11.218512   -0.651626    1.256757
    116          1           0       12.800173   -1.661681   -0.568450
    117          1           0       12.738107   -0.079886   -1.612821
    118          1           0       13.733082    1.053590    0.377013
    119          1           0       13.586691   -0.691521    1.368346
    120          1           0       15.205568    0.187618   -1.249941
    121          1           0       14.791668   -2.273013   -0.920624
    122          1           0       16.571279   -1.693749   -0.690584
    123          1           0       15.578911   -2.045940    0.729521
    124          1           0       16.307441    1.660212    0.720873
    125          1           0       16.588362   -0.117680    1.489611
    126          1           0       18.041988   -0.379369   -0.532642
    127          1           0       17.514011    1.231990   -1.378211
    128          1           0       18.489772    2.509475    0.666734
    129          1           0       18.844950    1.278894    1.589773
    130          1           0       20.794612    0.454879   -0.189715
    131          1           0       19.868765    2.807758   -1.983731
    132          1           0       21.354748    1.951156   -1.847899
    133          1           0       19.780479    1.159426   -2.268482
    134          1           0       21.189683    1.951319    1.886859
    135          1           0       22.230754    2.557994    0.381620
    136          1           0       20.557367    3.417394    0.878873
    137          1           0       -7.145271    1.638408    0.566606
    138          1           0       -7.740044   -0.236356   -0.022850
 ---------------------------------------------------------------------

 SCF Done:  E(RB3LYP) =  -2732.94523686     A.U. after   17 cycles

 Excitation energies and oscillator strengths:

 Excited State   1:      Singlet-A      2.0170 eV  614.70 nm  f=0.1464  <S**2>=0.000
     235 -> 237       -0.30776
     235 -> 238        0.28614
     236 -> 237        0.53516
     236 -> 238        0.18075
 This state for optimization and/or second-order correction.
 Total Energy, E(TD-HF/TD-DFT) =  -2732.87111419
 Copying the excited state density for this state as the 1-particle RhoCI density.

 The electronic state is 1-A.
 Alpha  occ. eigenvalues --  -19.19342 -19.18056 -19.12661 -19.11817 -19.10880
 Alpha  occ. eigenvalues --  -14.36802 -14.35946 -14.32041 -14.30457 -10.31641
 Alpha  occ. eigenvalues --  -10.30676 -10.28137 -10.26524 -10.25580 -10.24132
 Alpha  occ. eigenvalues --  -10.23373 -10.23021 -10.22929 -10.22926 -10.22914
 Alpha  occ. eigenvalues --  -10.22459 -10.22402 -10.22135 -10.22035 -10.21916
 Alpha  occ. eigenvalues --  -10.21906 -10.21765 -10.21726 -10.21593 -10.21563
 Alpha  occ. eigenvalues --  -10.21554 -10.21439 -10.21243 -10.21161 -10.20697
 Alpha  occ. eigenvalues --  -10.20654 -10.20589 -10.20406 -10.20394 -10.20385
 Alpha  occ. eigenvalues --  -10.20351 -10.20273 -10.20225 -10.20031 -10.20003
 Alpha  occ. eigenvalues --  -10.19959 -10.19922 -10.19796 -10.19417 -10.19345
 Alpha  occ. eigenvalues --  -10.19126 -10.19075 -10.19033 -10.19005 -10.18845
 Alpha  occ. eigenvalues --  -10.18626 -10.18623 -10.18487 -10.18462 -10.18457
 Alpha  occ. eigenvalues --  -10.18360 -10.18022 -10.17882 -10.17734  -1.11135
 Alpha  occ. eigenvalues --   -1.10992  -1.03425  -1.01676  -0.98396  -0.96923
 Alpha  occ. eigenvalues --   -0.96695  -0.95716  -0.90845  -0.84880  -0.83264
 Alpha  occ. eigenvalues --   -0.82993  -0.81231  -0.80972  -0.80733  -0.80442
 Alpha  occ. eigenvalues --   -0.79970  -0.79719  -0.78752  -0.78416  -0.77404
 Alpha  occ. eigenvalues --   -0.76811  -0.76040  -0.75502  -0.74722  -0.73957
 Alpha  occ. eigenvalues --   -0.73862  -0.73200  -0.71917  -0.71205  -0.69726
 Alpha  occ. eigenvalues --   -0.69314  -0.68738  -0.67840  -0.67711  -0.67542
 Alpha  occ. eigenvalues --   -0.67125  -0.66854  -0.65832  -0.65229  -0.65111
 Alpha  occ. eigenvalues --   -0.64368  -0.62967  -0.62247  -0.61578  -0.61461
 Alpha  occ. eigenvalues --   -0.60357  -0.58173  -0.57874  -0.57704  -0.57261
 Alpha  occ. eigenvalues --   -0.56538  -0.56280  -0.55570  -0.55411  -0.55115
 Alpha  occ. eigenvalues --   -0.54760  -0.54497  -0.54048  -0.53984  -0.52904
 Alpha  occ. eigenvalues --   -0.52717  -0.52052  -0.51377  -0.50757  -0.50396
 Alpha  occ. eigenvalues --   -0.49731  -0.49373  -0.49071  -0.48495  -0.48387
 Alpha  occ. eigenvalues --   -0.47702  -0.47626  -0.47341  -0.47288  -0.47155
 Alpha  occ. eigenvalues --   -0.46879  -0.46652  -0.46266  -0.46017  -0.45956
 Alpha  occ. eigenvalues --   -0.45530  -0.45379  -0.45313  -0.45000  -0.44468
 Alpha  occ. eigenvalues --   -0.44336  -0.43746  -0.43571  -0.43544  -0.43321
 Alpha  occ. eigenvalues --   -0.43261  -0.43223  -0.43007  -0.42976  -0.42680
 Alpha  occ. eigenvalues --   -0.42318  -0.42075  -0.42022  -0.41724  -0.41535
 Alpha  occ. eigenvalues --   -0.41236  -0.40973  -0.40749  -0.40530  -0.40344
 Alpha  occ. eigenvalues --   -0.40021  -0.39785  -0.39205  -0.39155  -0.38931
 Alpha  occ. eigenvalues --   -0.38831  -0.38721  -0.38524  -0.38477  -0.38288
 Alpha  occ. eigenvalues --   -0.37979  -0.37863  -0.37799  -0.37348  -0.37335
 Alpha  occ. eigenvalues --   -0.37030  -0.36752  -0.36442  -0.36337  -0.36219
 Alpha  occ. eigenvalues --   -0.35976  -0.35914  -0.35681  -0.35587  -0.35477
 Alpha  occ. eigenvalues --   -0.35249  -0.35032  -0.34659  -0.34577  -0.34424
 Alpha  occ. eigenvalues --   -0.34198  -0.34087  -0.34027  -0.33710  -0.33368
 Alpha  occ. eigenvalues --   -0.33290  -0.32940  -0.32879  -0.32591  -0.32074
 Alpha  occ. eigenvalues --   -0.31961  -0.31574  -0.31419  -0.31017  -0.30914
 Alpha  occ. eigenvalues --   -0.30846  -0.30795  -0.30379  -0.30280  -0.30133
 Alpha  occ. eigenvalues --   -0.29496  -0.29376  -0.28254  -0.28074  -0.27909
 Alpha  occ. eigenvalues --   -0.27345  -0.26717  -0.26423  -0.26309  -0.25974
 Alpha  occ. eigenvalues --   -0.25487  -0.24996  -0.24078  -0.22090  -0.19593
 Alpha  occ. eigenvalues --   -0.19158
 Alpha virt. eigenvalues --   -0.10615  -0.08049  -0.04414  -0.02036  -0.00700
 Alpha virt. eigenvalues --   -0.00170   0.00284   0.01570   0.02445   0.02651
 Alpha virt. eigenvalues --    0.03063   0.03484   0.03805   0.03990   0.04111

 Mulliken charges:
               1
     1  C    0.062927
     2  C   -0.006588
     3  C   -0.101589
     4  C   -0.001456
     5  N   -0.152617
     6  C   -0.044824
     7  C   -0.005649
     8  C   -0.091780
     9  C    0.023427
    10  C    0.039325
    11  C    0.133742
    12  C   -0.121165
    13  C    0.151208
    14  O   -0.214431
    15  O   -0.301212
    16  N   -0.115275
    17  C    0.073180
    18  C   -0.095832
    19  C    0.006845
    20  C    0.176581
    21  C    0.001624
    22  C   -0.028055
    23  C    0.026374
    24  N   -0.350240
    25  C    0.054150
    26  C   -0.136673
    27  C    0.009129
    28  C    0.068624
    29  C    0.113057
    30  C   -0.053604
    31  C   -0.122045
    32  N   -0.084038
    33  C    0.073089
    34  C   -0.089433
    35  C   -0.075881
    36  C    0.094186
    37  C   -0.074375
    38  C    0.144094
    39  O   -0.146404
    40  C   -0.120396
    41  C    0.185001
    42  O   -0.310179
    43  O   -0.231977
    44  C    0.124447
    45  C    0.353063
    46  C   -0.070277
    47  C   -0.183829
    48  C    0.025999
    49  C    0.054595
    50  C   -0.068667
    51  C    0.083336
    52  C   -0.110511
    53  C   -0.106707
    54  C    0.135847
    55  C   -0.095105
    56  C    0.028075
    57  C    0.006845
    58  C    0.069070
    59  C   -0.077374
    60  C   -0.004058
    61  C    0.022928
    62  C   -0.083839
    63  C    0.030245
    64  C   -0.053865
    65  H   -0.067243
    66  H   -0.016706
    67  H   -0.057495
    68  H    0.029991
    69  H    0.015966
    70  H    0.001627
    71  H    0.029178
    72  H    0.029862
    73  H   -0.003717
    74  H   -0.007664
    75  H    0.037403
    76  H    0.042050
    77  H    0.040320
    78  H    0.021751
    79  H    0.044504
    80  H    0.031900
    81  H   -0.044456
    82  H    0.000526
    83  H    0.016460
    84  H    0.050924
    85  H    0.001587
    86  H    0.041880
    87  H    0.027971
    88  H    0.034735
    89  H    0.026010
    90  H    0.047617
    91  H    0.046024
    92  H    0.068288
    93  H    0.073229
    94  H    0.077047
    95  H    0.070320
    96  H    0.040048
    97  H    0.055973
    98  H    0.003715
    99  H    0.032907
   100  H   -0.039908
   101  H    0.020774
   102  H    0.086509
   103  H    0.020470
   104  H    0.004401
   105  H    0.009909
   106  H    0.012892
   107  H    0.013245
   108  H   -0.028687
   109  H    0.006121
   110  H    0.014142
   111  H    0.046590
   112  H    0.069721
   113  H    0.028532
   114  H   -0.037840
   115  H    0.009080
   116  H   -0.002683
   117  H    0.004641
   118  H   -0.008683
   119  H    0.012528
   120  H   -0.031225
   121  H    0.021112
   122  H   -0.012706
   123  H    0.004420
   124  H    0.014803
   125  H    0.011301
   126  H    0.005570
   127  H    0.019930
   128  H   -0.017067
   129  H   -0.015887
   130  H    0.013412
   131  H   -0.007779
   132  H    0.003023
   133  H    0.010805
   134  H    0.037422
   135  H    0.014435
   136  H    0.024644
   137  H    0.161878
   138  H    0.216566
 Sum of Mulliken charges =  -0.00000

 Dipole moment (field-independent basis, Debye):
    X=              4.4107    Y=              4.0618    Z=             -0.7795  Tot=              6.0465
 Quadrupole moment (field-independent basis, Debye-Ang):
   XX=           -360.0685   YY=           -381.8038   ZZ=           -402.5865
   XY=            -25.3936   XZ=              9.4076   YZ=             -0.2292

 Normal termination of Gaussian 16 at Fri Aug 16 21:43:28 2019.
