 Gaussian 16, Revision A.03,
 Gaussian 16:  ES64L-G16RevA.03 25-Dec-2016

 --------------------------
 # td=(NStates=1) B3LYP/SVP
 --------------------------

 --
 TD
 --
 Symbolic Z-matrix:
 Charge =  0 Multiplicity = 1

                         Standard orientation:
 ---------------------------------------------------------------------
 Center     Atomic      Atomic             Coordinates (Angstroms)
 Number     Number       Type             X           Y           Z
 ---------------------------------------------------------------------
      1          6           0       -5.075237   -1.904577    0.369616
      2          6           0       -4.902164    2.839221    1.239611
      3          6           0       -9.627181    3.135535   -0.224012
      4          6           0       -9.856664   -1.691266   -0.782163
      5          7           0       -5.137436    0.504972    0.619325
      6          6           0       -4.411284   -0.683942    0.727416
      7          6           0       -2.956956   -0.353333    1.110047
      8          6           0       -3.121163    1.063263    1.636366
      9          6           0       -4.464485    1.523223    1.183316
     10          6           0       -2.810729    1.220471    3.149512
     11          6           0       -1.977984   -0.565856   -0.102057
     12          6           0       -0.512360   -0.546918    0.466873
     13          6           0        0.424887   -0.618319   -0.835152
     14          8           0        0.075553   -0.920695   -1.939782
     15          8           0        1.703489   -0.401765   -0.435756
     16          7           0       -7.183501    2.659758    0.438867
     17          6           0       -6.185037    3.315227    0.926069
     18          6           0       -6.573378    4.721274    1.090017
     19          6           0       -7.959721    4.756877    0.607543
     20          6           0       -8.342293    3.488809    0.275192
     21          6           0       -5.679347    5.816797    1.454670
     22          6           0       -8.520891    6.097626    0.256805
     23          6           0       -9.340031    6.467974   -0.765628
     24          7           0       -9.423960    0.577134   -0.309732
     25          6           0      -10.106134    1.786665   -0.435068
     26          6           0      -11.502996    1.545382   -0.824291
     27          6           0      -11.566900    0.106004   -0.983088
     28          6           0      -10.177039   -0.385364   -0.695926
     29          6           0      -12.560386    2.645061   -0.850756
     30          6           0      -12.899921   -0.608140   -1.432342
     31          6           0      -12.814082   -1.000977   -2.876682
     32          7           0       -7.480250   -1.358831   -0.134732
     33          6           0       -8.565543   -2.199660   -0.466315
     34          6           0       -8.118019   -3.582014   -0.304846
     35          6           0       -6.722244   -3.520547   -0.129039
     36          6           0       -6.342451   -2.116277    0.013623
     37          6           0       -8.864349   -4.897641   -0.693099
     38          6           0       -5.523290   -4.333097    0.161723
     39          8           0       -5.420407   -5.527921    0.263982
     40          6           0       -4.405533   -3.274793    0.381786
     41          6           0       -3.573572   -3.661733    1.678813
     42          8           0       -3.783376   -3.056569    2.738732
     43          8           0       -2.832267   -4.715842    1.448962
     44          6           0       -2.312623   -5.306234    2.660422
     45          6           0        2.636774   -0.556645   -1.566399
     46          6           0        3.989329   -0.341334   -0.868629
     47          6           0        4.962580    0.443436   -1.293429
     48          6           0        4.949017    1.434417   -2.496599
     49          6           0        6.286897    0.477632   -0.472977
     50          6           0        7.473985   -0.126331   -1.161043
     51          6           0        8.822343    0.087451   -0.295733
     52          6           0       10.133919   -0.577840   -0.807340
     53          6           0       10.101433   -2.048249   -1.076588
     54          6           0       11.369520   -0.256877    0.093886
     55          6           0       12.663169   -0.502057   -0.585819
     56          6           0       13.906782   -0.014998    0.135928
     57          6           0       15.283869   -0.198467   -0.430783
     58          6           0       15.557327   -1.535809   -0.662858
     59          6           0       16.296513    0.511941    0.481160
     60          6           0       17.822793    0.580525   -0.029039
     61          6           0       18.741034    1.467293    0.806412
     62          6           0       20.236440    1.179155    0.495289
     63          6           0       20.570423    1.425188   -1.022885
     64          6           0       21.101188    2.055457    1.453117
     65          1           0       -4.395369    3.786679    1.546900
     66          1           0      -10.294463    3.866652   -0.201421
     67          1           0      -10.782799   -2.297714   -0.679182
     68          1           0       -2.741823   -1.051167    1.865554
     69          1           0       -2.506725    1.683624    1.242876
     70          1           0       -1.868829    0.712942    3.093606
     71          1           0       -2.881813    2.233546    3.488967
     72          1           0       -3.421050    0.443981    3.649712
     73          1           0       -2.284934   -1.393749   -0.728838
     74          1           0       -2.132232    0.317270   -0.825422
     75          1           0       -0.135894    0.300334    0.969013
     76          1           0       -0.168385   -1.413541    0.960529
     77          1           0       -4.737944    5.723465    1.007573
     78          1           0       -6.251861    6.824683    1.471943
     79          1           0       -5.315603    5.649076    2.594173
     80          1           0       -8.053685    6.797558    0.957531
     81          1           0       -9.441320    5.784498   -1.603845
     82          1           0       -9.983817    7.347395   -0.871737
     83          1           0      -12.412630    3.193593    0.116419
     84          1           0      -12.312716    3.121367   -1.757703
     85          1           0      -13.707410    2.456604   -0.943944
     86          1           0      -13.172898   -1.565053   -0.908286
     87          1           0      -13.929329   -0.091416   -1.204981
     88          1           0      -12.864668   -0.015458   -3.412480
     89          1           0      -11.898343   -1.415886   -3.216367
     90          1           0      -13.764845   -1.620783   -3.228819
     91          1           0       -9.591015   -4.975253    0.219847
     92          1           0       -9.541342   -4.691467   -1.649748
     93          1           0       -8.035069   -5.651588   -0.469311
     94          1           0       -3.519869   -3.470152   -0.487891
     95          1           0       -1.870588   -6.360550    2.389132
     96          1           0       -1.367469   -4.809115    3.225976
     97          1           0       -2.986558   -5.442647    3.576132
     98          1           0        2.744451   -1.496976   -2.058015
     99          1           0        2.677778    0.214734   -2.249796
    100          1           0        4.016653   -0.898950    0.127077
    101          1           0        5.100929    2.495128   -1.934641
    102          1           0        5.799207    1.266557   -3.262905
    103          1           0        3.934939    1.293684   -3.003277
    104          1           0        6.624881    1.452528   -0.044574
    105          1           0        6.183776   -0.069139    0.574757
    106          1           0        7.352091   -1.127088   -1.732048
    107          1           0        7.801935    0.666751   -2.074688
    108          1           0        9.111248    1.177465   -0.191665
    109          1           0        8.581382   -0.357402    0.824919
    110          1           0       10.231628    0.062960   -1.787516
    111          1           0        9.169791   -2.344238   -1.806174
    112          1           0       10.968180   -2.497457   -1.301759
    113          1           0        9.948313   -2.420026   -0.087381
    114          1           0       11.325940    0.737694    0.590348
    115          1           0       11.344693   -0.946347    1.019311
    116          1           0       12.815979   -1.559219   -0.820507
    117          1           0       12.634514   -0.016201   -1.678520
    118          1           0       13.840397    1.024811    0.496859
    119          1           0       13.925369   -0.408217    1.157682
    120          1           0       15.130690    0.323778   -1.424124
    121          1           0       14.860801   -2.051435   -1.364360
    122          1           0       16.599290   -1.967625   -0.949360
    123          1           0       15.483754   -2.128482    0.322074
    124          1           0       15.949745    1.542579    0.598526
    125          1           0       16.390252    0.098277    1.398745
    126          1           0       18.214164   -0.443487    0.247704
    127          1           0       17.930255    0.776599   -0.990682
    128          1           0       18.521240    2.555996    0.623388
    129          1           0       18.583375    1.233983    1.813573
    130          1           0       20.250352    0.077687    0.721387
    131          1           0       20.119311    2.405896   -1.444891
    132          1           0       21.737954    1.584996   -0.939254
    133          1           0       20.043873    0.801782   -1.694529
    134          1           0       20.947901    1.849613    2.427012
    135          1           0       22.285415    2.142795    1.264828
    136          1           0       21.088998    3.175773    1.520067
    137          1           0       -7.225276    1.680704    0.289921
    138          1           0       -7.790179   -0.282747   -0.376383
 ---------------------------------------------------------------------

 SCF Done:  E(RB3LYP) =  -2733.07830647     A.U. after   16 cycles

 Excitation energies and oscillator strengths:

 Excited State   1:      Singlet-A      2.0063 eV  617.97 nm  f=0.1742  <S**2>=0.000
     235 -> 238        0.29816
     236 -> 237        0.63330
 This state for optimization and/or second-order correction.
 Total Energy, E(TD-HF/TD-DFT) =  -2733.00457577
 Copying the excited state density for this state as the 1-particle RhoCI density.

 The electronic state is 1-A.
 Alpha  occ. eigenvalues --  -19.21080 -19.18936 -19.13338 -19.13006 -19.12495
 Alpha  occ. eigenvalues --  -14.36746 -14.36403 -14.31767 -14.30140 -10.32784
 Alpha  occ. eigenvalues --  -10.31747 -10.28029 -10.27315 -10.24343 -10.23601
 Alpha  occ. eigenvalues --  -10.23544 -10.23326 -10.23210 -10.23182 -10.22706
 Alpha  occ. eigenvalues --  -10.22362 -10.22063 -10.21826 -10.21757 -10.21427
 Alpha  occ. eigenvalues --  -10.21197 -10.21022 -10.21021 -10.20895 -10.20775
 Alpha  occ. eigenvalues --  -10.20755 -10.20510 -10.20495 -10.20397 -10.20328
 Alpha  occ. eigenvalues --  -10.20129 -10.20061 -10.20058 -10.19956 -10.19945
 Alpha  occ. eigenvalues --  -10.19774 -10.19683 -10.19657 -10.19524 -10.19465
 Alpha  occ. eigenvalues --  -10.19329 -10.19311 -10.19309 -10.19108 -10.18969
 Alpha  occ. eigenvalues --  -10.18916 -10.18822 -10.18762 -10.18308 -10.18213
 Alpha  occ. eigenvalues --  -10.18138 -10.18072 -10.17963 -10.17890 -10.17626
 Alpha  occ. eigenvalues --  -10.17548 -10.17416 -10.17401 -10.17352  -1.11815
 Alpha  occ. eigenvalues --   -1.09805  -1.03472  -1.01644  -1.00794  -0.99030
 Alpha  occ. eigenvalues --   -0.96461  -0.94210  -0.93564  -0.84920  -0.83374
 Alpha  occ. eigenvalues --   -0.82121  -0.81971  -0.81116  -0.80825  -0.80659
 Alpha  occ. eigenvalues --   -0.80065  -0.79273  -0.78871  -0.78020  -0.77697
 Alpha  occ. eigenvalues --   -0.76711  -0.75683  -0.75456  -0.74840  -0.74326
 Alpha  occ. eigenvalues --   -0.73959  -0.73299  -0.72515  -0.71749  -0.71027
 Alpha  occ. eigenvalues --   -0.69812  -0.69048  -0.67897  -0.67755  -0.67682
 Alpha  occ. eigenvalues --   -0.67508  -0.67450  -0.66632  -0.65473  -0.65300
 Alpha  occ. eigenvalues --   -0.64517  -0.63350  -0.62475  -0.61575  -0.61262
 Alpha  occ. eigenvalues --   -0.60003  -0.59128  -0.58961  -0.58624  -0.57770
 Alpha  occ. eigenvalues --   -0.57478  -0.57169  -0.56856  -0.55970  -0.55926
 Alpha  occ. eigenvalues --   -0.55300  -0.54161  -0.53845  -0.53379  -0.53100
 Alpha  occ. eigenvalues --   -0.52158  -0.51501  -0.51073  -0.50621  -0.50243
 Alpha  occ. eigenvalues --   -0.49676  -0.49375  -0.48683  -0.48491  -0.48475
 Alpha  occ. eigenvalues --   -0.48139  -0.47720  -0.47641  -0.47315  -0.47158
 Alpha  occ. eigenvalues --   -0.47056  -0.46655  -0.46058  -0.46020  -0.45910
 Alpha  occ. eigenvalues --   -0.45858  -0.45593  -0.45002  -0.44712  -0.44641
 Alpha  occ. eigenvalues --   -0.44298  -0.44121  -0.44064  -0.44018  -0.43741
 Alpha  occ. eigenvalues --   -0.43514  -0.43235  -0.43045  -0.42812  -0.42750
 Alpha  occ. eigenvalues --   -0.42537  -0.41885  -0.41785  -0.41574  -0.41530
 Alpha  occ. eigenvalues --   -0.41315  -0.41115  -0.40768  -0.40599  -0.40345
 Alpha  occ. eigenvalues --   -0.40233  -0.40206  -0.40081  -0.39674  -0.39513
 Alpha  occ. eigenvalues --   -0.39284  -0.39128  -0.39008  -0.38548  -0.38509
 Alpha  occ. eigenvalues --   -0.38420  -0.38110  -0.37938  -0.37751  -0.37697
 Alpha  occ. eigenvalues --   -0.37663  -0.37361  -0.37288  -0.37203  -0.37054
 Alpha  occ. eigenvalues --   -0.36985  -0.36781  -0.36208  -0.36165  -0.35928
 Alpha  occ. eigenvalues --   -0.35766  -0.35449  -0.35403  -0.35378  -0.35000
 Alpha  occ. eigenvalues --   -0.34916  -0.34273  -0.34074  -0.34030  -0.33904
 Alpha  occ. eigenvalues --   -0.33537  -0.33374  -0.33137  -0.32967  -0.32279
 Alpha  occ. eigenvalues --   -0.32180  -0.32115  -0.31833  -0.31543  -0.31316
 Alpha  occ. eigenvalues --   -0.31093  -0.30955  -0.30527  -0.30019  -0.29995
 Alpha  occ. eigenvalues --   -0.29734  -0.29113  -0.28496  -0.28421  -0.28325
 Alpha  occ. eigenvalues --   -0.27205  -0.26654  -0.26431  -0.25846  -0.25680
 Alpha  occ. eigenvalues --   -0.25468  -0.25131  -0.22833  -0.22174  -0.19741
 Alpha  occ. eigenvalues --   -0.18756
 Alpha virt. eigenvalues --   -0.10373  -0.07785  -0.04797  -0.02520  -0.01156
 Alpha virt. eigenvalues --    0.00247   0.00716   0.01016   0.02034   0.03497
 Alpha virt. eigenvalues --    0.03928   0.04361   0.04609   0.04766   0.05080

 Mulliken charges:
               1
     1  C    0.063583
     2  C   -0.043993
     3  C   -0.011485
     4  C   -0.081211
     5  N   -0.200363
     6  C   -0.109058
     7  C    0.024954
     8  C    0.072933
     9  C    0.054077
    10  C    0.109375
    11  C    0.062640
    12  C    0.084445
    13  C    0.144724
    14  O   -0.219433
    15  O   -0.326547
    16  N    0.011378
    17  C   -0.023456
    18  C   -0.153852
    19  C    0.007946
    20  C    0.067028
    21  C    0.086887
    22  C   -0.013042
    23  C   -0.040331
    24  N   -0.222593
    25  C    0.061118
    26  C   -0.146192
    27  C   -0.092284
    28  C    0.028213
    29  C    0.081478
    30  C    0.025516
    31  C   -0.003548
    32  N   -0.135475
    33  C    0.072004
    34  C   -0.167425
    35  C   -0.036574
    36  C    0.119876
    37  C    0.048842
    38  C    0.099326
    39  O   -0.159308
    40  C   -0.143150
    41  C    0.203736
    42  O   -0.254988
    43  O   -0.229281
    44  C    0.095960
    45  C    0.365423
    46  C   -0.178356
    47  C   -0.091640
    48  C    0.009711
    49  C    0.052027
    50  C   -0.057482
    51  C   -0.039080
    52  C   -0.076082
    53  C    0.104280
    54  C    0.005275
    55  C    0.059789
    56  C    0.009830
    57  C    0.012316
    58  C    0.001012
    59  C    0.071307
    60  C    0.053573
    61  C    0.035342
    62  C   -0.083459
    63  C    0.009175
    64  C    0.033849
    65  H   -0.046680
    66  H   -0.079482
    67  H    0.011355
    68  H   -0.021547
    69  H   -0.087452
    70  H   -0.007521
    71  H    0.023416
    72  H    0.019004
    73  H    0.016826
    74  H    0.018562
    75  H    0.020863
    76  H    0.022702
    77  H    0.023504
    78  H    0.040979
    79  H    0.028169
    80  H   -0.001313
    81  H    0.025950
    82  H    0.033836
    83  H    0.048687
    84  H    0.020804
    85  H    0.026689
    86  H   -0.005270
    87  H    0.013747
    88  H    0.000209
    89  H    0.010565
    90  H    0.018999
    91  H    0.033607
    92  H    0.070550
    93  H    0.066074
    94  H    0.083599
    95  H    0.054456
    96  H    0.043358
    97  H    0.061904
    98  H    0.034563
    99  H   -0.026434
   100  H    0.012666
   101  H    0.052457
   102  H    0.053064
   103  H    0.025619
   104  H   -0.002228
   105  H    0.001889
   106  H    0.031550
   107  H    0.005471
   108  H    0.018891
   109  H   -0.001067
   110  H   -0.006012
   111  H    0.030015
   112  H   -0.025380
   113  H   -0.021442
   114  H   -0.009804
   115  H   -0.005332
   116  H   -0.004540
   117  H   -0.004721
   118  H   -0.033442
   119  H   -0.043131
   120  H   -0.016150
   121  H    0.011284
   122  H    0.011408
   123  H   -0.016698
   124  H   -0.012118
   125  H   -0.038762
   126  H   -0.007935
   127  H   -0.040245
   128  H   -0.003623
   129  H   -0.029601
   130  H    0.004708
   131  H    0.001851
   132  H    0.036634
   133  H    0.010121
   134  H   -0.024320
   135  H    0.003431
   136  H   -0.001291
   137  H    0.117070
   138  H    0.213177
 Sum of Mulliken charges =  -0.00000

 Dipole moment (field-independent basis, Debye):
    X=              2.9368    Y=              3.4063    Z=              0.9402  Tot=              4.5947
 Quadrupole moment (field-independent basis, Debye-Ang):
   XX=           -376.7966   YY=           -381.0075   ZZ=           -397.6800
   XY=            -20.4547   XZ=             11.7413   YZ=             -2.4892

 Normal termination of Gaussian 16 at Tue Aug 20 00:28:51 2019.
