 Gaussian 16, Revision A.03,
 Gaussian 16:  ES64L-G16RevA.03 25-Dec-2016

 --------------------------
 # td=(NStates=1) B3LYP/SVP
 --------------------------

 --
 TD
 --
 Symbolic Z-matrix:
 Charge =  0 Multiplicity = 1

                         Standard orientation:
 ---------------------------------------------------------------------
 Center     Atomic      Atomic             Coordinates (Angstroms)
 Number     Number       Type             X           Y           Z
 ---------------------------------------------------------------------
      1          6           0       -5.226859   -1.999216    0.429163
      2          6           0       -4.628131    2.716327    1.515409
      3          6           0       -9.103988    3.605055   -0.230343
      4          6           0       -9.840847   -1.222184   -0.873764
      5          7           0       -5.130300    0.331228    0.865501
      6          6           0       -4.565978   -0.871216    0.775846
      7          6           0       -3.075637   -0.729874    1.165173
      8          6           0       -3.002084    0.644582    1.838787
      9          6           0       -4.309070    1.292628    1.303982
     10          6           0       -2.824557    0.626676    3.259698
     11          6           0       -2.089942   -0.899192   -0.012227
     12          6           0       -0.668176   -0.989243    0.532173
     13          6           0        0.408327   -1.340309   -0.550720
     14          8           0        0.228826   -1.852265   -1.671766
     15          8           0        1.602044   -0.999734   -0.106991
     16          7           0       -6.858012    2.771445    0.381566
     17          6           0       -5.826055    3.357808    1.014411
     18          6           0       -6.003186    4.785299    1.259426
     19          6           0       -7.304423    5.046392    0.668401
     20          6           0       -7.901006    3.771399    0.290692
     21          6           0       -5.122999    5.707481    1.926035
     22          6           0       -7.837841    6.376184    0.510361
     23          6           0       -8.675269    6.845627   -0.448903
     24          7           0       -9.136324    1.123893   -0.495951
     25          6           0       -9.744759    2.396305   -0.613670
     26          6           0      -11.169630    2.164447   -1.073793
     27          6           0      -11.361149    0.732098   -1.274577
     28          6           0      -10.075969    0.216250   -0.973490
     29          6           0      -12.137008    3.232694   -1.109064
     30          6           0      -12.701133    0.159043   -1.798232
     31          6           0      -12.388937   -0.340713   -3.364198
     32          7           0       -7.463788   -1.237295   -0.309176
     33          6           0       -8.637213   -1.932143   -0.640408
     34          6           0       -8.316415   -3.303450   -0.682462
     35          6           0       -7.037139   -3.433722   -0.207376
     36          6           0       -6.596072   -2.143887    0.088350
     37          6           0       -9.211937   -4.427666   -1.130777
     38          6           0       -5.905388   -4.420276    0.057080
     39          8           0       -5.889962   -5.674218   -0.071985
     40          6           0       -4.723829   -3.458631    0.493803
     41          6           0       -4.018770   -3.897686    1.689668
     42          8           0       -4.182736   -3.634935    2.812042
     43          8           0       -3.131687   -4.833431    1.434835
     44          6           0       -2.563023   -5.530986    2.553467
     45          6           0        2.738571   -1.329045   -1.030418
     46          6           0        3.991880   -0.818740   -0.383333
     47          6           0        4.965962   -0.133101   -1.098359
     48          6           0        4.686483    0.378168   -2.500946
     49          6           0        6.205948    0.254468   -0.345959
     50          6           0        7.486704   -0.379229   -0.912811
     51          6           0        8.718610   -0.151952   -0.060955
     52          6           0       10.002370   -0.771385   -0.716685
     53          6           0        9.974764   -2.331305   -0.526974
     54          6           0       11.203733   -0.178901   -0.003057
     55          6           0       12.571586   -0.565025   -0.692753
     56          6           0       13.703700    0.121823    0.177869
     57          6           0       15.147416   -0.289580   -0.284716
     58          6           0       15.558534   -1.732958   -0.004511
     59          6           0       16.098496    0.863589    0.425648
     60          6           0       17.608412    0.741363   -0.167655
     61          6           0       18.521183    1.877309    0.389604
     62          6           0       19.959655    1.804831    0.051674
     63          6           0       20.153838    1.961143   -1.497199
     64          6           0       20.958303    2.798101    0.725610
     65          1           0       -3.835280    3.383774    1.897423
     66          1           0       -9.810754    4.471495   -0.465322
     67          1           0      -10.744786   -1.782243   -1.235372
     68          1           0       -2.857263   -1.368408    2.049272
     69          1           0       -2.130258    1.276423    1.359911
     70          1           0       -1.782432    0.592680    3.691726
     71          1           0       -3.133828    1.798660    3.808386
     72          1           0       -3.609817    0.000126    3.839526
     73          1           0       -2.352420   -1.736023   -0.634826
     74          1           0       -2.284827   -0.144349   -0.865261
     75          1           0       -0.261012   -0.074609    0.852740
     76          1           0       -0.530762   -1.769505    1.304250
     77          1           0       -4.383791    5.982915    1.050239
     78          1           0       -5.456005    6.765315    2.022914
     79          1           0       -4.764127    5.312588    2.931127
     80          1           0       -7.548416    7.270044    1.153192
     81          1           0       -9.159075    6.135081   -1.276601
     82          1           0       -8.891685    8.072146   -0.654385
     83          1           0      -12.354866    3.741572   -0.042893
     84          1           0      -11.864462    4.253255   -1.839469
     85          1           0      -13.154729    2.990868   -1.390063
     86          1           0      -12.846513   -0.715028   -1.155192
     87          1           0      -13.571358    0.914344   -1.652709
     88          1           0      -12.160705    0.399606   -4.082272
     89          1           0      -11.528265   -0.896173   -3.431798
     90          1           0      -13.337390   -0.856536   -3.647919
     91          1           0      -10.363651   -4.220929   -0.755346
     92          1           0       -9.522689   -4.309866   -2.153701
     93          1           0       -8.855679   -5.469286   -0.894851
     94          1           0       -3.932603   -3.735835   -0.280267
     95          1           0       -1.901447   -6.149877    2.051344
     96          1           0       -2.066367   -4.963358    3.309666
     97          1           0       -3.476332   -6.224531    3.063628
     98          1           0        2.711252   -2.539595   -1.095247
     99          1           0        2.565789   -0.826717   -1.970309
    100          1           0        4.120495   -1.289389    0.527933
    101          1           0        4.886024    1.531698   -2.658828
    102          1           0        5.457736   -0.264462   -3.171454
    103          1           0        3.634612    0.313773   -2.778151
    104          1           0        6.144718    1.423447   -0.504912
    105          1           0        6.215757    0.192816    0.792626
    106          1           0        7.201811   -1.551779   -1.046815
    107          1           0        7.689470    0.119628   -2.066680
    108          1           0        8.926117    0.965020    0.124971
    109          1           0        8.563863   -0.730402    0.977875
    110          1           0        9.920296   -0.585264   -1.645822
    111          1           0        9.058717   -2.745140   -0.958435
    112          1           0       10.765702   -2.969740   -0.878208
    113          1           0        9.878428   -2.810632    0.397574
    114          1           0       10.906057    1.079327   -0.102838
    115          1           0       11.239955   -0.533125    1.101153
    116          1           0       12.621194   -1.627697   -0.606455
    117          1           0       12.847661   -0.017123   -1.652104
    118          1           0       13.976113    1.266994    0.081410
    119          1           0       13.716605    0.130035    1.306609
    120          1           0       15.111928   -0.065398   -1.239571
    121          1           0       15.030696   -2.576320   -0.474162
    122          1           0       16.529673   -2.007402   -0.504612
    123          1           0       15.686640   -1.922477    1.125798
    124          1           0       15.429789    1.852187    0.124924
    125          1           0       16.138233    0.663457    1.538338
    126          1           0       18.126205   -0.260100    0.021891
    127          1           0       17.547199    0.838956   -1.296861
    128          1           0       18.117401    3.003793    0.217999
    129          1           0       18.405953    2.046275    1.646714
    130          1           0       20.241169    0.737786    0.259900
    131          1           0       19.624003    2.849967   -2.210385
    132          1           0       21.337603    1.792556   -1.590341
    133          1           0       19.942980    0.938191   -2.298308
    134          1           0       20.886611    2.729947    1.896983
    135          1           0       21.935877    2.510034    0.351140
    136          1           0       20.601178    3.766599    0.490606
    137          1           0       -7.209553    1.786601    0.239845
    138          1           0       -7.371626   -0.261747   -0.255523
 ---------------------------------------------------------------------

 SCF Done:  E(RB3LYP) =  -2733.01572354     A.U. after   16 cycles

 Excitation energies and oscillator strengths:

 Excited State   1:      Singlet-A      2.0661 eV  600.09 nm  f=0.0748  <S**2>=0.000
     235 -> 237       -0.27173
     235 -> 238       -0.32828
     236 -> 237        0.51412
     236 -> 238       -0.21727
 This state for optimization and/or second-order correction.
 Total Energy, E(TD-HF/TD-DFT) =  -2732.93979623
 Copying the excited state density for this state as the 1-particle RhoCI density.

 The electronic state is 1-A.
 Alpha  occ. eigenvalues --  -19.17537 -19.16404 -19.13020 -19.11117 -19.10734
 Alpha  occ. eigenvalues --  -14.37238 -14.37025 -14.31724 -14.30293 -10.30743
 Alpha  occ. eigenvalues --  -10.29789 -10.29479 -10.25287 -10.24982 -10.24299
 Alpha  occ. eigenvalues --  -10.23673 -10.23621 -10.23510 -10.23175 -10.22674
 Alpha  occ. eigenvalues --  -10.21993 -10.21829 -10.21698 -10.21687 -10.21640
 Alpha  occ. eigenvalues --  -10.21627 -10.21604 -10.21597 -10.21573 -10.21524
 Alpha  occ. eigenvalues --  -10.21507 -10.21505 -10.21462 -10.21395 -10.21303
 Alpha  occ. eigenvalues --  -10.20762 -10.20754 -10.20647 -10.20620 -10.20515
 Alpha  occ. eigenvalues --  -10.20457 -10.20179 -10.20151 -10.20142 -10.20072
 Alpha  occ. eigenvalues --  -10.20067 -10.20018 -10.19960 -10.19958 -10.19802
 Alpha  occ. eigenvalues --  -10.19774 -10.19748 -10.19496 -10.19271 -10.19247
 Alpha  occ. eigenvalues --  -10.19206 -10.18596 -10.18558 -10.18459 -10.18439
 Alpha  occ. eigenvalues --  -10.18366 -10.18183 -10.17937 -10.17119  -1.11265
 Alpha  occ. eigenvalues --   -1.08596  -1.00717  -1.00428  -0.99874  -0.97823
 Alpha  occ. eigenvalues --   -0.97192  -0.94820  -0.91135  -0.84813  -0.82627
 Alpha  occ. eigenvalues --   -0.82160  -0.81797  -0.81407  -0.81042  -0.80820
 Alpha  occ. eigenvalues --   -0.80415  -0.79345  -0.78399  -0.77927  -0.77712
 Alpha  occ. eigenvalues --   -0.76597  -0.76148  -0.75513  -0.74320  -0.73729
 Alpha  occ. eigenvalues --   -0.73196  -0.72531  -0.72230  -0.71305  -0.71053
 Alpha  occ. eigenvalues --   -0.70151  -0.69500  -0.68788  -0.68328  -0.67298
 Alpha  occ. eigenvalues --   -0.67088  -0.66187  -0.65686  -0.65068  -0.64078
 Alpha  occ. eigenvalues --   -0.63677  -0.63153  -0.62441  -0.62268  -0.61090
 Alpha  occ. eigenvalues --   -0.60682  -0.58759  -0.57952  -0.57625  -0.56826
 Alpha  occ. eigenvalues --   -0.56537  -0.56338  -0.56298  -0.55870  -0.55742
 Alpha  occ. eigenvalues --   -0.55148  -0.54767  -0.53612  -0.53377  -0.53124
 Alpha  occ. eigenvalues --   -0.52853  -0.51705  -0.51285  -0.50713  -0.50446
 Alpha  occ. eigenvalues --   -0.49801  -0.49259  -0.48632  -0.48041  -0.47961
 Alpha  occ. eigenvalues --   -0.47598  -0.47220  -0.47030  -0.46909  -0.46507
 Alpha  occ. eigenvalues --   -0.46391  -0.46076  -0.45880  -0.45864  -0.45764
 Alpha  occ. eigenvalues --   -0.45425  -0.45328  -0.45151  -0.44843  -0.44352
 Alpha  occ. eigenvalues --   -0.44171  -0.44058  -0.43681  -0.43520  -0.43204
 Alpha  occ. eigenvalues --   -0.42910  -0.42641  -0.42578  -0.42317  -0.42057
 Alpha  occ. eigenvalues --   -0.42031  -0.41762  -0.41549  -0.41226  -0.41047
 Alpha  occ. eigenvalues --   -0.40968  -0.40831  -0.40653  -0.40472  -0.40292
 Alpha  occ. eigenvalues --   -0.39953  -0.39709  -0.39640  -0.39447  -0.39312
 Alpha  occ. eigenvalues --   -0.39086  -0.38837  -0.38793  -0.38499  -0.38295
 Alpha  occ. eigenvalues --   -0.38151  -0.37957  -0.37792  -0.37620  -0.37413
 Alpha  occ. eigenvalues --   -0.37186  -0.36999  -0.36713  -0.36571  -0.36516
 Alpha  occ. eigenvalues --   -0.36216  -0.36086  -0.35904  -0.35836  -0.35699
 Alpha  occ. eigenvalues --   -0.35485  -0.35232  -0.35202  -0.34845  -0.34623
 Alpha  occ. eigenvalues --   -0.34486  -0.33982  -0.33891  -0.33614  -0.33531
 Alpha  occ. eigenvalues --   -0.33408  -0.33249  -0.32773  -0.32663  -0.32570
 Alpha  occ. eigenvalues --   -0.32142  -0.32129  -0.31633  -0.30913  -0.30753
 Alpha  occ. eigenvalues --   -0.30581  -0.30520  -0.30368  -0.29988  -0.29886
 Alpha  occ. eigenvalues --   -0.29686  -0.28819  -0.28322  -0.27189  -0.27115
 Alpha  occ. eigenvalues --   -0.26935  -0.26761  -0.26596  -0.26275  -0.25698
 Alpha  occ. eigenvalues --   -0.25478  -0.24422  -0.23701  -0.21377  -0.19689
 Alpha  occ. eigenvalues --   -0.19332
 Alpha virt. eigenvalues --   -0.10225  -0.08566  -0.04798  -0.02161  -0.01421
 Alpha virt. eigenvalues --   -0.00575   0.01131   0.01452   0.02390   0.03228
 Alpha virt. eigenvalues --    0.03440   0.03678   0.03724   0.03843   0.04324

 Mulliken charges:
               1
     1  C    0.111234
     2  C   -0.082226
     3  C   -0.122744
     4  C   -0.064371
     5  N   -0.146575
     6  C   -0.111795
     7  C   -0.037906
     8  C   -0.058698
     9  C   -0.001071
    10  C   -0.015591
    11  C    0.082086
    12  C    0.087276
    13  C    0.147827
    14  O   -0.280127
    15  O   -0.313001
    16  N   -0.089242
    17  C    0.121057
    18  C   -0.146927
    19  C    0.092590
    20  C    0.179414
    21  C    0.069520
    22  C   -0.072201
    23  C   -0.148531
    24  N   -0.310245
    25  C    0.019164
    26  C   -0.060268
    27  C   -0.103254
    28  C    0.030443
    29  C   -0.036185
    30  C    0.056529
    31  C    0.038388
    32  N    0.018943
    33  C    0.097844
    34  C   -0.139021
    35  C   -0.023565
    36  C    0.018225
    37  C    0.078176
    38  C    0.136967
    39  O   -0.199034
    40  C   -0.058213
    41  C    0.130828
    42  O   -0.190399
    43  O   -0.291102
    44  C    0.178822
    45  C    0.236546
    46  C   -0.059456
    47  C   -0.121592
    48  C    0.020432
    49  C    0.062437
    50  C   -0.085467
    51  C   -0.009469
    52  C    0.095328
    53  C    0.030721
    54  C   -0.055543
    55  C    0.117987
    56  C   -0.045007
    57  C   -0.018374
    58  C    0.027197
    59  C   -0.059448
    60  C    0.028507
    61  C   -0.041571
    62  C   -0.061513
    63  C   -0.131724
    64  C    0.063234
    65  H   -0.007442
    66  H    0.005637
    67  H   -0.010931
    68  H    0.017859
    69  H    0.009445
    70  H    0.034742
    71  H    0.001133
    72  H    0.049793
    73  H   -0.002018
    74  H    0.010728
    75  H    0.009978
    76  H    0.037460
    77  H    0.044543
    78  H    0.009332
    79  H    0.065956
    80  H    0.019319
    81  H    0.052135
    82  H    0.058270
    83  H    0.038508
    84  H    0.032902
    85  H   -0.002655
    86  H    0.014225
    87  H    0.032473
    88  H    0.005320
    89  H   -0.007491
    90  H    0.022847
    91  H    0.021552
    92  H    0.011887
    93  H    0.063612
    94  H    0.067927
    95  H    0.013664
    96  H    0.031859
    97  H    0.049853
    98  H    0.054205
    99  H    0.013247
   100  H   -0.032353
   101  H    0.035317
   102  H    0.058682
   103  H    0.020839
   104  H    0.012181
   105  H    0.015848
   106  H    0.036170
   107  H    0.022123
   108  H    0.011501
   109  H    0.014019
   110  H   -0.079421
   111  H   -0.019360
   112  H   -0.004836
   113  H   -0.025680
   114  H    0.009193
   115  H    0.021682
   116  H    0.005454
   117  H    0.023164
   118  H   -0.019176
   119  H   -0.018025
   120  H   -0.063964
   121  H    0.002198
   122  H   -0.002183
   123  H    0.017772
   124  H    0.037739
   125  H    0.022533
   126  H    0.021125
   127  H    0.014985
   128  H   -0.002021
   129  H   -0.009285
   130  H   -0.000638
   131  H    0.054410
   132  H    0.020368
   133  H    0.013790
   134  H    0.018693
   135  H    0.018585
   136  H    0.005676
   137  H    0.178265
   138  H    0.108487
 Sum of Mulliken charges =  -0.00000

 Dipole moment (field-independent basis, Debye):
    X=              3.0488    Y=              4.8529    Z=             -0.0650  Tot=              5.7315
 Quadrupole moment (field-independent basis, Debye-Ang):
   XX=           -349.3933   YY=           -385.1013   ZZ=           -397.9023
   XY=            -34.5936   XZ=             11.2890   YZ=              0.2122

 Normal termination of Gaussian 16 at Tue Aug 27 05:42:02 2019.
