 Gaussian 16, Revision A.03,
 Gaussian 16:  ES64L-G16RevA.03 25-Dec-2016

 --------------------------
 # td=(NStates=1) B3LYP/SVP
 --------------------------

 --
 TD
 --
 Symbolic Z-matrix:
 Charge =  0 Multiplicity = 1

                         Standard orientation:
 ---------------------------------------------------------------------
 Center     Atomic      Atomic             Coordinates (Angstroms)
 Number     Number       Type             X           Y           Z
 ---------------------------------------------------------------------
      1          6           0       -5.182959   -1.939472    0.499894
      2          6           0       -4.656630    2.742007    1.477212
      3          6           0       -9.148976    3.467666   -0.350490
      4          6           0       -9.855182   -1.321951   -0.843629
      5          7           0       -5.087356    0.364376    0.848965
      6          6           0       -4.451835   -0.778656    0.815464
      7          6           0       -3.038005   -0.730939    1.339290
      8          6           0       -2.907031    0.732828    1.918513
      9          6           0       -4.220043    1.379949    1.364341
     10          6           0       -2.906940    0.702754    3.456316
     11          6           0       -2.084221   -0.911130    0.136088
     12          6           0       -0.559182   -0.955137    0.512305
     13          6           0        0.364738   -1.133900   -0.674001
     14          8           0        0.235466   -1.697877   -1.706662
     15          8           0        1.654430   -0.883203   -0.280605
     16          7           0       -6.901098    2.752551    0.427359
     17          6           0       -5.761605    3.319811    0.965410
     18          6           0       -5.942953    4.801673    0.989635
     19          6           0       -7.249162    5.053251    0.437492
     20          6           0       -7.741639    3.774527    0.108589
     21          6           0       -5.001997    5.799908    1.512722
     22          6           0       -7.854387    6.393486    0.214100
     23          6           0       -8.902596    6.765937   -0.609957
     24          7           0       -9.178936    1.062086   -0.436248
     25          6           0       -9.804342    2.209371   -0.528049
     26          6           0      -11.181191    2.087266   -0.956588
     27          6           0      -11.463051    0.705840   -0.967163
     28          6           0      -10.075178   -0.014323   -0.668415
     29          6           0      -12.227307    3.120672   -1.051480
     30          6           0      -12.702161   -0.088109   -1.424124
     31          6           0      -12.664466   -0.698514   -2.854942
     32          7           0       -7.621049   -1.130605    0.030457
     33          6           0       -8.633681   -1.909485   -0.523668
     34          6           0       -8.255130   -3.362951   -0.643942
     35          6           0       -7.025279   -3.325947   -0.197470
     36          6           0       -6.514136   -2.007586    0.135967
     37          6           0       -9.192942   -4.495806   -1.015396
     38          6           0       -5.847569   -4.299240    0.053720
     39          8           0       -5.918568   -5.549088   -0.097243
     40          6           0       -4.624145   -3.406188    0.392142
     41          6           0       -4.075764   -3.928013    1.713657
     42          8           0       -4.361150   -3.505890    2.786317
     43          8           0       -3.140653   -4.976741    1.527886
     44          6           0       -2.693843   -5.600503    2.656142
     45          6           0        2.718699   -1.023398   -1.297145
     46          6           0        3.968484   -0.632985   -0.764543
     47          6           0        4.950373    0.240947   -1.202758
     48          6           0        4.754675    0.831311   -2.656348
     49          6           0        6.280242    0.363727   -0.521169
     50          6           0        7.430804   -0.101362   -1.290728
     51          6           0        8.688227   -0.231895   -0.376971
     52          6           0        9.969411   -0.625966   -1.250627
     53          6           0       10.079606   -2.009966   -1.858839
     54          6           0       11.241589   -0.309713   -0.164343
     55          6           0       12.588483   -0.312310   -0.872332
     56          6           0       13.710575   -0.102544    0.264879
     57          6           0       15.216711   -0.086043   -0.469830
     58          6           0       15.504144   -1.587004   -0.755443
     59          6           0       16.194771    0.508170    0.589355
     60          6           0       17.619761    0.551862    0.127884
     61          6           0       18.707212    1.253633    1.084454
     62          6           0       20.073709    1.511295    0.518475
     63          6           0       20.120595    2.455152   -0.790647
     64          6           0       21.001643    2.040997    1.593751
     65          1           0       -3.986333    3.458131    2.016599
     66          1           0       -9.613560    4.327941   -0.338704
     67          1           0      -10.726807   -2.054629   -0.985583
     68          1           0       -2.879043   -1.443876    2.125167
     69          1           0       -1.920213    1.049748    1.456839
     70          1           0       -1.836261    0.345882    3.879760
     71          1           0       -3.177935    1.673525    3.823510
     72          1           0       -3.584571    0.231675    3.912227
     73          1           0       -2.532275   -1.963366   -0.230679
     74          1           0       -2.400787   -0.222646   -0.569758
     75          1           0       -0.426035   -0.055868    0.959894
     76          1           0       -0.401775   -1.784593    1.318463
     77          1           0       -4.059351    5.786231    1.129014
     78          1           0       -5.295426    6.887281    1.472836
     79          1           0       -4.958031    5.553914    2.447236
     80          1           0       -7.276056    7.148719    0.988912
     81          1           0       -9.171708    6.073534   -1.537181
     82          1           0       -9.300724    7.886208   -0.680965
     83          1           0      -12.406887    3.342040   -0.003127
     84          1           0      -11.967651    4.136996   -1.505820
     85          1           0      -13.134048    2.476282   -1.422927
     86          1           0      -12.928193   -0.958332   -0.567185
     87          1           0      -13.603580    0.627901   -1.089871
     88          1           0      -12.743848    0.094041   -3.344387
     89          1           0      -11.752676   -1.383418   -3.012990
     90          1           0      -13.480078   -1.623734   -2.976480
     91          1           0      -10.021625   -4.711358   -0.151516
     92          1           0       -9.790137   -4.154273   -1.949743
     93          1           0       -8.430883   -5.394797   -1.378570
     94          1           0       -3.857504   -3.420491   -0.322729
     95          1           0       -2.012030   -6.402460    2.493197
     96          1           0       -2.275309   -4.774629    3.393157
     97          1           0       -3.586871   -6.343588    3.135901
     98          1           0        2.781370   -2.020869   -1.779736
     99          1           0        2.337536   -0.212609   -1.984418
    100          1           0        4.215652   -1.156283    0.207730
    101          1           0        4.975829    1.865130   -2.607632
    102          1           0        5.240046    0.394606   -3.423110
    103          1           0        3.647115    0.683544   -2.903487
    104          1           0        6.296826    1.467547   -0.270921
    105          1           0        6.184505   -0.077548    0.469490
    106          1           0        7.302393   -1.128437   -1.821443
    107          1           0        7.515800    0.540159   -2.013357
    108          1           0        8.832767    0.893708    0.113287
    109          1           0        8.452683   -0.973829    0.432867
    110          1           0        9.964277    0.247658   -2.189813
    111          1           0        9.071385   -2.285335   -2.451368
    112          1           0       10.780049   -2.475461   -2.605720
    113          1           0        9.915831   -2.891968   -0.898091
    114          1           0       11.175784    0.600801    0.323641
    115          1           0       11.099254   -1.193434    0.478725
    116          1           0       12.543329   -1.405849   -1.454873
    117          1           0       12.846388    0.531243   -1.634066
    118          1           0       13.643906    0.882500    0.796105
    119          1           0       13.560568   -0.946301    1.087480
    120          1           0       15.211898    0.560493   -1.210815
    121          1           0       14.796657   -2.023456   -1.337741
    122          1           0       16.405746   -1.459906   -1.399278
    123          1           0       16.025124   -2.208152    0.075864
    124          1           0       15.912642    1.561574    0.562559
    125          1           0       16.013053    0.059782    1.528384
    126          1           0       17.948804   -0.568421    0.027419
    127          1           0       17.511482    1.012890   -0.891570
    128          1           0       18.500742    2.200224    1.423403
    129          1           0       18.906207    0.598659    1.855410
    130          1           0       20.340113    0.460030    0.141434
    131          1           0       19.711743    3.484985   -0.424942
    132          1           0       21.202668    2.349675   -1.245122
    133          1           0       19.373867    1.930841   -1.510369
    134          1           0       21.016113    1.356344    2.669739
    135          1           0       22.025972    2.307671    1.095612
    136          1           0       20.773075    3.185613    2.188318
    137          1           0       -7.143109    1.848605    0.362497
    138          1           0       -8.048544   -0.138875    0.021598
 ---------------------------------------------------------------------

 SCF Done:  E(RB3LYP) =  -2732.91035862     A.U. after   17 cycles

 Excitation energies and oscillator strengths:

 Excited State   1:      Singlet-A      2.0084 eV  617.33 nm  f=0.1840  <S**2>=0.000
     235 -> 238        0.30137
     236 -> 237        0.63059
 This state for optimization and/or second-order correction.
 Total Energy, E(TD-HF/TD-DFT) =  -2732.83655173
 Copying the excited state density for this state as the 1-particle RhoCI density.

 The electronic state is 1-A.
 Alpha  occ. eigenvalues --  -19.17622 -19.15723 -19.14131 -19.13496 -19.12265
 Alpha  occ. eigenvalues --  -14.37009 -14.36633 -14.32604 -14.30733 -10.32713
 Alpha  occ. eigenvalues --  -10.31201 -10.29464 -10.25301 -10.24330 -10.24254
 Alpha  occ. eigenvalues --  -10.24051 -10.23831 -10.23699 -10.23416 -10.22813
 Alpha  occ. eigenvalues --  -10.22756 -10.22689 -10.22657 -10.22246 -10.22132
 Alpha  occ. eigenvalues --  -10.21981 -10.21872 -10.21769 -10.21750 -10.21583
 Alpha  occ. eigenvalues --  -10.21487 -10.21454 -10.21299 -10.21248 -10.21120
 Alpha  occ. eigenvalues --  -10.20778 -10.20738 -10.20469 -10.20449 -10.20334
 Alpha  occ. eigenvalues --  -10.20092 -10.19934 -10.19775 -10.19753 -10.19750
 Alpha  occ. eigenvalues --  -10.19644 -10.19577 -10.19449 -10.19439 -10.19396
 Alpha  occ. eigenvalues --  -10.19263 -10.19133 -10.19119 -10.18728 -10.18662
 Alpha  occ. eigenvalues --  -10.18413 -10.18399 -10.18246 -10.18220 -10.18218
 Alpha  occ. eigenvalues --  -10.17698 -10.17362 -10.17073 -10.16804  -1.09904
 Alpha  occ. eigenvalues --   -1.09004  -1.02619  -1.01047  -0.99491  -0.98713
 Alpha  occ. eigenvalues --   -0.97052  -0.94066  -0.93160  -0.85063  -0.82567
 Alpha  occ. eigenvalues --   -0.82380  -0.81548  -0.81241  -0.80867  -0.80398
 Alpha  occ. eigenvalues --   -0.79730  -0.79523  -0.79158  -0.79013  -0.77816
 Alpha  occ. eigenvalues --   -0.77059  -0.75904  -0.75526  -0.74459  -0.74149
 Alpha  occ. eigenvalues --   -0.73310  -0.73099  -0.72554  -0.72085  -0.71243
 Alpha  occ. eigenvalues --   -0.70470  -0.69132  -0.68225  -0.67965  -0.67251
 Alpha  occ. eigenvalues --   -0.67182  -0.65760  -0.65254  -0.65033  -0.64851
 Alpha  occ. eigenvalues --   -0.64450  -0.63021  -0.62300  -0.61681  -0.61499
 Alpha  occ. eigenvalues --   -0.60658  -0.59245  -0.58882  -0.58105  -0.57868
 Alpha  occ. eigenvalues --   -0.56771  -0.56076  -0.55697  -0.55552  -0.55402
 Alpha  occ. eigenvalues --   -0.54465  -0.53996  -0.53582  -0.53461  -0.52904
 Alpha  occ. eigenvalues --   -0.52385  -0.52146  -0.51763  -0.51180  -0.50390
 Alpha  occ. eigenvalues --   -0.49569  -0.49514  -0.49250  -0.48598  -0.48368
 Alpha  occ. eigenvalues --   -0.48337  -0.48083  -0.47651  -0.47202  -0.46956
 Alpha  occ. eigenvalues --   -0.46727  -0.46423  -0.46342  -0.46048  -0.45891
 Alpha  occ. eigenvalues --   -0.45679  -0.45388  -0.45295  -0.44794  -0.44364
 Alpha  occ. eigenvalues --   -0.44280  -0.43936  -0.43831  -0.43632  -0.43458
 Alpha  occ. eigenvalues --   -0.43306  -0.43154  -0.43112  -0.42889  -0.42504
 Alpha  occ. eigenvalues --   -0.42250  -0.42054  -0.41965  -0.41873  -0.41759
 Alpha  occ. eigenvalues --   -0.41664  -0.41604  -0.41175  -0.40538  -0.40432
 Alpha  occ. eigenvalues --   -0.40389  -0.40106  -0.39801  -0.39561  -0.39370
 Alpha  occ. eigenvalues --   -0.39219  -0.39127  -0.38908  -0.38712  -0.38489
 Alpha  occ. eigenvalues --   -0.38365  -0.38282  -0.37902  -0.37782  -0.37497
 Alpha  occ. eigenvalues --   -0.37284  -0.37156  -0.37032  -0.36709  -0.36587
 Alpha  occ. eigenvalues --   -0.36422  -0.36339  -0.36128  -0.35918  -0.35834
 Alpha  occ. eigenvalues --   -0.35581  -0.35503  -0.35387  -0.35246  -0.34816
 Alpha  occ. eigenvalues --   -0.34678  -0.34499  -0.34303  -0.34000  -0.33906
 Alpha  occ. eigenvalues --   -0.33795  -0.33310  -0.32877  -0.32594  -0.32468
 Alpha  occ. eigenvalues --   -0.32246  -0.31776  -0.31741  -0.31243  -0.31043
 Alpha  occ. eigenvalues --   -0.30817  -0.30659  -0.30311  -0.29729  -0.29476
 Alpha  occ. eigenvalues --   -0.29081  -0.28967  -0.28728  -0.28466  -0.27856
 Alpha  occ. eigenvalues --   -0.27273  -0.27178  -0.26524  -0.26133  -0.25790
 Alpha  occ. eigenvalues --   -0.25573  -0.24000  -0.23839  -0.22653  -0.19941
 Alpha  occ. eigenvalues --   -0.18569
 Alpha virt. eigenvalues --   -0.10190  -0.07899  -0.05287  -0.03092  -0.00953
 Alpha virt. eigenvalues --   -0.00852  -0.00485   0.00004   0.01005   0.03232
 Alpha virt. eigenvalues --    0.03703   0.03870   0.04026   0.04079   0.04494

 Mulliken charges:
               1
     1  C    0.001423
     2  C   -0.104542
     3  C    0.031639
     4  C   -0.107772
     5  N   -0.159926
     6  C   -0.119437
     7  C   -0.043660
     8  C   -0.025137
     9  C   -0.010064
    10  C    0.157463
    11  C    0.004192
    12  C    0.122220
    13  C    0.178392
    14  O   -0.199359
    15  O   -0.366778
    16  N    0.043522
    17  C    0.150048
    18  C   -0.174816
    19  C    0.012628
    20  C   -0.036069
    21  C    0.205732
    22  C   -0.035166
    23  C   -0.106228
    24  N   -0.274818
    25  C    0.109275
    26  C   -0.148243
    27  C   -0.106402
    28  C    0.091501
    29  C    0.073301
    30  C   -0.057422
    31  C    0.081036
    32  N   -0.113051
    33  C    0.005891
    34  C   -0.170589
    35  C    0.024955
    36  C    0.175290
    37  C   -0.005709
    38  C    0.127299
    39  O   -0.202556
    40  C    0.009393
    41  C    0.203622
    42  O   -0.179478
    43  O   -0.309066
    44  C    0.128197
    45  C    0.307354
    46  C   -0.132971
    47  C   -0.186356
    48  C    0.102590
    49  C    0.111441
    50  C    0.095940
    51  C   -0.021395
    52  C   -0.110383
    53  C   -0.059845
    54  C    0.080163
    55  C   -0.043228
    56  C   -0.034689
    57  C   -0.055001
    58  C    0.082844
    59  C    0.072041
    60  C   -0.024100
    61  C    0.135452
    62  C   -0.113933
    63  C   -0.044124
    64  C   -0.085037
    65  H   -0.016213
    66  H   -0.115579
    67  H    0.015439
    68  H    0.000505
    69  H    0.006461
    70  H    0.027132
    71  H   -0.017770
    72  H   -0.046134
    73  H    0.022494
    74  H   -0.008308
    75  H   -0.021332
    76  H    0.062491
    77  H    0.000336
    78  H    0.016554
    79  H   -0.016019
    80  H    0.032037
    81  H    0.064593
    82  H    0.055891
    83  H    0.024400
    84  H    0.035094
    85  H    0.031988
    86  H    0.016407
    87  H    0.024067
    88  H   -0.023302
    89  H    0.031634
    90  H    0.028510
    91  H    0.073622
    92  H    0.038209
    93  H    0.080878
    94  H    0.051904
    95  H    0.020954
    96  H    0.041724
    97  H    0.027179
    98  H    0.047474
    99  H    0.019229
   100  H   -0.004522
   101  H   -0.000266
   102  H    0.006789
   103  H   -0.002568
   104  H    0.002522
   105  H   -0.022492
   106  H    0.010801
   107  H   -0.054395
   108  H    0.022383
   109  H    0.013944
   110  H    0.013652
   111  H    0.016899
   112  H    0.053200
   113  H    0.015189
   114  H   -0.020490
   115  H    0.003943
   116  H    0.028103
   117  H    0.015118
   118  H    0.000652
   119  H    0.013491
   120  H   -0.051699
   121  H   -0.016461
   122  H   -0.012857
   123  H    0.025457
   124  H   -0.020702
   125  H   -0.014413
   126  H    0.002856
   127  H    0.001681
   128  H   -0.037228
   129  H   -0.026305
   130  H   -0.001355
   131  H    0.034217
   132  H    0.041229
   133  H    0.026528
   134  H    0.035350
   135  H    0.030665
   136  H    0.020604
   137  H    0.076136
   138  H    0.184300
 Sum of Mulliken charges =  -0.00000

 Dipole moment (field-independent basis, Debye):
    X=              2.0161    Y=              4.2512    Z=              0.6637  Tot=              4.7516
 Quadrupole moment (field-independent basis, Debye-Ang):
   XX=           -373.2206   YY=           -385.7529   ZZ=           -396.3492
   XY=            -19.4465   XZ=              0.2894   YZ=              1.7908

 Normal termination of Gaussian 16 at Mon Aug 19 16:01:04 2019.
