 Gaussian 16, Revision A.03,
 Gaussian 16:  ES64L-G16RevA.03 25-Dec-2016

 --------------------------
 # td=(NStates=1) B3LYP/SVP
 --------------------------

 --
 TD
 --
 Symbolic Z-matrix:
 Charge =  0 Multiplicity = 1

                         Standard orientation:
 ---------------------------------------------------------------------
 Center     Atomic      Atomic             Coordinates (Angstroms)
 Number     Number       Type             X           Y           Z
 ---------------------------------------------------------------------
      1          6           0       -5.250486   -1.985846    0.460500
      2          6           0       -4.495214    2.669408    1.420586
      3          6           0       -9.154897    3.394212   -0.124592
      4          6           0       -9.847450   -1.289622   -0.899040
      5          7           0       -5.166957    0.450298    0.937393
      6          6           0       -4.586056   -0.776732    0.870755
      7          6           0       -3.100215   -0.663927    1.228444
      8          6           0       -2.875741    0.694809    1.856369
      9          6           0       -4.196159    1.400457    1.379706
     10          6           0       -2.766302    0.727344    3.388784
     11          6           0       -2.114629   -0.948746    0.051324
     12          6           0       -0.724880   -0.975306    0.562938
     13          6           0        0.363308   -1.204971   -0.566505
     14          8           0        0.158508   -1.592161   -1.707593
     15          8           0        1.623216   -0.837277   -0.141876
     16          7           0       -6.836516    2.675946    0.591264
     17          6           0       -5.691008    3.327034    0.992464
     18          6           0       -6.001615    4.769826    1.072841
     19          6           0       -7.295045    5.045942    0.495940
     20          6           0       -7.876397    3.718747    0.236761
     21          6           0       -4.924183    5.805667    1.473711
     22          6           0       -7.840436    6.280878    0.293589
     23          6           0       -8.768669    6.752746   -0.591427
     24          7           0       -9.197597    0.995215   -0.404107
     25          6           0       -9.785858    2.192554   -0.496699
     26          6           0      -11.218613    2.051350   -0.909792
     27          6           0      -11.359978    0.715752   -1.174369
     28          6           0      -10.104313    0.069154   -0.811236
     29          6           0      -12.163354    3.146115   -1.071193
     30          6           0      -12.571765   -0.045413   -1.774835
     31          6           0      -12.492393   -0.308917   -3.250085
     32          7           0       -7.582264   -1.171827   -0.137064
     33          6           0       -8.669827   -1.889921   -0.695698
     34          6           0       -8.299794   -3.275528   -0.727908
     35          6           0       -6.924671   -3.341322   -0.245617
     36          6           0       -6.508545   -2.074881    0.153227
     37          6           0       -9.196058   -4.409305   -1.135242
     38          6           0       -5.795579   -4.242812   -0.019854
     39          8           0       -5.780212   -5.449415   -0.057712
     40          6           0       -4.713272   -3.310453    0.314826
     41          6           0       -4.052520   -3.829711    1.591234
     42          8           0       -4.236154   -3.484190    2.698302
     43          8           0       -3.253272   -4.878073    1.323947
     44          6           0       -2.755359   -5.633287    2.465883
     45          6           0        2.605180   -1.164134   -1.070574
     46          6           0        3.998453   -0.948679   -0.383415
     47          6           0        4.855276   -0.187834   -0.990777
     48          6           0        4.840218    0.716223   -2.161103
     49          6           0        6.154479    0.133541   -0.196359
     50          6           0        7.293869   -0.467989   -0.768170
     51          6           0        8.669621   -0.183359   -0.109079
     52          6           0       10.059987   -0.757904   -0.754039
     53          6           0        9.983503   -2.323777   -0.865527
     54          6           0       11.292412   -0.227272   -0.015841
     55          6           0       12.603053   -0.561076   -0.582896
     56          6           0       13.801167    0.079405    0.231901
     57          6           0       15.146705   -0.069930   -0.510693
     58          6           0       15.553517   -1.551807   -0.791988
     59          6           0       16.218731    0.612958    0.462510
     60          6           0       17.531479    0.778611   -0.230122
     61          6           0       18.583269    1.512662    0.656518
     62          6           0       20.027744    1.589178    0.041779
     63          6           0       20.020819    2.423261   -1.282775
     64          6           0       21.003392    2.268973    1.029458
     65          1           0       -3.798774    3.321764    1.908109
     66          1           0       -9.733626    4.322820   -0.299457
     67          1           0      -10.674478   -2.132786   -1.338649
     68          1           0       -2.977299   -1.547422    2.078599
     69          1           0       -2.064386    1.205153    1.478581
     70          1           0       -1.992120    0.001476    3.792989
     71          1           0       -2.886737    1.874001    3.537240
     72          1           0       -3.617495    0.365000    3.736215
     73          1           0       -2.271490   -1.883707   -0.465759
     74          1           0       -2.205005   -0.231386   -0.795284
     75          1           0       -0.240493    0.095213    0.968015
     76          1           0       -0.436319   -1.841064    1.225422
     77          1           0       -3.903775    5.843717    0.848291
     78          1           0       -5.304548    6.853881    1.288224
     79          1           0       -4.657801    5.733378    2.483903
     80          1           0       -7.304803    7.031786    0.974914
     81          1           0       -9.398957    6.094454   -1.372739
     82          1           0       -8.813382    7.913201   -0.409859
     83          1           0      -12.382302    3.784852   -0.143351
     84          1           0      -11.814135    3.901837   -1.630594
     85          1           0      -13.246724    2.778192   -1.253014
     86          1           0      -12.671450   -1.058398   -1.213658
     87          1           0      -13.460515    0.406021   -1.472749
     88          1           0      -12.293933    0.558769   -3.883152
     89          1           0      -11.553719   -0.964971   -3.301184
     90          1           0      -13.453594   -0.855039   -3.661107
     91          1           0       -9.881485   -4.400634   -0.280771
     92          1           0       -9.738234   -4.069105   -2.000525
     93          1           0       -8.629840   -5.450958   -1.102941
     94          1           0       -3.933134   -3.408297   -0.493260
     95          1           0       -2.071244   -6.533979    2.329190
     96          1           0       -2.298476   -4.868734    3.083825
     97          1           0       -3.578194   -5.983685    3.062556
     98          1           0        2.528874   -2.161628   -1.423068
     99          1           0        2.429186   -0.547721   -1.835194
    100          1           0        4.103688   -1.680231    0.514958
    101          1           0        4.989721    1.848465   -1.968080
    102          1           0        5.603306    0.531379   -2.968297
    103          1           0        3.807406    0.852428   -2.771926
    104          1           0        6.450349    1.270797   -0.224723
    105          1           0        5.936856   -0.224215    0.819619
    106          1           0        6.898194   -1.478360   -1.004106
    107          1           0        7.384582   -0.007491   -1.697113
    108          1           0        8.631428    0.863764    0.150193
    109          1           0        8.672170   -0.514739    1.068391
    110          1           0       10.089225   -0.278732   -1.880074
    111          1           0        9.210863   -2.873672   -1.498672
    112          1           0       10.866470   -2.651829   -1.267565
    113          1           0       10.083860   -2.681898    0.308815
    114          1           0       11.255367    0.773326   -0.007599
    115          1           0       10.955223   -0.695163    1.042978
    116          1           0       12.715359   -1.676421   -0.564579
    117          1           0       12.566971   -0.279554   -1.601721
    118          1           0       13.481392    1.080905    0.445395
    119          1           0       13.853128   -0.464825    1.343050
    120          1           0       14.839393    0.500303   -1.432951
    121          1           0       14.980018   -2.329234   -1.292555
    122          1           0       16.437062   -1.734803   -1.404715
    123          1           0       15.784567   -1.946197    0.071341
    124          1           0       15.745289    1.580382    0.817697
    125          1           0       16.158260   -0.031436    1.255794
    126          1           0       17.981124   -0.235593   -0.283793
    127          1           0       17.413465    1.380729   -1.186410
    128          1           0       17.812962    2.392720    0.949286
    129          1           0       18.788293    0.906860    1.776375
    130          1           0       20.164598    0.598027   -0.211249
    131          1           0       19.550082    3.305702   -1.013245
    132          1           0       21.110243    2.613972   -1.781588
    133          1           0       19.669717    2.054911   -2.248807
    134          1           0       20.913287    2.004870    2.036048
    135          1           0       22.051027    2.246813    0.648402
    136          1           0       20.601171    3.324486    1.158946
    137          1           0       -6.965205    1.709359    0.219520
    138          1           0       -7.783254   -0.278387    0.282668
 ---------------------------------------------------------------------

 SCF Done:  E(RB3LYP) =  -2733.06126292     A.U. after   16 cycles

 Excitation energies and oscillator strengths:

 Excited State   1:      Singlet-A      2.0168 eV  614.76 nm  f=0.2243  <S**2>=0.000
     235 -> 237       -0.13766
     235 -> 238        0.25721
     236 -> 237        0.63069
     236 -> 238        0.12702
 This state for optimization and/or second-order correction.
 Total Energy, E(TD-HF/TD-DFT) =  -2732.98714738
 Copying the excited state density for this state as the 1-particle RhoCI density.

 The electronic state is 1-A.
 Alpha  occ. eigenvalues --  -19.17467 -19.17094 -19.12893 -19.12661 -19.11822
 Alpha  occ. eigenvalues --  -14.37068 -14.35123 -14.32290 -14.29914 -10.31732
 Alpha  occ. eigenvalues --  -10.31434 -10.27196 -10.24837 -10.24428 -10.23950
 Alpha  occ. eigenvalues --  -10.23781 -10.22767 -10.22429 -10.22410 -10.22404
 Alpha  occ. eigenvalues --  -10.22388 -10.22278 -10.21890 -10.21656 -10.21338
 Alpha  occ. eigenvalues --  -10.21179 -10.21160 -10.21131 -10.21105 -10.20975
 Alpha  occ. eigenvalues --  -10.20938 -10.20891 -10.20862 -10.20840 -10.20497
 Alpha  occ. eigenvalues --  -10.20346 -10.20284 -10.20126 -10.19954 -10.19829
 Alpha  occ. eigenvalues --  -10.19768 -10.19659 -10.19478 -10.19429 -10.19214
 Alpha  occ. eigenvalues --  -10.19146 -10.19057 -10.19036 -10.18870 -10.18869
 Alpha  occ. eigenvalues --  -10.18772 -10.18728 -10.18672 -10.18608 -10.18386
 Alpha  occ. eigenvalues --  -10.18306 -10.18105 -10.18026 -10.17906 -10.17872
 Alpha  occ. eigenvalues --  -10.17699 -10.17590 -10.16928 -10.16632  -1.10427
 Alpha  occ. eigenvalues --   -1.09513  -1.03017  -1.01205  -1.00531  -0.96224
 Alpha  occ. eigenvalues --   -0.94892  -0.93897  -0.92596  -0.88130  -0.83532
 Alpha  occ. eigenvalues --   -0.82577  -0.81819  -0.81424  -0.80726  -0.80497
 Alpha  occ. eigenvalues --   -0.79610  -0.79557  -0.79249  -0.79021  -0.78061
 Alpha  occ. eigenvalues --   -0.77385  -0.76376  -0.75799  -0.75012  -0.74737
 Alpha  occ. eigenvalues --   -0.74056  -0.73266  -0.72572  -0.71920  -0.70659
 Alpha  occ. eigenvalues --   -0.69913  -0.69734  -0.68882  -0.68210  -0.68049
 Alpha  occ. eigenvalues --   -0.67445  -0.67348  -0.66331  -0.66132  -0.65423
 Alpha  occ. eigenvalues --   -0.64832  -0.63150  -0.62167  -0.61449  -0.61075
 Alpha  occ. eigenvalues --   -0.60966  -0.58693  -0.58494  -0.57863  -0.57448
 Alpha  occ. eigenvalues --   -0.56983  -0.56362  -0.56042  -0.55880  -0.55094
 Alpha  occ. eigenvalues --   -0.54747  -0.54033  -0.53708  -0.53407  -0.53128
 Alpha  occ. eigenvalues --   -0.52850  -0.52161  -0.51914  -0.51596  -0.51106
 Alpha  occ. eigenvalues --   -0.50312  -0.49404  -0.49006  -0.48915  -0.48559
 Alpha  occ. eigenvalues --   -0.47942  -0.47853  -0.47709  -0.47586  -0.47124
 Alpha  occ. eigenvalues --   -0.46677  -0.46560  -0.46432  -0.45914  -0.45778
 Alpha  occ. eigenvalues --   -0.45324  -0.45151  -0.45017  -0.44762  -0.44627
 Alpha  occ. eigenvalues --   -0.44517  -0.44269  -0.44076  -0.43913  -0.43739
 Alpha  occ. eigenvalues --   -0.43704  -0.43380  -0.43169  -0.42699  -0.42463
 Alpha  occ. eigenvalues --   -0.42386  -0.42010  -0.41784  -0.41408  -0.41367
 Alpha  occ. eigenvalues --   -0.41117  -0.40771  -0.40673  -0.40605  -0.40245
 Alpha  occ. eigenvalues --   -0.40102  -0.39671  -0.39529  -0.39419  -0.39359
 Alpha  occ. eigenvalues --   -0.39267  -0.39007  -0.38874  -0.38696  -0.38589
 Alpha  occ. eigenvalues --   -0.38581  -0.38299  -0.38053  -0.37760  -0.37668
 Alpha  occ. eigenvalues --   -0.37630  -0.37371  -0.37236  -0.36803  -0.36651
 Alpha  occ. eigenvalues --   -0.36461  -0.36390  -0.36309  -0.36141  -0.35955
 Alpha  occ. eigenvalues --   -0.35174  -0.35109  -0.35007  -0.34924  -0.34741
 Alpha  occ. eigenvalues --   -0.34678  -0.34612  -0.34247  -0.33737  -0.33704
 Alpha  occ. eigenvalues --   -0.33440  -0.33207  -0.32911  -0.32804  -0.32719
 Alpha  occ. eigenvalues --   -0.32533  -0.32116  -0.31624  -0.31575  -0.31365
 Alpha  occ. eigenvalues --   -0.31247  -0.30701  -0.30340  -0.30292  -0.29819
 Alpha  occ. eigenvalues --   -0.29474  -0.29268  -0.28801  -0.28111  -0.28030
 Alpha  occ. eigenvalues --   -0.27888  -0.26882  -0.26608  -0.26474  -0.25896
 Alpha  occ. eigenvalues --   -0.25169  -0.24961  -0.23592  -0.22822  -0.20753
 Alpha  occ. eigenvalues --   -0.18692
 Alpha virt. eigenvalues --   -0.10486  -0.08278  -0.04439  -0.02293  -0.00072
 Alpha virt. eigenvalues --    0.00056   0.00211   0.01010   0.02202   0.03259
 Alpha virt. eigenvalues --    0.03713   0.04060   0.04363   0.04435   0.04848

 Mulliken charges:
               1
     1  C    0.025669
     2  C   -0.038528
     3  C   -0.056586
     4  C   -0.146704
     5  N   -0.219790
     6  C   -0.026778
     7  C   -0.124307
     8  C    0.055355
     9  C   -0.010766
    10  C    0.146476
    11  C    0.110608
    12  C   -0.037004
    13  C    0.158965
    14  O   -0.244685
    15  O   -0.322152
    16  N   -0.139213
    17  C    0.118265
    18  C   -0.140206
    19  C    0.123976
    20  C    0.073378
    21  C    0.051805
    22  C   -0.127278
    23  C   -0.072506
    24  N   -0.206641
    25  C    0.036926
    26  C   -0.115289
    27  C   -0.113455
    28  C    0.082256
    29  C    0.133434
    30  C    0.087374
    31  C   -0.001436
    32  N   -0.127656
    33  C    0.077728
    34  C   -0.161180
    35  C   -0.027037
    36  C    0.113394
    37  C    0.108927
    38  C    0.024218
    39  O   -0.155756
    40  C    0.014612
    41  C    0.146332
    42  O   -0.190862
    43  O   -0.311121
    44  C    0.199608
    45  C    0.334402
    46  C   -0.130511
    47  C   -0.043483
    48  C   -0.010441
    49  C    0.016537
    50  C    0.094536
    51  C    0.028668
    52  C   -0.111849
    53  C    0.041482
    54  C    0.040705
    55  C    0.077740
    56  C   -0.020489
    57  C   -0.069826
    58  C    0.100080
    59  C    0.043241
    60  C    0.082862
    61  C   -0.133054
    62  C    0.005156
    63  C   -0.008079
    64  C    0.084850
    65  H   -0.042755
    66  H   -0.039487
    67  H    0.028764
    68  H    0.044266
    69  H   -0.036300
    70  H    0.032789
    71  H    0.013434
    72  H   -0.030092
    73  H    0.003941
    74  H    0.013070
    75  H    0.067893
    76  H    0.045905
    77  H    0.045791
    78  H    0.013247
    79  H    0.018685
    80  H    0.018323
    81  H    0.070769
    82  H    0.049518
    83  H    0.004358
    84  H   -0.021125
    85  H    0.024348
    86  H    0.001529
    87  H   -0.029616
    88  H    0.016117
    89  H    0.012546
    90  H    0.028987
    91  H    0.033261
    92  H    0.031475
    93  H    0.071244
    94  H    0.070066
    95  H    0.054609
    96  H    0.013516
    97  H    0.018769
    98  H    0.002469
    99  H   -0.054623
   100  H    0.030731
   101  H    0.033214
   102  H    0.042709
   103  H    0.020008
   104  H   -0.002298
   105  H   -0.010362
   106  H   -0.013396
   107  H   -0.040937
   108  H   -0.029009
   109  H   -0.018424
   110  H   -0.006404
   111  H    0.034367
   112  H   -0.020587
   113  H    0.011844
   114  H   -0.042843
   115  H    0.008035
   116  H    0.004740
   117  H   -0.023659
   118  H   -0.010819
   119  H   -0.000420
   120  H   -0.004473
   121  H   -0.002386
   122  H   -0.005845
   123  H   -0.047320
   124  H   -0.004371
   125  H   -0.030773
   126  H   -0.002279
   127  H    0.021006
   128  H    0.008182
   129  H    0.006953
   130  H   -0.026199
   131  H    0.001260
   132  H    0.004551
   133  H    0.008614
   134  H   -0.016641
   135  H    0.022862
   136  H   -0.001452
   137  H    0.169171
   138  H    0.142060
 Sum of Mulliken charges =  -0.00000

 Dipole moment (field-independent basis, Debye):
    X=              2.1160    Y=              3.5788    Z=              0.1634  Tot=              4.1608
 Quadrupole moment (field-independent basis, Debye-Ang):
   XX=           -356.1450   YY=           -377.4483   ZZ=           -397.2741
   XY=            -25.2341   XZ=              0.7589   YZ=             -4.1943

 Normal termination of Gaussian 16 at Sun Aug 18 07:36:06 2019.
