 Gaussian 16, Revision A.03,
 Gaussian 16:  ES64L-G16RevA.03 25-Dec-2016

 --------------------------
 # td=(NStates=1) B3LYP/SVP
 --------------------------

 --
 TD
 --
 Symbolic Z-matrix:
 Charge =  0 Multiplicity = 1

                         Standard orientation:
 ---------------------------------------------------------------------
 Center     Atomic      Atomic             Coordinates (Angstroms)
 Number     Number       Type             X           Y           Z
 ---------------------------------------------------------------------
      1          6           0       -5.084109   -1.910842    0.377561
      2          6           0       -4.798228    2.820184    1.313651
      3          6           0       -9.527052    3.193285   -0.260503
      4          6           0       -9.891673   -1.592951   -0.900189
      5          7           0       -5.224405    0.516737    0.531225
      6          6           0       -4.537281   -0.709820    0.637900
      7          6           0       -3.143415   -0.498329    1.162006
      8          6           0       -3.145628    0.914538    1.702036
      9          6           0       -4.456387    1.446274    1.162744
     10          6           0       -3.137639    1.066320    3.300436
     11          6           0       -2.033015   -0.700911    0.139013
     12          6           0       -0.536062   -0.635520    0.587428
     13          6           0        0.433349   -0.971326   -0.509999
     14          8           0        0.204108   -1.463227   -1.535813
     15          8           0        1.731023   -0.395112   -0.185489
     16          7           0       -7.034227    2.820926    0.170029
     17          6           0       -6.003250    3.512414    0.850748
     18          6           0       -6.355387    4.860774    0.983959
     19          6           0       -7.697840    4.976550    0.474800
     20          6           0       -8.136221    3.565600    0.150103
     21          6           0       -5.493427    5.858423    1.527570
     22          6           0       -8.502980    6.193864    0.349297
     23          6           0       -9.391704    6.588098   -0.574907
     24          7           0       -9.347816    0.796815   -0.492273
     25          6           0       -9.964477    1.940379   -0.578328
     26          6           0      -11.318614    1.737994   -0.943642
     27          6           0      -11.513478    0.376780   -0.995807
     28          6           0      -10.238675   -0.175196   -0.833219
     29          6           0      -12.501285    2.732148   -0.996669
     30          6           0      -12.741027   -0.391305   -1.459868
     31          6           0      -12.899316   -0.603812   -2.932077
     32          7           0       -7.467464   -1.212890   -0.316236
     33          6           0       -8.571642   -2.073495   -0.646853
     34          6           0       -8.213325   -3.382065   -0.545330
     35          6           0       -6.907532   -3.458324   -0.254020
     36          6           0       -6.463828   -2.098241   -0.045686
     37          6           0       -9.115021   -4.592197   -0.881557
     38          6           0       -5.717577   -4.352681   -0.030311
     39          8           0       -5.600430   -5.531414   -0.127685
     40          6           0       -4.512263   -3.259174    0.350562
     41          6           0       -3.758012   -3.738787    1.643739
     42          8           0       -4.136442   -3.269917    2.716326
     43          8           0       -2.942779   -4.765804    1.422197
     44          6           0       -2.562305   -5.450312    2.542648
     45          6           0        2.740795   -0.755355   -1.169891
     46          6           0        4.048757   -0.509172   -0.430352
     47          6           0        5.191594    0.073546   -0.998345
     48          6           0        5.247214    0.766167   -2.432211
     49          6           0        6.355327    0.332692   -0.170022
     50          6           0        7.581980   -0.571498   -0.653685
     51          6           0        8.829417   -0.381735    0.176138
     52          6           0       10.169141   -0.863227   -0.516818
     53          6           0       10.252266   -2.282188   -0.826411
     54          6           0       11.337558   -0.350725    0.237053
     55          6           0       12.752721   -0.729012   -0.416960
     56          6           0       13.959920    0.022098    0.264158
     57          6           0       15.331567   -0.360182   -0.298417
     58          6           0       15.775810   -1.762224   -0.262230
     59          6           0       16.352080    0.566778    0.467877
     60          6           0       17.707712    0.683099   -0.277207
     61          6           0       18.705128    1.755890    0.470835
     62          6           0       20.197537    1.787565   -0.002817
     63          6           0       20.274499    2.065559   -1.587740
     64          6           0       21.089717    2.712647    0.807259
     65          1           0       -4.100601    3.522430    1.762617
     66          1           0      -10.250715    4.041062   -0.408252
     67          1           0      -10.594487   -2.236063   -1.294368
     68          1           0       -3.056323   -1.220687    2.135222
     69          1           0       -2.328622    1.629783    1.313879
     70          1           0       -2.166364    0.506066    3.593141
     71          1           0       -2.910856    2.048422    3.772604
     72          1           0       -3.871426    0.425490    3.866830
     73          1           0       -2.326740   -1.655936   -0.514340
     74          1           0       -2.053141    0.280727   -0.458104
     75          1           0       -0.365530    0.263439    1.161903
     76          1           0       -0.413017   -1.552411    1.264478
     77          1           0       -4.541118    5.888323    1.026561
     78          1           0       -5.823045    6.830369    1.315168
     79          1           0       -5.142275    5.720544    2.494380
     80          1           0       -8.105213    7.070692    0.919480
     81          1           0       -9.718774    5.888707   -1.150783
     82          1           0       -9.836751    7.635053   -0.674922
     83          1           0      -12.698219    3.457237   -0.277584
     84          1           0      -12.411856    3.510154   -1.774723
     85          1           0      -13.449289    2.085240   -0.916248
     86          1           0      -12.581013   -1.349119   -0.925891
     87          1           0      -13.668377    0.299576   -1.238323
     88          1           0      -13.173794    0.433669   -3.523364
     89          1           0      -12.144155   -0.985656   -3.446468
     90          1           0      -13.677656   -1.431419   -3.027238
     91          1           0       -9.933723   -4.656147   -0.097941
     92          1           0       -9.456415   -4.601681   -1.952725
     93          1           0       -8.516954   -5.533474   -0.964097
     94          1           0       -3.792460   -3.351915   -0.549916
     95          1           0       -1.991709   -6.379021    2.197746
     96          1           0       -1.858430   -4.818039    3.108883
     97          1           0       -3.485686   -5.704487    3.135430
     98          1           0        2.647007   -1.720909   -1.555326
     99          1           0        2.602914   -0.135804   -1.992027
    100          1           0        3.959799   -0.898874    0.626443
    101          1           0        5.514566    1.839695   -2.229837
    102          1           0        6.029931    0.230935   -3.100819
    103          1           0        4.251192    0.663630   -2.869754
    104          1           0        6.582886    1.460081    0.110767
    105          1           0        6.270314   -0.167043    0.750255
    106          1           0        7.277665   -1.596566   -0.675097
    107          1           0        8.004276   -0.299968   -1.856493
    108          1           0        9.105353    0.679305    0.421131
    109          1           0        8.815817   -0.810662    1.250832
    110          1           0       10.239731   -0.414984   -1.611474
    111          1           0        9.435130   -2.850403   -1.613527
    112          1           0       11.230767   -2.844920   -1.199373
    113          1           0       10.198101   -2.898371    0.039562
    114          1           0       11.392357    0.792318    0.243081
    115          1           0       11.423628   -0.666249    1.490109
    116          1           0       12.929662   -1.864517   -0.576987
    117          1           0       12.795826   -0.465642   -1.585664
    118          1           0       13.733226    1.104931    0.306918
    119          1           0       13.881946   -0.279218    1.302041
    120          1           0       15.382183    0.075262   -1.389718
    121          1           0       15.098473   -2.479044   -0.937255
    122          1           0       16.569191   -1.835068   -0.686537
    123          1           0       15.856065   -2.166061    0.833464
    124          1           0       15.875819    1.677922    0.473446
    125          1           0       16.601874    0.018551    1.480647
    126          1           0       18.300647   -0.454715   -0.093715
    127          1           0       17.665991    0.900773   -1.402424
    128          1           0       18.110007    2.795372    0.513801
    129          1           0       18.867939    1.474833    1.555484
    130          1           0       20.593705    0.861885    0.281267
    131          1           0       19.727403    3.064815   -1.896198
    132          1           0       21.361844    2.256081   -1.990191
    133          1           0       19.786767    1.367175   -2.284462
    134          1           0       20.907280    2.377473    1.720199
    135          1           0       22.101087    2.615497    0.761816
    136          1           0       20.833124    3.725949    0.456882
    137          1           0       -7.238142    1.696239    0.119867
    138          1           0       -7.591546   -0.272328   -0.114364
 ---------------------------------------------------------------------

 SCF Done:  E(RB3LYP) =  -2733.06418532     A.U. after   17 cycles

 Excitation energies and oscillator strengths:

 Excited State   1:      Singlet-A      1.9392 eV  639.36 nm  f=0.1729  <S**2>=0.000
     235 -> 237       -0.16532
     235 -> 238        0.24188
     236 -> 237        0.62942
     236 -> 238        0.12314
 This state for optimization and/or second-order correction.
 Total Energy, E(TD-HF/TD-DFT) =  -2732.99292176
 Copying the excited state density for this state as the 1-particle RhoCI density.

 The electronic state is 1-A.
 Alpha  occ. eigenvalues --  -19.19447 -19.16023 -19.14224 -19.13771 -19.12928
 Alpha  occ. eigenvalues --  -14.37570 -14.36964 -14.32619 -14.29017 -10.32444
 Alpha  occ. eigenvalues --  -10.31859 -10.29346 -10.25297 -10.24481 -10.24234
 Alpha  occ. eigenvalues --  -10.23991 -10.23230 -10.23065 -10.22783 -10.22723
 Alpha  occ. eigenvalues --  -10.22057 -10.21599 -10.21488 -10.21357 -10.21280
 Alpha  occ. eigenvalues --  -10.21002 -10.20972 -10.20780 -10.20687 -10.20676
 Alpha  occ. eigenvalues --  -10.20667 -10.20631 -10.20610 -10.20535 -10.20469
 Alpha  occ. eigenvalues --  -10.20265 -10.20220 -10.20215 -10.20118 -10.20072
 Alpha  occ. eigenvalues --  -10.20054 -10.19948 -10.19944 -10.19834 -10.19738
 Alpha  occ. eigenvalues --  -10.19663 -10.19374 -10.19356 -10.19303 -10.19227
 Alpha  occ. eigenvalues --  -10.19149 -10.19068 -10.19004 -10.18964 -10.18941
 Alpha  occ. eigenvalues --  -10.18840 -10.18746 -10.18524 -10.18363 -10.17958
 Alpha  occ. eigenvalues --  -10.17884 -10.17394 -10.17255 -10.15892  -1.11905
 Alpha  occ. eigenvalues --   -1.09449  -1.05041  -1.01407  -1.00497  -0.98098
 Alpha  occ. eigenvalues --   -0.97687  -0.95190  -0.93607  -0.84231  -0.82233
 Alpha  occ. eigenvalues --   -0.82007  -0.81938  -0.81256  -0.81071  -0.80256
 Alpha  occ. eigenvalues --   -0.80015  -0.79361  -0.79353  -0.78506  -0.77299
 Alpha  occ. eigenvalues --   -0.76707  -0.75689  -0.75115  -0.74300  -0.73808
 Alpha  occ. eigenvalues --   -0.73530  -0.72866  -0.72103  -0.71466  -0.71232
 Alpha  occ. eigenvalues --   -0.70124  -0.69192  -0.68737  -0.67860  -0.67544
 Alpha  occ. eigenvalues --   -0.67459  -0.67015  -0.66780  -0.65299  -0.64119
 Alpha  occ. eigenvalues --   -0.63984  -0.62789  -0.62408  -0.61643  -0.61071
 Alpha  occ. eigenvalues --   -0.60654  -0.58849  -0.57945  -0.57910  -0.57268
 Alpha  occ. eigenvalues --   -0.56394  -0.56014  -0.55889  -0.55678  -0.55245
 Alpha  occ. eigenvalues --   -0.54812  -0.54257  -0.53679  -0.53651  -0.53329
 Alpha  occ. eigenvalues --   -0.52626  -0.52303  -0.51832  -0.51019  -0.50851
 Alpha  occ. eigenvalues --   -0.50331  -0.49644  -0.49479  -0.48952  -0.48449
 Alpha  occ. eigenvalues --   -0.47974  -0.47868  -0.47518  -0.47101  -0.47007
 Alpha  occ. eigenvalues --   -0.46724  -0.46530  -0.46371  -0.45921  -0.45837
 Alpha  occ. eigenvalues --   -0.45569  -0.45306  -0.44918  -0.44839  -0.44406
 Alpha  occ. eigenvalues --   -0.44232  -0.44012  -0.43831  -0.43758  -0.43645
 Alpha  occ. eigenvalues --   -0.43448  -0.43265  -0.43231  -0.42790  -0.42555
 Alpha  occ. eigenvalues --   -0.42335  -0.42092  -0.42006  -0.41741  -0.41510
 Alpha  occ. eigenvalues --   -0.41203  -0.41067  -0.40966  -0.40450  -0.40317
 Alpha  occ. eigenvalues --   -0.40039  -0.39835  -0.39766  -0.39701  -0.39621
 Alpha  occ. eigenvalues --   -0.39339  -0.39201  -0.39007  -0.38833  -0.38761
 Alpha  occ. eigenvalues --   -0.38143  -0.38093  -0.37943  -0.37778  -0.37714
 Alpha  occ. eigenvalues --   -0.37548  -0.37384  -0.37311  -0.37024  -0.36524
 Alpha  occ. eigenvalues --   -0.36271  -0.36149  -0.35904  -0.35728  -0.35679
 Alpha  occ. eigenvalues --   -0.35488  -0.35441  -0.35128  -0.35119  -0.34638
 Alpha  occ. eigenvalues --   -0.34464  -0.34422  -0.34027  -0.33788  -0.33525
 Alpha  occ. eigenvalues --   -0.33498  -0.33349  -0.33041  -0.32252  -0.32100
 Alpha  occ. eigenvalues --   -0.32045  -0.31596  -0.31512  -0.31027  -0.31011
 Alpha  occ. eigenvalues --   -0.30859  -0.30726  -0.30263  -0.30043  -0.29888
 Alpha  occ. eigenvalues --   -0.29772  -0.29565  -0.29036  -0.28353  -0.28329
 Alpha  occ. eigenvalues --   -0.27800  -0.27645  -0.27085  -0.26603  -0.26107
 Alpha  occ. eigenvalues --   -0.25716  -0.23781  -0.23602  -0.22296  -0.20083
 Alpha  occ. eigenvalues --   -0.18693
 Alpha virt. eigenvalues --   -0.10807  -0.07891  -0.04321  -0.02101  -0.01120
 Alpha virt. eigenvalues --   -0.00338  -0.00002   0.00328   0.01939   0.03463
 Alpha virt. eigenvalues --    0.03874   0.03982   0.04103   0.04622   0.04777

 Mulliken charges:
               1
     1  C    0.134463
     2  C   -0.046508
     3  C   -0.118020
     4  C   -0.052633
     5  N   -0.206321
     6  C   -0.084756
     7  C   -0.019012
     8  C   -0.093498
     9  C    0.050717
    10  C    0.022967
    11  C   -0.018563
    12  C    0.069679
    13  C    0.167344
    14  O   -0.156473
    15  O   -0.404620
    16  N   -0.113124
    17  C    0.078205
    18  C   -0.120924
    19  C    0.018728
    20  C    0.037657
    21  C    0.196406
    22  C   -0.073953
    23  C    0.023355
    24  N   -0.199974
    25  C    0.095725
    26  C   -0.122488
    27  C   -0.109569
    28  C    0.039054
    29  C    0.102604
    30  C    0.047556
    31  C    0.037862
    32  N   -0.016951
    33  C    0.114119
    34  C   -0.205364
    35  C    0.042370
    36  C   -0.005160
    37  C    0.074399
    38  C    0.104476
    39  O   -0.123777
    40  C   -0.132185
    41  C    0.202681
    42  O   -0.250361
    43  O   -0.239748
    44  C    0.154254
    45  C    0.335616
    46  C   -0.105704
    47  C   -0.150966
    48  C    0.060168
    49  C    0.095902
    50  C   -0.032454
    51  C    0.049404
    52  C   -0.041922
    53  C   -0.039047
    54  C   -0.026853
    55  C   -0.061976
    56  C    0.083232
    57  C   -0.104772
    58  C    0.165202
    59  C   -0.020934
    60  C   -0.071799
    61  C   -0.019955
    62  C   -0.044330
    63  C   -0.041229
    64  C    0.134298
    65  H   -0.040730
    66  H   -0.005389
    67  H   -0.043978
    68  H    0.053251
    69  H    0.018295
    70  H    0.001640
    71  H    0.024393
    72  H    0.042904
    73  H    0.048804
    74  H    0.017643
    75  H    0.034734
    76  H    0.032798
    77  H   -0.006011
    78  H   -0.010537
    79  H    0.004364
    80  H   -0.003324
    81  H   -0.039091
    82  H    0.044731
    83  H   -0.014596
    84  H    0.002074
    85  H    0.017989
    86  H    0.009411
    87  H    0.018759
    88  H    0.028422
    89  H   -0.032088
    90  H    0.012553
    91  H    0.047568
    92  H    0.033071
    93  H    0.029617
    94  H    0.067391
    95  H    0.043563
    96  H    0.022907
    97  H    0.043465
    98  H    0.007817
    99  H   -0.023588
   100  H    0.009398
   101  H    0.033201
   102  H    0.045245
   103  H    0.003911
   104  H    0.032427
   105  H   -0.026582
   106  H    0.008746
   107  H    0.013249
   108  H   -0.010344
   109  H    0.000416
   110  H    0.011105
   111  H    0.021940
   112  H    0.018432
   113  H   -0.020907
   114  H    0.012569
   115  H    0.017964
   116  H    0.014298
   117  H   -0.007912
   118  H   -0.009273
   119  H   -0.024562
   120  H   -0.006007
   121  H    0.011909
   122  H   -0.091754
   123  H    0.017072
   124  H    0.021744
   125  H    0.018947
   126  H    0.014656
   127  H    0.029197
   128  H    0.011963
   129  H   -0.003884
   130  H   -0.023694
   131  H    0.008692
   132  H    0.014923
   133  H    0.017668
   134  H   -0.041303
   135  H   -0.024310
   136  H    0.010152
   137  H    0.224346
   138  H    0.095016
 Sum of Mulliken charges =  -0.00000

 Dipole moment (field-independent basis, Debye):
    X=              1.8270    Y=              2.8054    Z=              1.3242  Tot=              3.6002
 Quadrupole moment (field-independent basis, Debye-Ang):
   XX=           -364.9475   YY=           -374.6504   ZZ=           -396.7861
   XY=            -21.2655   XZ=             11.2213   YZ=             -0.2772

 Normal termination of Gaussian 16 at Mon Aug 19 06:29:20 2019.
