 Gaussian 16, Revision A.03,
 Gaussian 16:  ES64L-G16RevA.03 25-Dec-2016

 --------------------------
 # td=(NStates=1) B3LYP/SVP
 --------------------------

 --
 TD
 --
 Symbolic Z-matrix:
 Charge =  0 Multiplicity = 1

                         Standard orientation:
 ---------------------------------------------------------------------
 Center     Atomic      Atomic             Coordinates (Angstroms)
 Number     Number       Type             X           Y           Z
 ---------------------------------------------------------------------
      1          6           0       -5.094456   -1.937382    0.664135
      2          6           0       -4.793240    2.884925    1.342795
      3          6           0       -9.463837    3.252598   -0.246393
      4          6           0       -9.749397   -1.546728   -0.960240
      5          7           0       -5.276729    0.492459    0.833357
      6          6           0       -4.514052   -0.697802    0.813668
      7          6           0       -3.070492   -0.422272    1.203499
      8          6           0       -3.022873    0.984630    1.829057
      9          6           0       -4.378516    1.470109    1.304714
     10          6           0       -2.897343    0.987333    3.368398
     11          6           0       -1.989190   -0.712921    0.058522
     12          6           0       -0.561781   -0.641394    0.635312
     13          6           0        0.319190   -0.921311   -0.602489
     14          8           0        0.070918   -1.443693   -1.571300
     15          8           0        1.609764   -0.621361   -0.168569
     16          7           0       -7.211337    2.725873    0.484615
     17          6           0       -6.015521    3.456713    1.066287
     18          6           0       -6.311421    4.795281    0.993830
     19          6           0       -7.672095    4.894727    0.485889
     20          6           0       -8.173540    3.524229    0.233512
     21          6           0       -5.325954    5.771628    1.362844
     22          6           0       -8.251182    6.222911    0.278785
     23          6           0       -9.226574    6.509435   -0.618275
     24          7           0       -9.199513    0.808645   -0.547581
     25          6           0       -9.850476    1.953720   -0.524987
     26          6           0      -11.285128    1.760418   -0.906434
     27          6           0      -11.421707    0.371017   -1.186473
     28          6           0      -10.078785   -0.118364   -0.895478
     29          6           0      -12.338877    2.810061   -1.092565
     30          6           0      -12.545813   -0.512577   -1.618831
     31          6           0      -12.627550   -0.606979   -3.183984
     32          7           0       -7.530280   -1.310807   -0.283065
     33          6           0       -8.569572   -2.131541   -0.676693
     34          6           0       -8.131340   -3.459733   -0.703611
     35          6           0       -6.800393   -3.427791   -0.128174
     36          6           0       -6.416094   -2.016315    0.081673
     37          6           0       -9.025059   -4.609656   -1.031358
     38          6           0       -5.634138   -4.301655    0.145696
     39          8           0       -5.566343   -5.524694    0.127155
     40          6           0       -4.444464   -3.280653    0.583474
     41          6           0       -3.933038   -3.714569    1.966627
     42          8           0       -4.190860   -3.237144    3.025727
     43          8           0       -3.071829   -4.809399    1.779641
     44          6           0       -2.491566   -5.254420    2.982955
     45          6           0        2.603795   -0.819530   -1.138106
     46          6           0        4.009142   -0.625969   -0.680109
     47          6           0        4.960560    0.157554   -1.066973
     48          6           0        4.930822    0.831628   -2.423154
     49          6           0        6.332412    0.143530   -0.340602
     50          6           0        7.497501   -0.307405   -1.138678
     51          6           0        8.800474   -0.220841   -0.488777
     52          6           0       10.050995   -0.659147   -1.283945
     53          6           0       10.058295   -2.240222   -1.616787
     54          6           0       11.263367   -0.223720   -0.408275
     55          6           0       12.663114   -0.667172   -0.924854
     56          6           0       13.842840   -0.150295    0.011915
     57          6           0       15.260581   -0.233660   -0.572686
     58          6           0       15.673134   -1.643689   -0.823845
     59          6           0       16.289437    0.520992    0.442423
     60          6           0       17.695143    0.639789   -0.139925
     61          6           0       18.590397    1.379572    0.917687
     62          6           0       20.108151    1.618191    0.404353
     63          6           0       20.154976    2.632309   -0.758036
     64          6           0       20.980485    2.005723    1.799607
     65          1           0       -4.191108    3.663162    1.888426
     66          1           0      -10.300537    3.974198   -0.354393
     67          1           0      -10.542525   -2.115462   -1.301867
     68          1           0       -2.867423   -1.228407    2.161519
     69          1           0       -2.255804    1.691040    1.210542
     70          1           0       -1.867551    0.594069    3.762590
     71          1           0       -3.239528    2.154562    3.676301
     72          1           0       -3.708663    0.449087    3.618543
     73          1           0       -2.323511   -1.617841   -0.345866
     74          1           0       -1.897966    0.115906   -0.681815
     75          1           0       -0.299932    0.273238    1.024725
     76          1           0       -0.425085   -1.451895    1.310567
     77          1           0       -4.268873    5.823028    0.902633
     78          1           0       -5.791280    6.754546    1.289697
     79          1           0       -5.359531    5.624338    2.633761
     80          1           0       -7.799709    7.231815    0.809578
     81          1           0       -9.580122    5.733948   -1.358764
     82          1           0       -9.437408    7.611464   -0.892884
     83          1           0      -12.551587    3.286627   -0.128112
     84          1           0      -11.995659    3.515231   -1.979365
     85          1           0      -13.258870    2.444067   -1.489049
     86          1           0      -12.490649   -1.451585   -0.903372
     87          1           0      -13.427612   -0.129454   -1.304828
     88          1           0      -12.659282    0.317841   -3.575041
     89          1           0      -11.697947   -0.992366   -3.564777
     90          1           0      -13.444397   -1.166362   -3.533177
     91          1           0       -9.837847   -4.353238   -0.504975
     92          1           0       -9.227146   -4.529855   -2.099592
     93          1           0       -8.630028   -5.457020   -0.476888
     94          1           0       -3.661208   -3.400419   -0.127528
     95          1           0       -1.715862   -6.086558    2.811388
     96          1           0       -1.881161   -4.378228    3.362194
     97          1           0       -3.310746   -5.702152    3.799297
     98          1           0        2.574876   -1.744049   -1.706976
     99          1           0        2.414534   -0.193847   -1.998087
    100          1           0        4.367694   -1.150968    0.268464
    101          1           0        5.566961    1.906137   -2.215745
    102          1           0        5.381317    0.133996   -3.192014
    103          1           0        3.888757    1.154053   -2.664281
    104          1           0        6.444892    1.205684   -0.292255
    105          1           0        6.160443   -0.484565    0.636654
    106          1           0        7.395001   -1.470801   -1.412834
    107          1           0        7.663557    0.461055   -2.026556
    108          1           0        8.738228    0.682720    0.187037
    109          1           0        8.737682   -0.917933    0.462781
    110          1           0       10.106586   -0.088516   -2.261753
    111          1           0        8.997669   -2.574108   -2.123475
    112          1           0       10.899785   -2.374118   -2.292541
    113          1           0       10.122455   -2.706075   -0.450855
    114          1           0       11.146760    1.040144   -0.146205
    115          1           0       10.942027   -0.587149    0.609164
    116          1           0       12.767460   -1.634406   -1.043205
    117          1           0       12.708455   -0.185970   -2.097429
    118          1           0       13.707924    0.875657    0.472823
    119          1           0       13.936611   -0.595748    0.870047
    120          1           0       15.559619    0.268563   -1.578666
    121          1           0       15.072714   -2.286847   -1.590724
    122          1           0       16.728761   -1.697494   -1.158679
    123          1           0       15.762199   -2.450071    0.101966
    124          1           0       16.097858    1.426446    0.441359
    125          1           0       16.541347    0.284708    1.486590
    126          1           0       18.220302   -0.250598   -0.415765
    127          1           0       18.029201    1.320108   -1.186725
    128          1           0       18.274064    2.307624    1.146960
    129          1           0       18.555512    1.035694    1.922793
    130          1           0       20.468180    0.536276   -0.014408
    131          1           0       19.884415    3.685127   -0.615404
    132          1           0       21.194161    2.694017   -1.212355
    133          1           0       19.861910    2.164734   -1.763589
    134          1           0       20.952508    1.253611    2.717979
    135          1           0       22.124613    2.593727    1.621989
    136          1           0       20.706205    2.878894    2.644565
    137          1           0       -7.195131    1.786468    0.650206
    138          1           0       -7.725817   -0.262220   -0.154339
 ---------------------------------------------------------------------

 SCF Done:  E(RB3LYP) =  -2732.91995811     A.U. after   18 cycles

 Excitation energies and oscillator strengths:

 Excited State   1:      Singlet-A      1.8928 eV  655.05 nm  f=0.1864  <S**2>=0.000
     235 -> 238        0.24831
     236 -> 237        0.65210
 This state for optimization and/or second-order correction.
 Total Energy, E(TD-HF/TD-DFT) =  -2732.85040075
 Copying the excited state density for this state as the 1-particle RhoCI density.

 The electronic state is 1-A.
 Alpha  occ. eigenvalues --  -19.17261 -19.16873 -19.14479 -19.13667 -19.12344
 Alpha  occ. eigenvalues --  -14.36451 -14.36207 -14.33453 -14.29782 -10.31925
 Alpha  occ. eigenvalues --  -10.31394 -10.28299 -10.25490 -10.24349 -10.24211
 Alpha  occ. eigenvalues --  -10.24171 -10.23781 -10.23171 -10.23141 -10.22680
 Alpha  occ. eigenvalues --  -10.22269 -10.22052 -10.21905 -10.21805 -10.21789
 Alpha  occ. eigenvalues --  -10.21773 -10.21599 -10.21408 -10.21285 -10.21244
 Alpha  occ. eigenvalues --  -10.21181 -10.21024 -10.20824 -10.20735 -10.20690
 Alpha  occ. eigenvalues --  -10.20365 -10.20221 -10.20213 -10.20205 -10.20183
 Alpha  occ. eigenvalues --  -10.20002 -10.19982 -10.19731 -10.19643 -10.19625
 Alpha  occ. eigenvalues --  -10.19617 -10.19482 -10.19450 -10.19412 -10.19352
 Alpha  occ. eigenvalues --  -10.19334 -10.19254 -10.19041 -10.18991 -10.18911
 Alpha  occ. eigenvalues --  -10.18862 -10.18574 -10.18466 -10.18427 -10.17801
 Alpha  occ. eigenvalues --  -10.17639 -10.17354 -10.17048 -10.17024  -1.12178
 Alpha  occ. eigenvalues --   -1.09094  -1.03511  -1.01901  -1.01598  -0.98451
 Alpha  occ. eigenvalues --   -0.97535  -0.94897  -0.92651  -0.84523  -0.83147
 Alpha  occ. eigenvalues --   -0.83040  -0.81517  -0.81231  -0.80773  -0.80417
 Alpha  occ. eigenvalues --   -0.80168  -0.79565  -0.78884  -0.78573  -0.77939
 Alpha  occ. eigenvalues --   -0.76655  -0.76129  -0.75634  -0.74561  -0.74420
 Alpha  occ. eigenvalues --   -0.73230  -0.72809  -0.72519  -0.71169  -0.70991
 Alpha  occ. eigenvalues --   -0.70097  -0.69346  -0.68284  -0.67580  -0.67360
 Alpha  occ. eigenvalues --   -0.67159  -0.66398  -0.65998  -0.65538  -0.64940
 Alpha  occ. eigenvalues --   -0.64351  -0.63331  -0.63069  -0.62111  -0.61569
 Alpha  occ. eigenvalues --   -0.61544  -0.58857  -0.58701  -0.57622  -0.57366
 Alpha  occ. eigenvalues --   -0.56350  -0.56100  -0.55788  -0.55298  -0.55155
 Alpha  occ. eigenvalues --   -0.54598  -0.54406  -0.54239  -0.53571  -0.52852
 Alpha  occ. eigenvalues --   -0.52449  -0.51994  -0.51128  -0.50965  -0.50781
 Alpha  occ. eigenvalues --   -0.49978  -0.49030  -0.48943  -0.48747  -0.48191
 Alpha  occ. eigenvalues --   -0.47682  -0.47628  -0.47373  -0.47143  -0.46877
 Alpha  occ. eigenvalues --   -0.46554  -0.46314  -0.46147  -0.45937  -0.45696
 Alpha  occ. eigenvalues --   -0.45569  -0.45291  -0.44960  -0.44857  -0.44589
 Alpha  occ. eigenvalues --   -0.44433  -0.44227  -0.44051  -0.43904  -0.43800
 Alpha  occ. eigenvalues --   -0.43579  -0.43049  -0.42858  -0.42804  -0.42491
 Alpha  occ. eigenvalues --   -0.42143  -0.42110  -0.41724  -0.41492  -0.41457
 Alpha  occ. eigenvalues --   -0.41335  -0.41138  -0.40737  -0.40615  -0.40404
 Alpha  occ. eigenvalues --   -0.40144  -0.40136  -0.40055  -0.39875  -0.39715
 Alpha  occ. eigenvalues --   -0.39582  -0.39188  -0.39111  -0.39104  -0.38695
 Alpha  occ. eigenvalues --   -0.38243  -0.38169  -0.38076  -0.37729  -0.37571
 Alpha  occ. eigenvalues --   -0.37285  -0.37189  -0.37126  -0.36957  -0.36839
 Alpha  occ. eigenvalues --   -0.36295  -0.36038  -0.35978  -0.35687  -0.35491
 Alpha  occ. eigenvalues --   -0.35251  -0.35145  -0.34774  -0.34612  -0.34510
 Alpha  occ. eigenvalues --   -0.34350  -0.34213  -0.34176  -0.33756  -0.33526
 Alpha  occ. eigenvalues --   -0.33438  -0.33217  -0.32869  -0.32733  -0.32585
 Alpha  occ. eigenvalues --   -0.32145  -0.32046  -0.31674  -0.31363  -0.31136
 Alpha  occ. eigenvalues --   -0.30677  -0.30290  -0.30106  -0.29999  -0.29974
 Alpha  occ. eigenvalues --   -0.29906  -0.29739  -0.29049  -0.28966  -0.28499
 Alpha  occ. eigenvalues --   -0.28252  -0.27281  -0.26925  -0.26117  -0.25519
 Alpha  occ. eigenvalues --   -0.25181  -0.24909  -0.23271  -0.22592  -0.20279
 Alpha  occ. eigenvalues --   -0.18322
 Alpha virt. eigenvalues --   -0.10568  -0.08060  -0.04685  -0.02168  -0.00226
 Alpha virt. eigenvalues --    0.00157   0.00415   0.01671   0.01961   0.02962
 Alpha virt. eigenvalues --    0.03523   0.03931   0.03967   0.04248   0.04460

 Mulliken charges:
               1
     1  C   -0.029703
     2  C   -0.052565
     3  C   -0.163829
     4  C   -0.080461
     5  N   -0.230436
     6  C    0.040550
     7  C   -0.145897
     8  C   -0.042749
     9  C   -0.032302
    10  C    0.085231
    11  C    0.090257
    12  C    0.107314
    13  C    0.125361
    14  O   -0.126681
    15  O   -0.330782
    16  N   -0.012904
    17  C    0.060994
    18  C   -0.086255
    19  C    0.011304
    20  C    0.152577
    21  C    0.026198
    22  C   -0.091089
    23  C   -0.086982
    24  N   -0.165568
    25  C    0.061159
    26  C   -0.193701
    27  C   -0.113294
    28  C    0.010418
    29  C    0.096386
    30  C    0.084281
    31  C    0.118726
    32  N   -0.085998
    33  C    0.137337
    34  C   -0.188885
    35  C   -0.072511
    36  C    0.113784
    37  C    0.235607
    38  C    0.087618
    39  O   -0.171531
    40  C   -0.052224
    41  C    0.214563
    42  O   -0.187498
    43  O   -0.316997
    44  C    0.119858
    45  C    0.342155
    46  C   -0.093268
    47  C   -0.192134
    48  C   -0.000799
    49  C    0.110590
    50  C   -0.010199
    51  C   -0.021577
    52  C   -0.041534
    53  C   -0.053999
    54  C   -0.052776
    55  C    0.106190
    56  C    0.144611
    57  C   -0.062148
    58  C   -0.047930
    59  C    0.177417
    60  C   -0.061605
    61  C    0.054043
    62  C   -0.081239
    63  C    0.015941
    64  C   -0.119412
    65  H   -0.002070
    66  H   -0.002338
    67  H   -0.062024
    68  H    0.046966
    69  H    0.023174
    70  H    0.055376
    71  H    0.026027
    72  H    0.004790
    73  H   -0.002095
    74  H    0.011139
    75  H    0.003860
    76  H    0.019907
    77  H    0.069156
    78  H   -0.004071
    79  H    0.050166
    80  H    0.042881
    81  H    0.041857
    82  H    0.036346
    83  H    0.035197
    84  H    0.037665
    85  H   -0.007279
    86  H    0.019694
    87  H   -0.044861
    88  H   -0.026371
    89  H   -0.003715
    90  H    0.004107
    91  H   -0.018089
    92  H    0.033862
    93  H    0.029302
    94  H    0.050125
    95  H    0.039547
    96  H    0.024567
    97  H    0.056039
    98  H    0.001453
    99  H   -0.041144
   100  H   -0.021331
   101  H    0.018352
   102  H    0.062655
   103  H    0.030938
   104  H   -0.015328
   105  H    0.015480
   106  H    0.012373
   107  H    0.011369
   108  H   -0.017856
   109  H   -0.029181
   110  H    0.000856
   111  H    0.047051
   112  H    0.037612
   113  H    0.039496
   114  H    0.015810
   115  H   -0.004507
   116  H   -0.030041
   117  H    0.013583
   118  H   -0.019972
   119  H   -0.064057
   120  H    0.010848
   121  H    0.023429
   122  H    0.004632
   123  H    0.004757
   124  H   -0.079204
   125  H    0.001015
   126  H   -0.011613
   127  H    0.005121
   128  H   -0.047066
   129  H   -0.029816
   130  H    0.028305
   131  H    0.031419
   132  H   -0.002210
   133  H    0.020003
   134  H    0.036612
   135  H    0.029976
   136  H    0.011109
   137  H    0.108380
   138  H    0.170846
 Sum of Mulliken charges =  -0.00000

 Dipole moment (field-independent basis, Debye):
    X=              0.9372    Y=              4.7438    Z=             -0.1154  Tot=              4.8368
 Quadrupole moment (field-independent basis, Debye-Ang):
   XX=           -356.1556   YY=           -392.0831   ZZ=           -392.6073
   XY=            -19.0416   XZ=              9.3072   YZ=              0.6407

 Normal termination of Gaussian 16 at Sat Aug 24 04:25:51 2019.
