 Gaussian 16, Revision A.03,
 Gaussian 16:  ES64L-G16RevA.03 25-Dec-2016

 --------------------------
 # td=(NStates=1) B3LYP/SVP
 --------------------------

 --
 TD
 --
 Symbolic Z-matrix:
 Charge =  0 Multiplicity = 1

                         Standard orientation:
 ---------------------------------------------------------------------
 Center     Atomic      Atomic             Coordinates (Angstroms)
 Number     Number       Type             X           Y           Z
 ---------------------------------------------------------------------
      1          6           0       -5.136798   -1.848752    0.512228
      2          6           0       -4.652553    2.825072    1.396052
      3          6           0       -9.345797    3.316337   -0.255359
      4          6           0       -9.908244   -1.411309   -1.041183
      5          7           0       -5.149312    0.535835    0.797890
      6          6           0       -4.495800   -0.680005    0.853748
      7          6           0       -3.007608   -0.526427    1.338163
      8          6           0       -3.006736    0.926227    1.837293
      9          6           0       -4.308462    1.523212    1.289781
     10          6           0       -2.958019    1.037847    3.296366
     11          6           0       -2.062338   -0.790974    0.053609
     12          6           0       -0.595620   -0.849271    0.508879
     13          6           0        0.364759   -1.039979   -0.667068
     14          8           0        0.008160   -1.277106   -1.812572
     15          8           0        1.679580   -1.113335   -0.321967
     16          7           0       -6.967947    2.723323    0.470964
     17          6           0       -5.899422    3.375139    0.919481
     18          6           0       -6.224968    4.803791    1.068811
     19          6           0       -7.435832    4.993394    0.559795
     20          6           0       -8.038640    3.650045    0.219748
     21          6           0       -5.256728    5.820561    1.519655
     22          6           0       -8.086346    6.264410    0.322259
     23          6           0       -9.237076    6.642174   -0.371093
     24          7           0       -9.224594    0.887519   -0.549686
     25          6           0       -9.971776    2.115986   -0.555662
     26          6           0      -11.263032    1.876053   -1.049918
     27          6           0      -11.398929    0.522792   -1.198754
     28          6           0      -10.099746   -0.026286   -0.834930
     29          6           0      -12.330012    2.952197   -1.415379
     30          6           0      -12.614781   -0.236318   -1.627111
     31          6           0      -12.665655   -0.682473   -3.118718
     32          7           0       -7.528641   -1.169302   -0.303838
     33          6           0       -8.550413   -2.006618   -0.595137
     34          6           0       -8.190400   -3.427507   -0.578191
     35          6           0       -6.894937   -3.335704   -0.112110
     36          6           0       -6.469447   -2.035393    0.067051
     37          6           0       -9.038537   -4.545956   -1.132720
     38          6           0       -5.715698   -4.240131    0.173930
     39          8           0       -5.597864   -5.478248    0.243361
     40          6           0       -4.503665   -3.244053    0.595450
     41          6           0       -3.888121   -3.704722    1.945540
     42          8           0       -4.203730   -3.251501    2.974770
     43          8           0       -2.986187   -4.667783    1.750664
     44          6           0       -2.690046   -5.341403    2.936801
     45          6           0        2.705059   -1.293563   -1.211779
     46          6           0        3.961674   -0.927280   -0.497356
     47          6           0        4.949621   -0.115351   -0.990617
     48          6           0        4.775784    0.705800   -2.283248
     49          6           0        6.308053   -0.108030   -0.282706
     50          6           0        7.603251   -0.707252   -1.101032
     51          6           0        8.827215   -0.439347   -0.234824
     52          6           0       10.063221   -0.917679   -0.992661
     53          6           0       10.144032   -2.402095   -1.215327
     54          6           0       11.348210   -0.444276   -0.109828
     55          6           0       12.701284   -0.592667   -0.688739
     56          6           0       13.813707   -0.164379    0.178184
     57          6           0       15.217254   -0.139730   -0.555126
     58          6           0       15.657626   -1.568637   -0.694260
     59          6           0       16.258614    0.668209    0.461185
     60          6           0       17.705333    0.889715   -0.252650
     61          6           0       18.493827    1.718149    0.710109
     62          6           0       19.993961    1.839326    0.248384
     63          6           0       20.115646    2.657164   -1.128421
     64          6           0       20.786173    2.499083    1.373209
     65          1           0       -4.090292    3.561001    1.886178
     66          1           0       -9.826024    4.173839   -0.210052
     67          1           0      -10.729666   -2.160768   -1.451291
     68          1           0       -2.848855   -1.144907    2.243188
     69          1           0       -1.973410    1.413174    1.635666
     70          1           0       -2.070166    0.717169    3.760571
     71          1           0       -2.919028    2.158139    3.636984
     72          1           0       -3.710415    0.242472    3.536282
     73          1           0       -2.297231   -1.710290   -0.419047
     74          1           0       -2.154261   -0.087597   -0.681997
     75          1           0       -0.281241    0.108687    1.160817
     76          1           0       -0.319751   -1.787874    1.013306
     77          1           0       -4.201352    5.787163    0.991942
     78          1           0       -5.570507    6.795874    1.210961
     79          1           0       -5.203663    5.584940    2.702921
     80          1           0       -7.604618    7.078616    0.795693
     81          1           0       -9.541189    5.967978   -1.270058
     82          1           0       -9.572412    7.581359   -0.513485
     83          1           0      -12.487944    3.561855   -0.500533
     84          1           0      -11.880026    3.822909   -2.096230
     85          1           0      -13.268582    2.638440   -1.973151
     86          1           0      -12.585463   -1.103784   -0.853963
     87          1           0      -13.512540    0.323961   -1.479309
     88          1           0      -12.796268    0.220985   -3.807019
     89          1           0      -11.798957   -1.122368   -3.460300
     90          1           0      -13.469369   -1.396118   -3.564886
     91          1           0      -10.303215   -4.536547   -0.784195
     92          1           0       -8.854890   -4.396730   -2.239587
     93          1           0       -8.442852   -5.434585   -0.795545
     94          1           0       -3.630669   -3.377297   -0.199264
     95          1           0       -1.691642   -6.033161    2.564389
     96          1           0       -2.143941   -4.606830    3.702840
     97          1           0       -3.487413   -5.992899    3.303997
     98          1           0        2.575949   -2.521590   -1.655948
     99          1           0        2.364760   -0.822431   -2.150938
    100          1           0        4.325880   -1.467734    0.397132
    101          1           0        5.150566    1.679325   -1.990182
    102          1           0        5.604125    0.457347   -2.880970
    103          1           0        3.680602    0.800435   -3.067999
    104          1           0        6.469336    0.971273    0.103090
    105          1           0        6.171749   -0.736710    0.675123
    106          1           0        7.409969   -1.838136   -1.230454
    107          1           0        7.729813   -0.451038   -2.117846
    108          1           0        9.054884    0.662021   -0.030347
    109          1           0        8.759042   -1.004601    0.704794
    110          1           0       10.142131   -0.262697   -1.751013
    111          1           0        9.256458   -2.568144   -1.801545
    112          1           0       10.988138   -2.568983   -1.777691
    113          1           0        9.911378   -3.217941   -0.249392
    114          1           0       11.260494    0.641452    0.220532
    115          1           0       11.356829   -1.019776    0.997791
    116          1           0       12.983505   -1.559776   -0.980658
    117          1           0       12.722488   -0.205948   -1.693157
    118          1           0       13.343284    0.837826    0.529379
    119          1           0       13.981451   -0.714656    1.083874
    120          1           0       15.174748    0.612510   -1.593105
    121          1           0       14.838810   -2.051141   -1.182464
    122          1           0       16.603227   -1.633467   -1.171312
    123          1           0       15.727543   -1.928119    0.311431
    124          1           0       16.075357    1.566266    0.811447
    125          1           0       16.495241   -0.025326    1.409010
    126          1           0       18.003617   -0.232688   -0.771655
    127          1           0       17.506857    1.465512   -1.172274
    128          1           0       17.982183    2.678180    0.599944
    129          1           0       18.346152    1.174516    1.779009
    130          1           0       20.353807    0.833004   -0.262854
    131          1           0       19.577680    3.748709   -0.840303
    132          1           0       21.160628    2.648960   -1.408815
    133          1           0       19.434414    2.190747   -1.905454
    134          1           0       20.934127    1.740690    2.234602
    135          1           0       21.827832    2.788824    1.123926
    136          1           0       20.224973    3.432259    1.764183
    137          1           0       -7.058971    1.699012    0.237654
    138          1           0       -7.402148   -0.157329   -0.286543
 ---------------------------------------------------------------------

 SCF Done:  E(RB3LYP) =  -2733.01946889     A.U. after   16 cycles

 Excitation energies and oscillator strengths:

 Excited State   1:      Singlet-A      1.9621 eV  631.89 nm  f=0.1812  <S**2>=0.000
     235 -> 237       -0.14725
     235 -> 238       -0.28916
     236 -> 237        0.62191
 This state for optimization and/or second-order correction.
 Total Energy, E(TD-HF/TD-DFT) =  -2732.94736233
 Copying the excited state density for this state as the 1-particle RhoCI density.

 The electronic state is 1-A.
 Alpha  occ. eigenvalues --  -19.18307 -19.16778 -19.12833 -19.12803 -19.12117
 Alpha  occ. eigenvalues --  -14.37895 -14.37587 -14.32563 -14.29414 -10.31511
 Alpha  occ. eigenvalues --  -10.31475 -10.28826 -10.26252 -10.25754 -10.24449
 Alpha  occ. eigenvalues --  -10.24428 -10.24149 -10.23402 -10.23000 -10.22688
 Alpha  occ. eigenvalues --  -10.22420 -10.21989 -10.21824 -10.21801 -10.21685
 Alpha  occ. eigenvalues --  -10.21675 -10.21348 -10.21326 -10.21156 -10.21126
 Alpha  occ. eigenvalues --  -10.20929 -10.20874 -10.20792 -10.20624 -10.20581
 Alpha  occ. eigenvalues --  -10.20418 -10.20382 -10.20273 -10.20175 -10.20041
 Alpha  occ. eigenvalues --  -10.20034 -10.19880 -10.19719 -10.19605 -10.19505
 Alpha  occ. eigenvalues --  -10.19349 -10.19327 -10.19281 -10.19237 -10.19130
 Alpha  occ. eigenvalues --  -10.18985 -10.18919 -10.18892 -10.18803 -10.18719
 Alpha  occ. eigenvalues --  -10.18656 -10.18622 -10.18614 -10.18497 -10.18278
 Alpha  occ. eigenvalues --  -10.17958 -10.17825 -10.17288 -10.16567  -1.11821
 Alpha  occ. eigenvalues --   -1.09433  -1.03194  -1.01195  -1.00269  -0.98300
 Alpha  occ. eigenvalues --   -0.97777  -0.93791  -0.93038  -0.84373  -0.82910
 Alpha  occ. eigenvalues --   -0.82672  -0.81430  -0.81106  -0.81015  -0.80547
 Alpha  occ. eigenvalues --   -0.80073  -0.79691  -0.78960  -0.78810  -0.77825
 Alpha  occ. eigenvalues --   -0.76439  -0.76084  -0.75015  -0.74740  -0.74074
 Alpha  occ. eigenvalues --   -0.73525  -0.72689  -0.72424  -0.72104  -0.70722
 Alpha  occ. eigenvalues --   -0.69974  -0.68549  -0.68460  -0.67994  -0.67201
 Alpha  occ. eigenvalues --   -0.66975  -0.66557  -0.66109  -0.65941  -0.65036
 Alpha  occ. eigenvalues --   -0.64331  -0.62953  -0.62597  -0.61973  -0.61035
 Alpha  occ. eigenvalues --   -0.60863  -0.58950  -0.58503  -0.57795  -0.56887
 Alpha  occ. eigenvalues --   -0.56832  -0.56556  -0.56248  -0.56041  -0.55470
 Alpha  occ. eigenvalues --   -0.55438  -0.54845  -0.53555  -0.53408  -0.52681
 Alpha  occ. eigenvalues --   -0.52477  -0.51617  -0.51091  -0.50863  -0.50214
 Alpha  occ. eigenvalues --   -0.49627  -0.49362  -0.48910  -0.48470  -0.48255
 Alpha  occ. eigenvalues --   -0.48068  -0.47818  -0.47678  -0.47308  -0.46777
 Alpha  occ. eigenvalues --   -0.46688  -0.46568  -0.46320  -0.45792  -0.45656
 Alpha  occ. eigenvalues --   -0.45414  -0.45128  -0.45111  -0.44945  -0.44712
 Alpha  occ. eigenvalues --   -0.44303  -0.44248  -0.43864  -0.43633  -0.43243
 Alpha  occ. eigenvalues --   -0.42980  -0.42958  -0.42796  -0.42690  -0.42563
 Alpha  occ. eigenvalues --   -0.42250  -0.41883  -0.41679  -0.41246  -0.41157
 Alpha  occ. eigenvalues --   -0.41001  -0.40640  -0.40618  -0.40458  -0.40388
 Alpha  occ. eigenvalues --   -0.40194  -0.39806  -0.39651  -0.39419  -0.39391
 Alpha  occ. eigenvalues --   -0.39270  -0.38840  -0.38713  -0.38444  -0.38345
 Alpha  occ. eigenvalues --   -0.38240  -0.38149  -0.37868  -0.37680  -0.37600
 Alpha  occ. eigenvalues --   -0.37529  -0.37256  -0.37141  -0.37029  -0.36776
 Alpha  occ. eigenvalues --   -0.36511  -0.36456  -0.36187  -0.36095  -0.35759
 Alpha  occ. eigenvalues --   -0.35640  -0.35477  -0.35379  -0.35063  -0.34900
 Alpha  occ. eigenvalues --   -0.34674  -0.34557  -0.34205  -0.34106  -0.33938
 Alpha  occ. eigenvalues --   -0.33720  -0.33390  -0.33255  -0.32811  -0.32680
 Alpha  occ. eigenvalues --   -0.32473  -0.32215  -0.31770  -0.31296  -0.31289
 Alpha  occ. eigenvalues --   -0.31201  -0.31090  -0.30712  -0.30029  -0.29583
 Alpha  occ. eigenvalues --   -0.29190  -0.28723  -0.28461  -0.27703  -0.27614
 Alpha  occ. eigenvalues --   -0.27178  -0.26828  -0.26698  -0.26602  -0.25884
 Alpha  occ. eigenvalues --   -0.25055  -0.24243  -0.23977  -0.22562  -0.19571
 Alpha  occ. eigenvalues --   -0.18850
 Alpha virt. eigenvalues --   -0.10649  -0.07876  -0.04674  -0.02960  -0.00787
 Alpha virt. eigenvalues --   -0.00092   0.00499   0.00820   0.01715   0.03205
 Alpha virt. eigenvalues --    0.03356   0.03830   0.04250   0.04463   0.04597

 Mulliken charges:
               1
     1  C    0.071936
     2  C   -0.061210
     3  C    0.026398
     4  C   -0.136291
     5  N   -0.232661
     6  C   -0.116852
     7  C   -0.016202
     8  C   -0.053912
     9  C    0.120976
    10  C    0.045859
    11  C    0.161202
    12  C   -0.006911
    13  C    0.163478
    14  O   -0.249027
    15  O   -0.288247
    16  N   -0.062544
    17  C    0.061483
    18  C   -0.154331
    19  C    0.104610
    20  C    0.000499
    21  C    0.048380
    22  C   -0.072738
    23  C   -0.009377
    24  N   -0.252595
    25  C    0.120305
    26  C   -0.086021
    27  C   -0.126647
    28  C    0.090879
    29  C    0.052799
    30  C    0.075637
    31  C    0.002316
    32  N   -0.037470
    33  C    0.038534
    34  C   -0.161515
    35  C   -0.008862
    36  C    0.084259
    37  C    0.021210
    38  C    0.111529
    39  O   -0.198514
    40  C   -0.120654
    41  C    0.175115
    42  O   -0.177346
    43  O   -0.260238
    44  C    0.100571
    45  C    0.194743
    46  C   -0.024622
    47  C   -0.171501
    48  C    0.094868
    49  C    0.014789
    50  C    0.013126
    51  C    0.025097
    52  C   -0.029463
    53  C    0.086925
    54  C   -0.069934
    55  C    0.146408
    56  C    0.006955
    57  C   -0.154826
    58  C    0.141874
    59  C    0.042093
    60  C   -0.082081
    61  C    0.039703
    62  C   -0.127006
    63  C   -0.047480
    64  C    0.037588
    65  H   -0.056874
    66  H   -0.109249
    67  H    0.041359
    68  H    0.014083
    69  H   -0.006924
    70  H   -0.010847
    71  H    0.023592
    72  H    0.030810
    73  H   -0.008308
    74  H   -0.011313
    75  H    0.054788
    76  H    0.037713
    77  H    0.049115
    78  H    0.010031
    79  H    0.064529
    80  H   -0.020430
    81  H    0.041669
    82  H   -0.009064
    83  H    0.021369
    84  H    0.018110
    85  H    0.037510
    86  H    0.022248
    87  H   -0.008261
    88  H    0.008553
    89  H   -0.012971
    90  H    0.017614
    91  H    0.074162
    92  H    0.057888
    93  H    0.056148
    94  H    0.080816
    95  H    0.037503
    96  H    0.050396
    97  H    0.058947
    98  H    0.018580
    99  H    0.010027
   100  H   -0.010362
   101  H   -0.009220
   102  H   -0.014681
   103  H    0.071480
   104  H    0.024329
   105  H    0.014959
   106  H    0.020305
   107  H   -0.007301
   108  H    0.006659
   109  H   -0.003937
   110  H   -0.041847
   111  H   -0.015796
   112  H   -0.004052
   113  H    0.037475
   114  H   -0.006735
   115  H   -0.006205
   116  H   -0.052980
   117  H   -0.037495
   118  H   -0.013022
   119  H   -0.014838
   120  H    0.017858
   121  H   -0.001982
   122  H    0.005307
   123  H   -0.005773
   124  H   -0.049880
   125  H    0.003024
   126  H    0.012380
   127  H   -0.003191
   128  H    0.006310
   129  H    0.026478
   130  H    0.014561
   131  H    0.013667
   132  H    0.025929
   133  H    0.029206
   134  H    0.019155
   135  H    0.005528
   136  H    0.021941
   137  H    0.165025
   138  H    0.149338
 Sum of Mulliken charges =  -0.00000

 Dipole moment (field-independent basis, Debye):
    X=              3.0831    Y=              4.1495    Z=             -0.2546  Tot=              5.1758
 Quadrupole moment (field-independent basis, Debye-Ang):
   XX=           -363.8356   YY=           -382.4487   ZZ=           -396.5383
   XY=            -22.2817   XZ=             10.2042   YZ=              0.4504

 Normal termination of Gaussian 16 at Thu Aug 15 02:02:52 2019.
