 Gaussian 16, Revision A.03,
 Gaussian 16:  ES64L-G16RevA.03 25-Dec-2016

 --------------------------
 # td=(NStates=1) B3LYP/SVP
 --------------------------

 --
 TD
 --
 Symbolic Z-matrix:
 Charge =  0 Multiplicity = 1

                         Standard orientation:
 ---------------------------------------------------------------------
 Center     Atomic      Atomic             Coordinates (Angstroms)
 Number     Number       Type             X           Y           Z
 ---------------------------------------------------------------------
      1          6           0       -5.047087   -2.002891    0.508612
      2          6           0       -4.670947    2.817235    1.435502
      3          6           0       -9.229466    3.179412   -0.245696
      4          6           0       -9.793553   -1.638888   -0.925160
      5          7           0       -5.147328    0.536970    0.824042
      6          6           0       -4.455707   -0.671195    0.897925
      7          6           0       -3.093393   -0.443258    1.312337
      8          6           0       -3.119559    0.962332    1.857142
      9          6           0       -4.340978    1.474044    1.419375
     10          6           0       -2.794367    0.917993    3.456165
     11          6           0       -2.119497   -0.633169    0.226631
     12          6           0       -0.539102   -0.562601    0.489882
     13          6           0        0.298428   -0.884642   -0.669019
     14          8           0       -0.038659   -1.355282   -1.753289
     15          8           0        1.585539   -0.463129   -0.318903
     16          7           0       -6.958726    2.675456    0.585067
     17          6           0       -5.919333    3.364768    1.052739
     18          6           0       -6.237524    4.764355    1.033607
     19          6           0       -7.493831    4.837836    0.451048
     20          6           0       -7.939666    3.583783    0.176911
     21          6           0       -5.334681    5.739112    1.627297
     22          6           0       -8.205738    6.164522    0.385193
     23          6           0       -9.100519    6.497176   -0.496457
     24          7           0       -9.258850    0.702062   -0.345767
     25          6           0       -9.764096    1.881817   -0.451461
     26          6           0      -11.156488    1.746742   -0.937461
     27          6           0      -11.359313    0.349094   -1.095110
     28          6           0      -10.132334   -0.232384   -0.869008
     29          6           0      -12.198329    2.845964   -1.066477
     30          6           0      -12.541681   -0.386027   -1.681804
     31          6           0      -12.561265   -0.514673   -3.293560
     32          7           0       -7.450010   -1.353915   -0.173637
     33          6           0       -8.506925   -2.085696   -0.623013
     34          6           0       -8.082011   -3.468763   -0.767072
     35          6           0       -6.680100   -3.478111   -0.310658
     36          6           0       -6.397410   -2.073189    0.068788
     37          6           0       -8.958960   -4.613607   -1.198691
     38          6           0       -5.572790   -4.311076    0.019534
     39          8           0       -5.604636   -5.523818    0.085817
     40          6           0       -4.426677   -3.359300    0.429748
     41          6           0       -3.901195   -3.834871    1.905432
     42          8           0       -4.234325   -3.388620    2.936641
     43          8           0       -3.036175   -4.780349    1.750797
     44          6           0       -2.501412   -5.447822    2.889412
     45          6           0        2.574931   -0.640148   -1.432730
     46          6           0        3.960626   -0.413766   -0.775762
     47          6           0        4.848764    0.436980   -1.243590
     48          6           0        4.821233    1.186980   -2.538026
     49          6           0        6.129934    0.598911   -0.516063
     50          6           0        7.405414   -0.048784   -1.096916
     51          6           0        8.698334   -0.007827   -0.237561
     52          6           0        9.959376   -0.560839   -0.905179
     53          6           0        9.762895   -2.063514   -1.152197
     54          6           0       11.217576   -0.174665   -0.071723
     55          6           0       12.544262   -0.436508   -0.666699
     56          6           0       13.831023   -0.040155    0.085265
     57          6           0       15.260483   -0.327795   -0.485686
     58          6           0       15.592387   -1.924864   -0.673243
     59          6           0       16.333440    0.328238    0.404207
     60          6           0       17.720255    0.520958   -0.153908
     61          6           0       18.612754    1.312388    0.704382
     62          6           0       20.044192    1.464123    0.300898
     63          6           0       20.034510    2.234894   -0.986952
     64          6           0       20.983677    2.060619    1.540616
     65          1           0       -4.027936    3.410778    1.931833
     66          1           0       -9.917752    4.044759   -0.383994
     67          1           0      -10.411323   -2.520530   -1.094788
     68          1           0       -2.713023   -1.344964    2.181611
     69          1           0       -2.081843    1.315093    1.409569
     70          1           0       -1.641792    0.694671    3.508004
     71          1           0       -2.989347    2.040569    3.818263
     72          1           0       -3.450531    0.164105    4.067309
     73          1           0       -2.244330   -1.648353   -0.333948
     74          1           0       -2.574863   -0.015071   -0.776215
     75          1           0       -0.447582    0.618991    0.778989
     76          1           0       -0.202550   -1.223013    1.185896
     77          1           0       -4.579578    6.182219    0.868320
     78          1           0       -6.117814    6.735384    1.825066
     79          1           0       -5.054467    5.480309    2.567392
     80          1           0       -7.975691    6.823403    1.189870
     81          1           0       -9.403700    5.798170   -1.511173
     82          1           0       -9.499933    7.558559   -0.517822
     83          1           0      -11.952798    3.464073   -0.172074
     84          1           0      -12.070283    3.574127   -2.021834
     85          1           0      -13.313612    2.298639   -0.924570
     86          1           0      -12.648762   -1.455664   -1.239205
     87          1           0      -13.442441    0.203533   -1.473763
     88          1           0      -12.694483    0.592988   -3.708896
     89          1           0      -11.724558   -1.139370   -3.649247
     90          1           0      -13.528102   -0.839705   -3.615372
     91          1           0       -9.811105   -4.784140   -0.364988
     92          1           0       -9.586967   -4.387920   -2.121414
     93          1           0       -8.227111   -5.543235   -1.156755
     94          1           0       -3.630513   -3.610757   -0.245943
     95          1           0       -1.651257   -6.053018    2.469083
     96          1           0       -2.040221   -4.738194    3.571660
     97          1           0       -3.213936   -6.152660    3.467016
     98          1           0        2.602953   -1.698384   -1.700055
     99          1           0        2.255976    0.045986   -2.209936
    100          1           0        4.049989   -1.060054    0.249334
    101          1           0        5.150638    2.297622   -2.915573
    102          1           0        5.364207    0.648301   -3.373427
    103          1           0        3.855733    1.391167   -3.108295
    104          1           0        6.473704    1.724866   -0.155218
    105          1           0        5.920519   -0.002846    0.545380
    106          1           0        6.968664   -1.156688   -1.220233
    107          1           0        7.512654    0.522973   -2.019910
    108          1           0        8.907680    0.970846    0.481811
    109          1           0        8.429784   -0.754228    0.645833
    110          1           0       10.129940   -0.036957   -1.754470
    111          1           0        8.920303   -2.480555   -1.852140
    112          1           0       10.776305   -2.395764   -1.727759
    113          1           0        9.853153   -2.819577   -0.272963
    114          1           0       11.266596    0.885119    0.187688
    115          1           0       11.313506   -0.804619    0.922784
    116          1           0       12.441350   -1.593804   -1.092909
    117          1           0       12.623644   -0.087799   -1.802477
    118          1           0       13.902309    1.084647    0.224697
    119          1           0       13.672251   -0.589624    1.021970
    120          1           0       15.439206    0.121899   -1.502778
    121          1           0       14.631286   -2.202928   -1.222647
    122          1           0       16.337378   -2.029284   -1.351978
    123          1           0       15.791731   -2.462415    0.198041
    124          1           0       15.838386    1.040740    0.597535
    125          1           0       16.600997   -0.255953    1.351103
    126          1           0       18.183683   -0.568078   -0.317094
    127          1           0       17.522223    0.885743   -1.255591
    128          1           0       18.059158    2.151527    0.877749
    129          1           0       18.570924    0.817727    1.707252
    130          1           0       20.335041    0.327662    0.039699
    131          1           0       19.711063    3.182949   -0.820899
    132          1           0       21.061563    2.179575   -1.407579
    133          1           0       19.313767    1.754805   -1.588639
    134          1           0       20.701931    1.448474    2.392769
    135          1           0       21.848465    2.138944    1.103897
    136          1           0       20.391773    2.830865    1.961719
    137          1           0       -6.774358    1.636202    0.379303
    138          1           0       -7.506804   -0.402748   -0.250915
 ---------------------------------------------------------------------

 SCF Done:  E(RB3LYP) =  -2732.95641179     A.U. after   17 cycles

 Excitation energies and oscillator strengths:

 Excited State   1:      Singlet-A      1.9718 eV  628.78 nm  f=0.1287  <S**2>=0.000
     235 -> 237        0.11261
     235 -> 238       -0.29165
     236 -> 237        0.62529
 This state for optimization and/or second-order correction.
 Total Energy, E(TD-HF/TD-DFT) =  -2732.88394863
 Copying the excited state density for this state as the 1-particle RhoCI density.

 The electronic state is 1-A.
 Alpha  occ. eigenvalues --  -19.18412 -19.17649 -19.13620 -19.12263 -19.11410
 Alpha  occ. eigenvalues --  -14.36857 -14.36368 -14.33198 -14.28516 -10.32208
 Alpha  occ. eigenvalues --  -10.31372 -10.26888 -10.25677 -10.25223 -10.24186
 Alpha  occ. eigenvalues --  -10.23752 -10.23039 -10.23026 -10.22771 -10.22386
 Alpha  occ. eigenvalues --  -10.22360 -10.21967 -10.21837 -10.21761 -10.21516
 Alpha  occ. eigenvalues --  -10.21327 -10.21309 -10.21253 -10.21194 -10.21043
 Alpha  occ. eigenvalues --  -10.20971 -10.20909 -10.20835 -10.20805 -10.20799
 Alpha  occ. eigenvalues --  -10.20756 -10.20732 -10.20671 -10.20624 -10.20589
 Alpha  occ. eigenvalues --  -10.20449 -10.20429 -10.20241 -10.20013 -10.19864
 Alpha  occ. eigenvalues --  -10.19857 -10.19739 -10.19609 -10.19596 -10.19572
 Alpha  occ. eigenvalues --  -10.19504 -10.19301 -10.19254 -10.19095 -10.18942
 Alpha  occ. eigenvalues --  -10.18833 -10.18210 -10.18184 -10.17103 -10.17082
 Alpha  occ. eigenvalues --  -10.16671 -10.16628 -10.16030 -10.15931  -1.12057
 Alpha  occ. eigenvalues --   -1.07448  -1.02446  -1.02171  -1.00223  -0.99985
 Alpha  occ. eigenvalues --   -0.98698  -0.95349  -0.94052  -0.84737  -0.83144
 Alpha  occ. eigenvalues --   -0.82640  -0.82542  -0.81773  -0.81508  -0.81030
 Alpha  occ. eigenvalues --   -0.80151  -0.79786  -0.78715  -0.77947  -0.77629
 Alpha  occ. eigenvalues --   -0.77008  -0.76578  -0.75896  -0.74775  -0.74331
 Alpha  occ. eigenvalues --   -0.73656  -0.72805  -0.72179  -0.71460  -0.70883
 Alpha  occ. eigenvalues --   -0.70060  -0.69701  -0.69354  -0.68547  -0.68089
 Alpha  occ. eigenvalues --   -0.67744  -0.66934  -0.66443  -0.65633  -0.65061
 Alpha  occ. eigenvalues --   -0.64087  -0.63202  -0.62592  -0.61361  -0.60910
 Alpha  occ. eigenvalues --   -0.60887  -0.59094  -0.58759  -0.57971  -0.57107
 Alpha  occ. eigenvalues --   -0.56438  -0.56100  -0.55865  -0.55810  -0.55530
 Alpha  occ. eigenvalues --   -0.55211  -0.54675  -0.54587  -0.53463  -0.53447
 Alpha  occ. eigenvalues --   -0.52991  -0.52055  -0.51650  -0.51045  -0.50645
 Alpha  occ. eigenvalues --   -0.50338  -0.49311  -0.49201  -0.48747  -0.48294
 Alpha  occ. eigenvalues --   -0.48175  -0.47996  -0.47724  -0.47402  -0.47204
 Alpha  occ. eigenvalues --   -0.47147  -0.46630  -0.46577  -0.46123  -0.45852
 Alpha  occ. eigenvalues --   -0.45650  -0.45539  -0.45344  -0.45204  -0.44877
 Alpha  occ. eigenvalues --   -0.44592  -0.44345  -0.44223  -0.44178  -0.43702
 Alpha  occ. eigenvalues --   -0.43229  -0.43154  -0.42936  -0.42813  -0.42410
 Alpha  occ. eigenvalues --   -0.42251  -0.41891  -0.41811  -0.41800  -0.41547
 Alpha  occ. eigenvalues --   -0.41406  -0.41203  -0.41099  -0.40662  -0.40392
 Alpha  occ. eigenvalues --   -0.40085  -0.39982  -0.39928  -0.39660  -0.39546
 Alpha  occ. eigenvalues --   -0.39228  -0.39052  -0.38839  -0.38751  -0.38669
 Alpha  occ. eigenvalues --   -0.38266  -0.38099  -0.38020  -0.37943  -0.37855
 Alpha  occ. eigenvalues --   -0.37765  -0.37484  -0.37335  -0.36748  -0.36698
 Alpha  occ. eigenvalues --   -0.36450  -0.36249  -0.35941  -0.35828  -0.35760
 Alpha  occ. eigenvalues --   -0.35234  -0.35222  -0.35057  -0.34943  -0.34403
 Alpha  occ. eigenvalues --   -0.33941  -0.33580  -0.33528  -0.33120  -0.33078
 Alpha  occ. eigenvalues --   -0.32747  -0.32682  -0.32358  -0.32091  -0.32027
 Alpha  occ. eigenvalues --   -0.31958  -0.31872  -0.31450  -0.31403  -0.31299
 Alpha  occ. eigenvalues --   -0.31032  -0.30823  -0.30673  -0.30437  -0.29872
 Alpha  occ. eigenvalues --   -0.29779  -0.28964  -0.28850  -0.28589  -0.28351
 Alpha  occ. eigenvalues --   -0.28062  -0.27585  -0.26093  -0.25849  -0.25521
 Alpha  occ. eigenvalues --   -0.24945  -0.24645  -0.24375  -0.21383  -0.19742
 Alpha  occ. eigenvalues --   -0.18736
 Alpha virt. eigenvalues --   -0.10275  -0.08047  -0.04660  -0.01943  -0.00863
 Alpha virt. eigenvalues --   -0.00828   0.00092   0.01072   0.02060   0.03329
 Alpha virt. eigenvalues --    0.03616   0.03683   0.04231   0.04341   0.04748

 Mulliken charges:
               1
     1  C   -0.032371
     2  C   -0.025590
     3  C   -0.124354
     4  C   -0.049115
     5  N   -0.233185
     6  C    0.031827
     7  C   -0.087725
     8  C   -0.033898
     9  C    0.083330
    10  C   -0.024691
    11  C   -0.092391
    12  C    0.086541
    13  C    0.193031
    14  O   -0.237580
    15  O   -0.377253
    16  N   -0.066842
    17  C    0.046922
    18  C   -0.151628
    19  C    0.042783
    20  C    0.094613
    21  C    0.089076
    22  C   -0.005297
    23  C   -0.090851
    24  N   -0.180942
    25  C    0.070271
    26  C   -0.171326
    27  C   -0.065922
    28  C    0.090200
    29  C    0.001594
    30  C    0.036440
    31  C   -0.004855
    32  N    0.124102
    33  C    0.005621
    34  C   -0.119027
    35  C   -0.036526
    36  C    0.055269
    37  C    0.009046
    38  C    0.026864
    39  O   -0.183611
    40  C   -0.040778
    41  C    0.154370
    42  O   -0.183962
    43  O   -0.250231
    44  C    0.155085
    45  C    0.291552
    46  C   -0.141315
    47  C    0.007290
    48  C   -0.042173
    49  C   -0.049116
    50  C    0.014912
    51  C   -0.029692
    52  C    0.051916
    53  C   -0.061855
    54  C    0.026852
    55  C   -0.083684
    56  C    0.073549
    57  C   -0.142233
    58  C    0.073322
    59  C    0.184788
    60  C   -0.053885
    61  C    0.073077
    62  C   -0.158135
    63  C    0.135314
    64  C    0.170654
    65  H   -0.085536
    66  H   -0.017619
    67  H   -0.028074
    68  H    0.040127
    69  H    0.023139
    70  H    0.035324
    71  H    0.027262
    72  H    0.067343
    73  H    0.028841
    74  H    0.028170
    75  H    0.070997
    76  H    0.007905
    77  H    0.056936
    78  H    0.008219
    79  H    0.017171
    80  H    0.000569
    81  H    0.063294
    82  H    0.033156
    83  H    0.035847
    84  H    0.046191
    85  H    0.048017
    86  H    0.014318
    87  H   -0.014811
    88  H    0.016668
    89  H    0.032673
    90  H    0.000795
    91  H    0.051564
    92  H    0.046506
    93  H    0.077065
    94  H    0.041419
    95  H    0.035555
    96  H    0.025851
    97  H    0.059888
    98  H    0.027639
    99  H    0.028286
   100  H    0.045682
   101  H    0.033597
   102  H    0.032797
   103  H    0.001721
   104  H    0.025505
   105  H    0.000487
   106  H    0.028195
   107  H    0.002691
   108  H    0.017025
   109  H   -0.002509
   110  H   -0.034406
   111  H    0.043005
   112  H    0.010794
   113  H    0.028415
   114  H   -0.004840
   115  H    0.005040
   116  H    0.005720
   117  H   -0.019200
   118  H    0.014186
   119  H    0.002284
   120  H   -0.006756
   121  H    0.005951
   122  H   -0.017989
   123  H    0.002424
   124  H   -0.138978
   125  H   -0.009493
   126  H   -0.000722
   127  H    0.005710
   128  H   -0.046808
   129  H   -0.024932
   130  H   -0.003892
   131  H   -0.029725
   132  H    0.004451
   133  H   -0.016908
   134  H   -0.015553
   135  H   -0.008522
   136  H   -0.022027
   137  H    0.178364
   138  H    0.090352
 Sum of Mulliken charges =  -0.00000

 Dipole moment (field-independent basis, Debye):
    X=              3.4111    Y=              3.8546    Z=              0.3701  Tot=              5.1605
 Quadrupole moment (field-independent basis, Debye-Ang):
   XX=           -391.7510   YY=           -382.0992   ZZ=           -393.8471
   XY=            -16.7061   XZ=             10.1428   YZ=             -3.1713

 Normal termination of Gaussian 16 at Fri Aug 30 02:53:13 2019.
