 Gaussian 16, Revision A.03,
 Gaussian 16:  ES64L-G16RevA.03 25-Dec-2016

 --------------------------
 # td=(NStates=1) B3LYP/SVP
 --------------------------

 --
 TD
 --
 Symbolic Z-matrix:
 Charge =  0 Multiplicity = 1

                         Standard orientation:
 ---------------------------------------------------------------------
 Center     Atomic      Atomic             Coordinates (Angstroms)
 Number     Number       Type             X           Y           Z
 ---------------------------------------------------------------------
      1          6           0       -5.137544   -2.033158    0.331261
      2          6           0       -4.741771    2.691827    1.345059
      3          6           0       -9.286111    3.346853   -0.148403
      4          6           0       -9.873881   -1.390785   -1.095972
      5          7           0       -5.275694    0.398220    0.852554
      6          6           0       -4.536578   -0.806307    0.832022
      7          6           0       -3.025429   -0.595383    1.321174
      8          6           0       -3.146801    0.743101    2.001518
      9          6           0       -4.448813    1.305422    1.365484
     10          6           0       -3.089688    0.643474    3.490017
     11          6           0       -2.096784   -0.797450    0.150951
     12          6           0       -0.615710   -0.748526    0.652057
     13          6           0        0.461275   -1.032327   -0.503397
     14          8           0        0.155798   -1.385147   -1.592566
     15          8           0        1.740512   -0.728244   -0.111083
     16          7           0       -7.024338    2.826586    0.411978
     17          6           0       -5.870086    3.377703    0.954616
     18          6           0       -6.179719    4.740775    0.994638
     19          6           0       -7.502549    5.057663    0.547941
     20          6           0       -7.999823    3.681492    0.151329
     21          6           0       -5.242755    5.849097    1.654362
     22          6           0       -8.166028    6.298781    0.402863
     23          6           0       -9.024807    6.738447   -0.593989
     24          7           0       -9.256819    0.853406   -0.447367
     25          6           0       -9.862476    2.081091   -0.400439
     26          6           0      -11.196944    2.006792   -0.954712
     27          6           0      -11.414016    0.647330   -1.119964
     28          6           0      -10.187935   -0.062379   -0.828285
     29          6           0      -12.279972    3.012492   -1.120344
     30          6           0      -12.651009   -0.110052   -1.668911
     31          6           0      -12.720889   -0.361972   -3.226944
     32          7           0       -7.500778   -1.218733   -0.206859
     33          6           0       -8.644723   -2.005424   -0.704984
     34          6           0       -8.249205   -3.395698   -0.663327
     35          6           0       -6.894842   -3.411219   -0.269342
     36          6           0       -6.515526   -2.073708   -0.052850
     37          6           0       -9.021199   -4.601366   -0.975189
     38          6           0       -5.731436   -4.284077   -0.086554
     39          8           0       -5.805687   -5.488315   -0.025018
     40          6           0       -4.546157   -3.350876    0.375565
     41          6           0       -3.920126   -3.835999    1.592575
     42          8           0       -4.213804   -3.395238    2.659860
     43          8           0       -3.082272   -4.896808    1.450251
     44          6           0       -2.508123   -5.444594    2.616315
     45          6           0        2.823681   -1.052001   -1.059570
     46          6           0        4.094528   -0.726137   -0.503718
     47          6           0        5.022281   -0.027865   -1.060066
     48          6           0        4.937942    0.488034   -2.589866
     49          6           0        6.259425    0.271550   -0.354636
     50          6           0        7.482665   -0.490385   -0.973192
     51          6           0        8.808234   -0.264548   -0.212917
     52          6           0       10.101460   -0.730716   -0.807523
     53          6           0       10.251718   -2.288561   -0.856038
     54          6           0       11.312502   -0.237649   -0.010111
     55          6           0       12.593583   -0.486878   -0.555402
     56          6           0       13.821626    0.002678    0.175500
     57          6           0       15.284106   -0.297664   -0.428021
     58          6           0       15.572668   -1.723727   -0.193345
     59          6           0       16.232150    0.701910    0.401688
     60          6           0       17.700763    0.687188   -0.226055
     61          6           0       18.651521    1.618698    0.619418
     62          6           0       20.068457    1.813665    0.018512
     63          6           0       20.108095    2.309167   -1.369839
     64          6           0       20.997356    2.566930    1.103903
     65          1           0       -4.143238    3.265640    1.740558
     66          1           0      -10.064315    4.298002   -0.360867
     67          1           0      -10.694476   -2.050898   -1.323539
     68          1           0       -2.877079   -1.445195    2.049567
     69          1           0       -2.297030    1.306505    1.933879
     70          1           0       -2.104577    0.512248    3.648227
     71          1           0       -3.079050    1.478931    4.060385
     72          1           0       -3.656504   -0.053658    4.070839
     73          1           0       -2.266118   -1.654622   -0.422028
     74          1           0       -2.211056    0.052423   -0.501247
     75          1           0       -0.484460    0.166969    1.087966
     76          1           0       -0.332501   -1.607005    1.371012
     77          1           0       -4.175092    6.077080    1.031259
     78          1           0       -5.715969    6.823239    1.480635
     79          1           0       -5.053231    5.450934    2.683794
     80          1           0       -7.817902    7.090221    1.279233
     81          1           0       -9.142923    5.905814   -1.384787
     82          1           0       -9.387008    7.703257   -0.484450
     83          1           0      -12.713106    3.614393   -0.328510
     84          1           0      -12.023331    3.762769   -1.773279
     85          1           0      -13.198341    2.314320   -1.439763
     86          1           0      -12.885118   -1.143286   -1.092575
     87          1           0      -13.541644    0.425905   -1.278950
     88          1           0      -12.547691    0.709029   -3.797277
     89          1           0      -11.908926   -1.086228   -3.511944
     90          1           0      -13.857551   -0.889852   -3.498914
     91          1           0       -9.987416   -4.497606   -0.482828
     92          1           0       -9.160346   -4.309544   -2.085776
     93          1           0       -8.431952   -5.537513   -0.651680
     94          1           0       -3.920763   -3.320242   -0.415271
     95          1           0       -1.867315   -6.196084    2.176508
     96          1           0       -2.077504   -4.632352    3.158005
     97          1           0       -3.305267   -5.954021    3.341242
     98          1           0        2.821271   -2.192079   -1.279788
     99          1           0        2.427153   -0.738371   -1.834065
    100          1           0        4.210357   -1.086988    0.594565
    101          1           0        5.586514    1.472018   -2.626220
    102          1           0        5.453992   -0.298482   -3.083230
    103          1           0        3.789172    0.465685   -2.875897
    104          1           0        6.498199    1.363597   -0.426348
    105          1           0        6.082715    0.141129    0.842215
    106          1           0        7.142610   -1.704313   -1.106592
    107          1           0        7.606992   -0.030223   -2.061909
    108          1           0        8.999660    0.765340   -0.217334
    109          1           0        8.722885   -0.368876    0.844367
    110          1           0       10.002628   -0.576338   -1.992386
    111          1           0        9.401157   -2.628140   -1.564589
    112          1           0       11.304431   -2.406163   -1.135682
    113          1           0        9.952745   -2.851615    0.067470
    114          1           0       11.398624    0.920933    0.222948
    115          1           0       11.201610   -0.789317    1.025289
    116          1           0       12.575074   -1.639104   -0.628346
    117          1           0       12.530590   -0.129842   -1.650919
    118          1           0       13.877736    1.252115    0.230222
    119          1           0       13.850000   -0.482269    1.258475
    120          1           0       15.380789   -0.186465   -1.388728
    121          1           0       14.739899   -2.348577   -0.709059
    122          1           0       16.634259   -2.183895   -0.260184
    123          1           0       15.449688   -1.952083    0.898330
    124          1           0       15.772398    1.795390    0.285178
    125          1           0       16.430078    0.456437    1.417023
    126          1           0       18.098123   -0.206875   -0.395874
    127          1           0       17.717434    1.005450   -1.273330
    128          1           0       18.002793    2.568714    0.531203
    129          1           0       18.762955    1.133186    1.577669
    130          1           0       20.612863    0.793225    0.150335
    131          1           0       19.632434    3.273350   -1.427633
    132          1           0       21.220039    2.530446   -1.774269
    133          1           0       19.612786    1.759813   -2.148134
    134          1           0       20.983067    1.904261    1.979561
    135          1           0       22.089038    2.539545    0.534981
    136          1           0       20.680399    3.531948    1.324657
    137          1           0       -7.159857    1.870800   -0.158075
    138          1           0       -7.658974   -0.277649   -0.278219
 ---------------------------------------------------------------------

 SCF Done:  E(RB3LYP) =  -2733.00060395     A.U. after   17 cycles

 Excitation energies and oscillator strengths:

 Excited State   1:      Singlet-A      2.0415 eV  607.33 nm  f=0.1248  <S**2>=0.000
     235 -> 238       -0.32956
     236 -> 237        0.60744
 This state for optimization and/or second-order correction.
 Total Energy, E(TD-HF/TD-DFT) =  -2732.92558163
 Copying the excited state density for this state as the 1-particle RhoCI density.

 The electronic state is 1-A.
 Alpha  occ. eigenvalues --  -19.17445 -19.17028 -19.12976 -19.12469 -19.12317
 Alpha  occ. eigenvalues --  -14.36724 -14.36358 -14.32549 -14.29552 -10.31704
 Alpha  occ. eigenvalues --  -10.31340 -10.28127 -10.24683 -10.23666 -10.23643
 Alpha  occ. eigenvalues --  -10.23633 -10.23454 -10.23278 -10.23151 -10.23093
 Alpha  occ. eigenvalues --  -10.21885 -10.21882 -10.21603 -10.21584 -10.21537
 Alpha  occ. eigenvalues --  -10.21215 -10.21124 -10.20998 -10.20975 -10.20754
 Alpha  occ. eigenvalues --  -10.20695 -10.20617 -10.20570 -10.20527 -10.20472
 Alpha  occ. eigenvalues --  -10.20457 -10.20436 -10.20380 -10.20367 -10.20323
 Alpha  occ. eigenvalues --  -10.20195 -10.20102 -10.19880 -10.19626 -10.19498
 Alpha  occ. eigenvalues --  -10.19354 -10.19322 -10.19180 -10.18748 -10.18691
 Alpha  occ. eigenvalues --  -10.18576 -10.18527 -10.18481 -10.18469 -10.18445
 Alpha  occ. eigenvalues --  -10.18321 -10.18236 -10.18227 -10.18221 -10.18118
 Alpha  occ. eigenvalues --  -10.17678 -10.17676 -10.16835 -10.16570  -1.10033
 Alpha  occ. eigenvalues --   -1.08903  -1.03350  -1.01483  -1.01115  -0.98419
 Alpha  occ. eigenvalues --   -0.97869  -0.93673  -0.93126  -0.85990  -0.83591
 Alpha  occ. eigenvalues --   -0.82916  -0.82192  -0.81619  -0.81001  -0.80908
 Alpha  occ. eigenvalues --   -0.80741  -0.79539  -0.79232  -0.78472  -0.78026
 Alpha  occ. eigenvalues --   -0.77623  -0.76314  -0.75684  -0.75025  -0.73955
 Alpha  occ. eigenvalues --   -0.73567  -0.73240  -0.72480  -0.71746  -0.70647
 Alpha  occ. eigenvalues --   -0.69728  -0.69359  -0.68275  -0.68202  -0.67872
 Alpha  occ. eigenvalues --   -0.67654  -0.66786  -0.66179  -0.66084  -0.65331
 Alpha  occ. eigenvalues --   -0.64757  -0.63776  -0.63155  -0.61790  -0.61111
 Alpha  occ. eigenvalues --   -0.60152  -0.59389  -0.58614  -0.58264  -0.57860
 Alpha  occ. eigenvalues --   -0.57661  -0.56851  -0.56052  -0.55965  -0.54773
 Alpha  occ. eigenvalues --   -0.54664  -0.54485  -0.54329  -0.53719  -0.53552
 Alpha  occ. eigenvalues --   -0.53110  -0.52416  -0.52044  -0.51622  -0.50762
 Alpha  occ. eigenvalues --   -0.49964  -0.49365  -0.49023  -0.48952  -0.48818
 Alpha  occ. eigenvalues --   -0.48259  -0.47774  -0.47567  -0.47435  -0.47232
 Alpha  occ. eigenvalues --   -0.47069  -0.46488  -0.46389  -0.46194  -0.45824
 Alpha  occ. eigenvalues --   -0.45509  -0.45266  -0.45217  -0.44868  -0.44661
 Alpha  occ. eigenvalues --   -0.44498  -0.44412  -0.44174  -0.44055  -0.43760
 Alpha  occ. eigenvalues --   -0.43274  -0.43249  -0.42980  -0.42901  -0.42669
 Alpha  occ. eigenvalues --   -0.42388  -0.42163  -0.41821  -0.41735  -0.41658
 Alpha  occ. eigenvalues --   -0.41170  -0.40903  -0.40740  -0.40684  -0.40540
 Alpha  occ. eigenvalues --   -0.40111  -0.39968  -0.39904  -0.39409  -0.39324
 Alpha  occ. eigenvalues --   -0.39279  -0.38902  -0.38578  -0.38568  -0.38363
 Alpha  occ. eigenvalues --   -0.38300  -0.38274  -0.37994  -0.37888  -0.37715
 Alpha  occ. eigenvalues --   -0.37551  -0.37338  -0.37140  -0.36687  -0.36530
 Alpha  occ. eigenvalues --   -0.36217  -0.36204  -0.36135  -0.36073  -0.36031
 Alpha  occ. eigenvalues --   -0.35926  -0.35798  -0.35416  -0.35119  -0.34744
 Alpha  occ. eigenvalues --   -0.34673  -0.34501  -0.34187  -0.33928  -0.33698
 Alpha  occ. eigenvalues --   -0.33632  -0.33163  -0.32988  -0.32932  -0.32876
 Alpha  occ. eigenvalues --   -0.32386  -0.32384  -0.31965  -0.31851  -0.31550
 Alpha  occ. eigenvalues --   -0.31247  -0.30627  -0.30355  -0.30285  -0.30176
 Alpha  occ. eigenvalues --   -0.29809  -0.28647  -0.28470  -0.28222  -0.28100
 Alpha  occ. eigenvalues --   -0.28016  -0.27275  -0.26444  -0.26055  -0.25716
 Alpha  occ. eigenvalues --   -0.25504  -0.25094  -0.23494  -0.22335  -0.19600
 Alpha  occ. eigenvalues --   -0.18989
 Alpha virt. eigenvalues --   -0.10183  -0.08078  -0.04367  -0.02289  -0.00019
 Alpha virt. eigenvalues --    0.00749   0.00759   0.01172   0.01793   0.03601
 Alpha virt. eigenvalues --    0.03705   0.03770   0.04323   0.04574   0.04594

 Mulliken charges:
               1
     1  C   -0.109138
     2  C    0.048689
     3  C   -0.116231
     4  C   -0.040416
     5  N   -0.165328
     6  C   -0.057652
     7  C   -0.072162
     8  C    0.060828
     9  C    0.038849
    10  C    0.159303
    11  C    0.145876
    12  C    0.026974
    13  C    0.168240
    14  O   -0.209342
    15  O   -0.353051
    16  N   -0.086888
    17  C    0.136075
    18  C   -0.127925
    19  C    0.050840
    20  C    0.012286
    21  C    0.027567
    22  C   -0.140762
    23  C    0.010124
    24  N   -0.264050
    25  C    0.070324
    26  C   -0.134550
    27  C   -0.065356
    28  C    0.050050
    29  C    0.094307
    30  C   -0.007228
    31  C   -0.059870
    32  N    0.031680
    33  C    0.044703
    34  C   -0.160668
    35  C   -0.022689
    36  C    0.112505
    37  C    0.074105
    38  C    0.022213
    39  O   -0.161896
    40  C    0.152652
    41  C    0.189651
    42  O   -0.209393
    43  O   -0.302879
    44  C    0.180355
    45  C    0.369141
    46  C   -0.083210
    47  C   -0.143014
    48  C    0.037698
    49  C    0.040803
    50  C   -0.071463
    51  C    0.151970
    52  C   -0.113356
    53  C   -0.000489
    54  C   -0.021846
    55  C    0.035872
    56  C   -0.037413
    57  C    0.033288
    58  C   -0.015952
    59  C    0.020077
    60  C    0.044339
    61  C    0.029121
    62  C   -0.119154
    63  C    0.045859
    64  C    0.014663
    65  H   -0.173345
    66  H    0.026079
    67  H   -0.021694
    68  H    0.017934
    69  H   -0.060883
    70  H   -0.046487
    71  H   -0.044068
    72  H    0.022315
    73  H   -0.003659
    74  H   -0.006612
    75  H    0.000610
    76  H    0.037709
    77  H    0.037907
    78  H    0.019462
    79  H    0.055214
    80  H    0.033767
    81  H    0.056130
    82  H    0.012819
    83  H    0.012953
    84  H   -0.008047
    85  H    0.023231
    86  H    0.014295
    87  H    0.005341
    88  H    0.045414
    89  H    0.030693
    90  H    0.038118
    91  H    0.026850
    92  H    0.051919
    93  H    0.073223
    94  H   -0.003597
    95  H    0.037835
    96  H    0.020218
    97  H    0.043815
    98  H    0.018825
    99  H   -0.098694
   100  H    0.010076
   101  H    0.042214
   102  H    0.029713
   103  H    0.052252
   104  H    0.003099
   105  H    0.016997
   106  H    0.030705
   107  H    0.018307
   108  H   -0.041719
   109  H   -0.028501
   110  H    0.005630
   111  H    0.011028
   112  H    0.018380
   113  H    0.005797
   114  H   -0.000402
   115  H    0.005595
   116  H    0.003935
   117  H    0.000655
   118  H    0.015167
   119  H    0.014555
   120  H   -0.056194
   121  H    0.023532
   122  H    0.022666
   123  H   -0.015062
   124  H    0.018905
   125  H   -0.005747
   126  H   -0.059043
   127  H   -0.028428
   128  H    0.006896
   129  H   -0.007221
   130  H   -0.004355
   131  H   -0.008869
   132  H    0.011869
   133  H    0.011844
   134  H    0.013588
   135  H    0.023938
   136  H    0.002807
   137  H    0.207608
   138  H    0.074534
 Sum of Mulliken charges =  -0.00000

 Dipole moment (field-independent basis, Debye):
    X=              3.8025    Y=              3.4992    Z=              0.2698  Tot=              5.1745
 Quadrupole moment (field-independent basis, Debye-Ang):
   XX=           -375.1897   YY=           -386.3873   ZZ=           -394.4454
   XY=            -22.9952   XZ=              7.8144   YZ=             -1.2367

 Normal termination of Gaussian 16 at Fri Aug 23 14:43:56 2019.
