 Gaussian 16, Revision A.03,
 Gaussian 16:  ES64L-G16RevA.03 25-Dec-2016

 --------------------------
 # td=(NStates=1) B3LYP/SVP
 --------------------------

 --
 TD
 --
 Symbolic Z-matrix:
 Charge =  0 Multiplicity = 1

                         Standard orientation:
 ---------------------------------------------------------------------
 Center     Atomic      Atomic             Coordinates (Angstroms)
 Number     Number       Type             X           Y           Z
 ---------------------------------------------------------------------
      1          6           0       -5.191995   -2.007744    0.388053
      2          6           0       -4.601356    2.644332    1.552480
      3          6           0       -9.094905    3.551452   -0.152909
      4          6           0       -9.794145   -1.222527   -0.978615
      5          7           0       -5.065183    0.392164    0.825170
      6          6           0       -4.478297   -0.846647    0.815961
      7          6           0       -3.059994   -0.768233    1.309780
      8          6           0       -2.968230    0.651935    1.952383
      9          6           0       -4.231884    1.284256    1.355236
     10          6           0       -2.945486    0.497471    3.475342
     11          6           0       -2.039670   -1.028253    0.094561
     12          6           0       -0.569147   -0.966490    0.589394
     13          6           0        0.408202   -1.387847   -0.528001
     14          8           0        0.132116   -1.900490   -1.559135
     15          8           0        1.634717   -0.938599   -0.266811
     16          7           0       -6.857701    2.685259    0.605895
     17          6           0       -5.701439    3.309072    1.209826
     18          6           0       -5.904035    4.751673    1.159071
     19          6           0       -7.214118    4.998081    0.555331
     20          6           0       -7.753490    3.681454    0.277734
     21          6           0       -4.907875    5.734204    1.540176
     22          6           0       -7.738149    6.346588    0.401019
     23          6           0       -8.841698    6.794220   -0.317364
     24          7           0       -9.113092    1.024477   -0.468372
     25          6           0       -9.764614    2.285559   -0.557460
     26          6           0      -11.059634    2.194302   -0.935946
     27          6           0      -11.330132    0.830312   -1.144338
     28          6           0      -10.111215    0.104414   -0.912742
     29          6           0      -12.011710    3.334614   -1.054006
     30          6           0      -12.584274    0.242789   -1.715005
     31          6           0      -12.516920   -0.111598   -3.232498
     32          7           0       -7.465003   -1.158832   -0.267902
     33          6           0       -8.636943   -1.857604   -0.656184
     34          6           0       -8.323610   -3.239272   -0.798166
     35          6           0       -7.008575   -3.393574   -0.371392
     36          6           0       -6.505356   -2.023013   -0.057311
     37          6           0       -9.328661   -4.306373   -1.166365
     38          6           0       -5.912563   -4.345911    0.088780
     39          8           0       -5.936628   -5.550550   -0.050278
     40          6           0       -4.725659   -3.452394    0.432453
     41          6           0       -4.240022   -3.973863    1.778531
     42          8           0       -4.502606   -3.502919    2.890740
     43          8           0       -3.411390   -4.955099    1.541981
     44          6           0       -3.077521   -5.807614    2.728867
     45          6           0        2.650158   -1.169254   -1.304699
     46          6           0        3.943076   -0.789749   -0.618313
     47          6           0        4.945148   -0.029493   -1.232952
     48          6           0        4.824216    0.624622   -2.612037
     49          6           0        6.215928    0.149572   -0.458816
     50          6           0        7.526186   -0.275069   -1.175742
     51          6           0        8.776059   -0.181233   -0.245476
     52          6           0       10.087811   -0.766991   -0.866916
     53          6           0        9.839994   -2.273415   -1.032986
     54          6           0       11.290528   -0.292927   -0.092958
     55          6           0       12.576233   -0.587074   -0.696218
     56          6           0       13.722668   -0.036649    0.164503
     57          6           0       15.222963   -0.170063   -0.422092
     58          6           0       15.579964   -1.675650   -0.461583
     59          6           0       16.275578    0.610884    0.393996
     60          6           0       17.611477    0.677504   -0.148975
     61          6           0       18.427091    1.616099    0.726174
     62          6           0       19.980751    1.731025    0.353213
     63          6           0       20.301091    2.156161   -1.106167
     64          6           0       20.753626    2.745699    1.363056
     65          1           0       -3.682455    3.372480    1.925902
     66          1           0       -9.768825    4.555254   -0.286665
     67          1           0      -10.673310   -1.605179   -1.493074
     68          1           0       -2.797336   -1.311290    2.141370
     69          1           0       -2.242741    1.155102    1.512469
     70          1           0       -1.971340    0.316341    3.925347
     71          1           0       -3.038376    1.521122    3.904813
     72          1           0       -3.668834   -0.316575    3.946252
     73          1           0       -2.369185   -1.881194   -0.438423
     74          1           0       -2.094727   -0.277143   -0.790945
     75          1           0       -0.167018   -0.083848    0.816811
     76          1           0       -0.393645   -1.832255    1.215073
     77          1           0       -4.119176    5.722961    0.790210
     78          1           0       -5.225683    6.888652    1.542228
     79          1           0       -4.443731    5.450911    2.561785
     80          1           0       -7.340464    7.091817    1.018067
     81          1           0       -9.493017    6.249835   -1.042054
     82          1           0       -9.027862    7.798521   -0.413733
     83          1           0      -12.216565    4.006884   -0.194009
     84          1           0      -11.767174    4.115618   -1.781152
     85          1           0      -12.949760    3.233348   -1.368354
     86          1           0      -12.697801   -0.564608   -1.156936
     87          1           0      -13.448335    0.976399   -1.517715
     88          1           0      -12.129507    0.820130   -3.801923
     89          1           0      -11.695262   -0.825009   -3.527792
     90          1           0      -13.380013   -0.510643   -3.756435
     91          1           0       -9.988323   -4.253762   -0.171240
     92          1           0      -10.036615   -4.092096   -2.157174
     93          1           0       -8.673680   -5.251851   -1.577281
     94          1           0       -3.987645   -3.649072   -0.460211
     95          1           0       -2.070434   -6.344507    2.415906
     96          1           0       -2.656732   -5.124886    3.635650
     97          1           0       -3.897494   -6.602641    2.994702
     98          1           0        2.586527   -2.203121   -1.520855
     99          1           0        2.413015   -0.726709   -2.244519
    100          1           0        3.984216   -1.026854    0.599651
    101          1           0        5.138739    1.598995   -2.454806
    102          1           0        5.127682   -0.013670   -3.481711
    103          1           0        3.751569    0.717363   -2.882389
    104          1           0        6.443915    1.180333   -0.305948
    105          1           0        6.204479   -0.261721    0.370727
    106          1           0        7.275777   -1.314184   -1.554570
    107          1           0        7.723887    0.441049   -1.958604
    108          1           0        8.912187    0.923122   -0.076687
    109          1           0        8.533059   -0.660463    0.634003
    110          1           0       10.114068   -0.177341   -1.951293
    111          1           0        8.934054   -2.397466   -1.420204
    112          1           0       10.825411   -2.735553   -1.422647
    113          1           0        9.919975   -2.665592    0.200977
    114          1           0       11.210832    0.735297    0.061462
    115          1           0       11.049712   -0.770262    0.941146
    116          1           0       12.803255   -1.843806   -0.708244
    117          1           0       12.667874   -0.245822   -1.626123
    118          1           0       13.699403    1.004812    0.188396
    119          1           0       13.914058   -0.482639    1.201328
    120          1           0       15.186981    0.282661   -1.388663
    121          1           0       14.777433   -2.284574   -1.232865
    122          1           0       16.520670   -1.846384   -0.970109
    123          1           0       15.858652   -2.048335    0.515478
    124          1           0       15.991471    1.588427    0.351776
    125          1           0       16.226482    0.280230    1.440126
    126          1           0       18.010226   -0.406759   -0.357806
    127          1           0       17.544102    1.167170   -1.153930
    128          1           0       17.821134    2.513970    0.326156
    129          1           0       18.152322    1.468721    1.917357
    130          1           0       20.507693    0.752825    0.217775
    131          1           0       20.169504    3.473475   -1.218125
    132          1           0       21.338027    2.008854   -1.487419
    133          1           0       19.731004    1.466174   -1.954968
    134          1           0       20.368761    2.646306    2.398878
    135          1           0       21.892457    2.515157    1.189984
    136          1           0       20.695022    3.745131    1.123306
    137          1           0       -6.853616    1.770387    0.519901
    138          1           0       -7.594320   -0.108842   -0.463072
 ---------------------------------------------------------------------

 SCF Done:  E(RB3LYP) =  -2733.00825811     A.U. after   17 cycles

 Excitation energies and oscillator strengths:

 Excited State   1:      Singlet-A      2.0416 eV  607.28 nm  f=0.0578  <S**2>=0.000
     235 -> 237       -0.12465
     235 -> 238       -0.37533
     236 -> 237        0.55932
     236 -> 238       -0.15451
 This state for optimization and/or second-order correction.
 Total Energy, E(TD-HF/TD-DFT) =  -2732.93322920
 Copying the excited state density for this state as the 1-particle RhoCI density.

 The electronic state is 1-A.
 Alpha  occ. eigenvalues --  -19.18943 -19.17143 -19.12298 -19.12061 -19.11797
 Alpha  occ. eigenvalues --  -14.36455 -14.35873 -14.32185 -14.28886 -10.31827
 Alpha  occ. eigenvalues --  -10.30496 -10.28173 -10.27481 -10.24354 -10.24020
 Alpha  occ. eigenvalues --  -10.23631 -10.23362 -10.23197 -10.22976 -10.22480
 Alpha  occ. eigenvalues --  -10.22428 -10.22037 -10.21375 -10.21259 -10.21130
 Alpha  occ. eigenvalues --  -10.21104 -10.21076 -10.20953 -10.20875 -10.20859
 Alpha  occ. eigenvalues --  -10.20772 -10.20474 -10.20457 -10.20405 -10.20301
 Alpha  occ. eigenvalues --  -10.20263 -10.19988 -10.19933 -10.19731 -10.19696
 Alpha  occ. eigenvalues --  -10.19619 -10.19545 -10.19485 -10.19482 -10.19392
 Alpha  occ. eigenvalues --  -10.19240 -10.19201 -10.19053 -10.18847 -10.18667
 Alpha  occ. eigenvalues --  -10.18662 -10.18570 -10.18545 -10.18414 -10.18401
 Alpha  occ. eigenvalues --  -10.18367 -10.18188 -10.17983 -10.17912 -10.17770
 Alpha  occ. eigenvalues --  -10.17667 -10.17563 -10.16754 -10.16691  -1.09960
 Alpha  occ. eigenvalues --   -1.09959  -1.02825  -1.00782  -0.99394  -0.98057
 Alpha  occ. eigenvalues --   -0.96549  -0.94491  -0.90920  -0.84585  -0.82947
 Alpha  occ. eigenvalues --   -0.82377  -0.81780  -0.81506  -0.81004  -0.80857
 Alpha  occ. eigenvalues --   -0.80037  -0.79090  -0.78785  -0.78407  -0.78084
 Alpha  occ. eigenvalues --   -0.77010  -0.76277  -0.75278  -0.75245  -0.74316
 Alpha  occ. eigenvalues --   -0.73564  -0.73108  -0.72428  -0.71804  -0.70751
 Alpha  occ. eigenvalues --   -0.69509  -0.68934  -0.68458  -0.68272  -0.67571
 Alpha  occ. eigenvalues --   -0.67232  -0.66668  -0.65936  -0.65358  -0.65098
 Alpha  occ. eigenvalues --   -0.64527  -0.63708  -0.62788  -0.62193  -0.61548
 Alpha  occ. eigenvalues --   -0.61383  -0.58926  -0.58574  -0.58031  -0.57294
 Alpha  occ. eigenvalues --   -0.57200  -0.56729  -0.55789  -0.55629  -0.55302
 Alpha  occ. eigenvalues --   -0.54662  -0.54566  -0.54020  -0.53480  -0.52780
 Alpha  occ. eigenvalues --   -0.52473  -0.51595  -0.51049  -0.50994  -0.50695
 Alpha  occ. eigenvalues --   -0.50335  -0.49037  -0.48987  -0.48948  -0.48914
 Alpha  occ. eigenvalues --   -0.48550  -0.48127  -0.47702  -0.47382  -0.47232
 Alpha  occ. eigenvalues --   -0.46943  -0.46727  -0.46517  -0.46397  -0.45742
 Alpha  occ. eigenvalues --   -0.45574  -0.45173  -0.45093  -0.44908  -0.44698
 Alpha  occ. eigenvalues --   -0.44332  -0.44172  -0.44093  -0.43724  -0.43518
 Alpha  occ. eigenvalues --   -0.43322  -0.43045  -0.42897  -0.42545  -0.42327
 Alpha  occ. eigenvalues --   -0.42093  -0.41910  -0.41747  -0.41450  -0.41131
 Alpha  occ. eigenvalues --   -0.40974  -0.40741  -0.40647  -0.40411  -0.40265
 Alpha  occ. eigenvalues --   -0.39981  -0.39793  -0.39657  -0.39432  -0.39397
 Alpha  occ. eigenvalues --   -0.39038  -0.38842  -0.38356  -0.38306  -0.38098
 Alpha  occ. eigenvalues --   -0.37989  -0.37752  -0.37682  -0.37225  -0.37206
 Alpha  occ. eigenvalues --   -0.37130  -0.36979  -0.36682  -0.36414  -0.36267
 Alpha  occ. eigenvalues --   -0.36175  -0.35980  -0.35947  -0.35721  -0.35538
 Alpha  occ. eigenvalues --   -0.35523  -0.35177  -0.35122  -0.34944  -0.34791
 Alpha  occ. eigenvalues --   -0.34426  -0.34296  -0.34215  -0.34181  -0.33975
 Alpha  occ. eigenvalues --   -0.33861  -0.33578  -0.33384  -0.33237  -0.32942
 Alpha  occ. eigenvalues --   -0.32378  -0.32216  -0.31818  -0.31406  -0.31298
 Alpha  occ. eigenvalues --   -0.30923  -0.30734  -0.30657  -0.30555  -0.29804
 Alpha  occ. eigenvalues --   -0.29602  -0.29177  -0.28504  -0.28197  -0.27801
 Alpha  occ. eigenvalues --   -0.27586  -0.26960  -0.26419  -0.26034  -0.25736
 Alpha  occ. eigenvalues --   -0.24846  -0.23905  -0.23171  -0.21336  -0.19422
 Alpha  occ. eigenvalues --   -0.18800
 Alpha virt. eigenvalues --   -0.09668  -0.08517  -0.04780  -0.02225  -0.00717
 Alpha virt. eigenvalues --   -0.00364   0.00756   0.01691   0.02540   0.03729
 Alpha virt. eigenvalues --    0.03892   0.03994   0.04319   0.04586   0.04725

 Mulliken charges:
               1
     1  C    0.020332
     2  C   -0.104334
     3  C   -0.144443
     4  C   -0.057569
     5  N   -0.155641
     6  C   -0.057380
     7  C    0.003015
     8  C    0.077954
     9  C   -0.068248
    10  C    0.053935
    11  C    0.033240
    12  C    0.161631
    13  C    0.083960
    14  O   -0.218996
    15  O   -0.324271
    16  N   -0.018267
    17  C    0.129254
    18  C   -0.113444
    19  C    0.041828
    20  C    0.160381
    21  C    0.031811
    22  C   -0.028861
    23  C   -0.035324
    24  N   -0.346604
    25  C    0.066325
    26  C   -0.069429
    27  C   -0.104370
    28  C   -0.016266
    29  C    0.146780
    30  C    0.144964
    31  C   -0.020713
    32  N   -0.020811
    33  C    0.133225
    34  C   -0.147664
    35  C   -0.007211
    36  C    0.048669
    37  C   -0.025441
    38  C    0.063117
    39  O   -0.168546
    40  C   -0.049543
    41  C    0.208103
    42  O   -0.250092
    43  O   -0.276861
    44  C    0.088749
    45  C    0.310443
    46  C   -0.128606
    47  C   -0.184874
    48  C    0.123111
    49  C    0.238984
    50  C   -0.045151
    51  C    0.038305
    52  C   -0.139580
    53  C    0.070356
    54  C    0.089719
    55  C    0.098929
    56  C    0.029224
    57  C   -0.075224
    58  C    0.014690
    59  C    0.057706
    60  C    0.019644
    61  C   -0.025623
    62  C   -0.045141
    63  C   -0.113350
    64  C    0.038099
    65  H    0.008614
    66  H    0.033493
    67  H   -0.033001
    68  H   -0.025801
    69  H   -0.071241
    70  H    0.003369
    71  H   -0.000088
    72  H    0.069986
    73  H   -0.004607
    74  H    0.010787
    75  H   -0.002063
    76  H    0.022580
    77  H    0.032381
    78  H    0.036321
    79  H    0.045640
    80  H   -0.014130
    81  H    0.032612
    82  H   -0.003817
    83  H    0.005596
    84  H   -0.012025
    85  H   -0.057423
    86  H   -0.033263
    87  H    0.010393
    88  H    0.016247
    89  H    0.005415
    90  H    0.017499
    91  H    0.076841
    92  H    0.048622
    93  H    0.075335
    94  H    0.096974
    95  H    0.049919
    96  H    0.069670
    97  H    0.086991
    98  H    0.004719
    99  H    0.003019
   100  H    0.044562
   101  H    0.008323
   102  H    0.041577
   103  H   -0.007380
   104  H   -0.027238
   105  H   -0.106194
   106  H    0.019358
   107  H   -0.003513
   108  H   -0.008467
   109  H   -0.030460
   110  H   -0.013480
   111  H   -0.015379
   112  H    0.031296
   113  H    0.003451
   114  H   -0.037694
   115  H   -0.006131
   116  H    0.020073
   117  H   -0.047878
   118  H   -0.030189
   119  H    0.005343
   120  H   -0.036137
   121  H    0.032517
   122  H   -0.007589
   123  H    0.000389
   124  H   -0.053115
   125  H   -0.012218
   126  H   -0.000637
   127  H   -0.002059
   128  H    0.011146
   129  H    0.030296
   130  H    0.013472
   131  H    0.017210
   132  H    0.023733
   133  H    0.035822
   134  H    0.018132
   135  H    0.016095
   136  H   -0.007982
   137  H    0.056966
   138  H    0.179810
 Sum of Mulliken charges =  -0.00000

 Dipole moment (field-independent basis, Debye):
    X=              4.2293    Y=              4.2751    Z=              0.0050  Tot=              6.0136
 Quadrupole moment (field-independent basis, Debye-Ang):
   XX=           -366.5018   YY=           -378.7583   ZZ=           -392.4713
   XY=            -15.9385   XZ=             11.0575   YZ=             -5.1123

 Normal termination of Gaussian 16 at Sat Aug 24 09:03:53 2019.
