 Gaussian 16, Revision A.03,
 Gaussian 16:  ES64L-G16RevA.03 25-Dec-2016

 --------------------------
 # td=(NStates=1) B3LYP/SVP
 --------------------------

 --
 TD
 --
 Symbolic Z-matrix:
 Charge =  0 Multiplicity = 1

                         Standard orientation:
 ---------------------------------------------------------------------
 Center     Atomic      Atomic             Coordinates (Angstroms)
 Number     Number       Type             X           Y           Z
 ---------------------------------------------------------------------
      1          6           0       -5.212443   -1.993050    0.551896
      2          6           0       -4.675327    2.631460    1.673714
      3          6           0       -9.131110    3.513523   -0.236502
      4          6           0       -9.897469   -1.174369   -0.959699
      5          7           0       -5.114830    0.305008    0.811467
      6          6           0       -4.580271   -0.827180    0.933914
      7          6           0       -3.147255   -0.811033    1.484681
      8          6           0       -3.081982    0.678274    2.057595
      9          6           0       -4.323730    1.285467    1.476749
     10          6           0       -2.994680    0.633193    3.551046
     11          6           0       -2.094587   -1.005397    0.272055
     12          6           0       -0.699361   -0.955535    0.657843
     13          6           0        0.341419   -1.230158   -0.426049
     14          8           0       -0.065717   -1.525953   -1.490493
     15          8           0        1.630404   -1.167295    0.003315
     16          7           0       -6.927751    2.801341    0.620680
     17          6           0       -5.780809    3.302488    1.119702
     18          6           0       -5.993457    4.781569    1.068540
     19          6           0       -7.236089    5.073546    0.535895
     20          6           0       -7.895818    3.743513    0.227524
     21          6           0       -4.988016    5.671277    1.643560
     22          6           0       -7.771813    6.427836    0.361609
     23          6           0       -8.675545    6.817078   -0.476281
     24          7           0       -9.184357    1.138227   -0.474446
     25          6           0       -9.751955    2.328826   -0.605800
     26          6           0      -11.162690    2.278096   -1.068740
     27          6           0      -11.457658    0.921540   -1.246829
     28          6           0      -10.151822    0.249351   -0.930379
     29          6           0      -12.048299    3.334922   -1.333098
     30          6           0      -12.603635    0.209971   -1.794253
     31          6           0      -12.656117   -0.171883   -3.285495
     32          7           0       -7.529750   -1.188977   -0.087733
     33          6           0       -8.628433   -1.789456   -0.637230
     34          6           0       -8.292179   -3.229781   -0.682881
     35          6           0       -7.008205   -3.338135   -0.254342
     36          6           0       -6.564483   -2.053886    0.042698
     37          6           0       -9.243992   -4.310501   -1.197478
     38          6           0       -5.848965   -4.230615    0.001520
     39          8           0       -5.858393   -5.443238   -0.207412
     40          6           0       -4.637736   -3.399587    0.441647
     41          6           0       -4.006804   -4.023978    1.588802
     42          8           0       -4.120524   -3.558174    2.729756
     43          8           0       -3.409979   -5.107527    1.152345
     44          6           0       -2.866452   -6.010613    2.233580
     45          6           0        2.607100   -1.456443   -0.989489
     46          6           0        3.948217   -1.027569   -0.485559
     47          6           0        4.952294   -0.255958   -1.017235
     48          6           0        4.827791    0.309596   -2.430745
     49          6           0        6.181883   -0.051004   -0.298895
     50          6           0        7.448930   -0.662809   -0.939022
     51          6           0        8.815267   -0.163883   -0.232575
     52          6           0       10.080854   -0.807059   -0.816246
     53          6           0       10.008687   -2.390845   -0.697593
     54          6           0       11.303335   -0.201824   -0.078627
     55          6           0       12.695754   -0.700650   -0.655030
     56          6           0       13.937144    0.055904    0.101369
     57          6           0       15.209443   -0.154546   -0.409937
     58          6           0       15.707153   -1.637392   -0.315997
     59          6           0       16.202721    0.794542    0.354685
     60          6           0       17.701460    0.728081   -0.170699
     61          6           0       18.620903    1.751172    0.544720
     62          6           0       20.156215    1.947700    0.114508
     63          6           0       20.158566    2.429977   -1.393403
     64          6           0       20.894132    2.876694    0.955643
     65          1           0       -3.938217    3.348035    1.849113
     66          1           0       -9.928040    4.344205   -0.236078
     67          1           0      -10.850428   -1.688176   -1.251959
     68          1           0       -2.667741   -1.601220    2.230656
     69          1           0       -2.228119    1.279187    1.634168
     70          1           0       -2.023702    0.016529    3.910768
     71          1           0       -2.964941    1.735052    3.857901
     72          1           0       -3.986535    0.421256    4.249486
     73          1           0       -2.326045   -1.992673   -0.246113
     74          1           0       -2.378715   -0.362786   -0.577984
     75          1           0       -0.360725   -0.001870    1.138730
     76          1           0       -0.382018   -1.537633    1.670431
     77          1           0       -3.901215    5.773591    0.995068
     78          1           0       -5.306883    6.877732    1.610040
     79          1           0       -4.681242    5.414557    2.775321
     80          1           0       -7.368224    7.436891    0.944089
     81          1           0       -9.306956    6.170444   -1.090425
     82          1           0       -8.843347    7.819557   -0.501883
     83          1           0      -12.079454    3.953922   -0.225703
     84          1           0      -11.716050    4.121629   -2.126184
     85          1           0      -13.125222    2.972832   -1.857157
     86          1           0      -12.730589   -0.759559   -1.219401
     87          1           0      -13.537838    0.631682   -1.622619
     88          1           0      -12.712062    0.742397   -3.974853
     89          1           0      -11.785412   -0.825514   -3.620420
     90          1           0      -13.614131   -0.695946   -3.560273
     91          1           0      -10.137011   -4.162606   -0.644873
     92          1           0       -9.380769   -4.053852   -2.341728
     93          1           0       -8.595598   -5.246778   -0.975458
     94          1           0       -4.027089   -3.346082   -0.650917
     95          1           0       -2.415064   -6.690824    1.834028
     96          1           0       -2.014602   -5.366675    2.838630
     97          1           0       -3.711567   -6.353358    3.060289
     98          1           0        2.440529   -2.536600   -1.232737
     99          1           0        2.330487   -0.867155   -1.886095
    100          1           0        4.364108   -1.443490    0.397958
    101          1           0        4.495619    1.533459   -2.113969
    102          1           0        5.806919    0.082585   -3.181177
    103          1           0        3.884154   -0.150832   -3.051516
    104          1           0        6.448079    1.030404   -0.294681
    105          1           0        6.097239   -0.317242    0.736800
    106          1           0        7.302796   -1.807843   -0.947759
    107          1           0        7.683937   -0.155874   -2.033846
    108          1           0        8.806661    0.929962   -0.130778
    109          1           0        8.649461   -0.564345    0.481144
    110          1           0       10.181167   -0.483849   -1.814586
    111          1           0        9.059895   -2.736304   -1.139292
    112          1           0       10.910550   -2.838648   -1.205015
    113          1           0        9.897365   -2.849248    0.277732
    114          1           0       11.349740    0.979018   -0.279951
    115          1           0       11.208777   -0.182415    1.089087
    116          1           0       12.962503   -1.717619   -0.675990
    117          1           0       12.667223   -0.587747   -1.852845
    118          1           0       13.712469    1.126013   -0.012830
    119          1           0       13.738937   -0.324809    1.177675
    120          1           0       15.339037    0.149140   -1.508746
    121          1           0       15.105298   -2.446346   -0.621221
    122          1           0       16.531983   -1.976887   -0.862362
    123          1           0       15.823180   -1.902000    0.672257
    124          1           0       15.738634    1.838254    0.368212
    125          1           0       16.333522    0.416978    1.362272
    126          1           0       17.979653   -0.420428    0.079209
    127          1           0       17.703079    0.847746   -1.481384
    128          1           0       17.885018    2.730411    0.301859
    129          1           0       18.592663    1.329038    1.600763
    130          1           0       20.601458    0.845150    0.329595
    131          1           0       19.451335    3.622982   -1.544641
    132          1           0       21.124838    2.437031   -1.912323
    133          1           0       19.655453    1.775242   -2.102954
    134          1           0       20.842256    2.616824    2.124990
    135          1           0       22.111572    2.834271    0.549865
    136          1           0       20.692057    3.970249    0.837915
    137          1           0       -7.126120    1.847302    0.666186
    138          1           0       -7.607980   -0.240759   -0.207686
 ---------------------------------------------------------------------

 SCF Done:  E(RB3LYP) =  -2732.90479197     A.U. after   16 cycles

 Excitation energies and oscillator strengths:

 Excited State   1:      Singlet-A      2.0416 eV  607.28 nm  f=0.1608  <S**2>=0.000
     235 -> 237       -0.15846
     235 -> 238       -0.29480
     236 -> 237        0.60613
     236 -> 238       -0.13987
 This state for optimization and/or second-order correction.
 Total Energy, E(TD-HF/TD-DFT) =  -2732.82976362
 Copying the excited state density for this state as the 1-particle RhoCI density.

 The electronic state is 1-A.
 Alpha  occ. eigenvalues --  -19.19187 -19.17517 -19.12445 -19.12117 -19.11893
 Alpha  occ. eigenvalues --  -14.37210 -14.36669 -14.31624 -14.30054 -10.31559
 Alpha  occ. eigenvalues --  -10.31155 -10.27907 -10.26043 -10.25129 -10.24184
 Alpha  occ. eigenvalues --  -10.24106 -10.23406 -10.23391 -10.22998 -10.22772
 Alpha  occ. eigenvalues --  -10.22713 -10.21973 -10.21916 -10.21872 -10.21462
 Alpha  occ. eigenvalues --  -10.21317 -10.21279 -10.21234 -10.20985 -10.20958
 Alpha  occ. eigenvalues --  -10.20905 -10.20875 -10.20704 -10.20645 -10.20613
 Alpha  occ. eigenvalues --  -10.20561 -10.20557 -10.20414 -10.20385 -10.20377
 Alpha  occ. eigenvalues --  -10.20210 -10.20193 -10.20163 -10.20064 -10.19683
 Alpha  occ. eigenvalues --  -10.19480 -10.19463 -10.19314 -10.19222 -10.19172
 Alpha  occ. eigenvalues --  -10.19106 -10.19079 -10.19064 -10.19056 -10.18753
 Alpha  occ. eigenvalues --  -10.18746 -10.18656 -10.18464 -10.18437 -10.18415
 Alpha  occ. eigenvalues --  -10.18095 -10.17910 -10.16274 -10.16183  -1.09878
 Alpha  occ. eigenvalues --   -1.09603  -1.02450  -1.01786  -1.00492  -0.99841
 Alpha  occ. eigenvalues --   -0.98084  -0.95120  -0.93352  -0.85002  -0.83124
 Alpha  occ. eigenvalues --   -0.82177  -0.81938  -0.81398  -0.80829  -0.80412
 Alpha  occ. eigenvalues --   -0.80179  -0.80054  -0.79343  -0.78987  -0.77776
 Alpha  occ. eigenvalues --   -0.76674  -0.76453  -0.75873  -0.75142  -0.74386
 Alpha  occ. eigenvalues --   -0.73910  -0.73054  -0.72295  -0.70964  -0.70249
 Alpha  occ. eigenvalues --   -0.69921  -0.68910  -0.68552  -0.68079  -0.67707
 Alpha  occ. eigenvalues --   -0.66866  -0.66310  -0.65877  -0.65672  -0.65061
 Alpha  occ. eigenvalues --   -0.63992  -0.63804  -0.62422  -0.62006  -0.61868
 Alpha  occ. eigenvalues --   -0.60899  -0.58837  -0.58203  -0.57981  -0.56740
 Alpha  occ. eigenvalues --   -0.56684  -0.56189  -0.55861  -0.55553  -0.54962
 Alpha  occ. eigenvalues --   -0.54867  -0.54424  -0.53457  -0.53084  -0.52701
 Alpha  occ. eigenvalues --   -0.52617  -0.51832  -0.51438  -0.51049  -0.50251
 Alpha  occ. eigenvalues --   -0.50144  -0.49574  -0.49100  -0.48894  -0.48658
 Alpha  occ. eigenvalues --   -0.48465  -0.48183  -0.47966  -0.47280  -0.46958
 Alpha  occ. eigenvalues --   -0.46533  -0.46454  -0.45983  -0.45697  -0.45493
 Alpha  occ. eigenvalues --   -0.45148  -0.45115  -0.44721  -0.44657  -0.44389
 Alpha  occ. eigenvalues --   -0.44317  -0.44034  -0.43859  -0.43562  -0.43315
 Alpha  occ. eigenvalues --   -0.43202  -0.42954  -0.42784  -0.42494  -0.42363
 Alpha  occ. eigenvalues --   -0.42142  -0.41991  -0.41788  -0.41391  -0.40937
 Alpha  occ. eigenvalues --   -0.40696  -0.40663  -0.40496  -0.40405  -0.40260
 Alpha  occ. eigenvalues --   -0.40116  -0.39904  -0.39612  -0.39338  -0.39165
 Alpha  occ. eigenvalues --   -0.39040  -0.38823  -0.38585  -0.38538  -0.38424
 Alpha  occ. eigenvalues --   -0.37987  -0.37635  -0.37619  -0.37560  -0.37274
 Alpha  occ. eigenvalues --   -0.36846  -0.36776  -0.36685  -0.36397  -0.36035
 Alpha  occ. eigenvalues --   -0.35734  -0.35667  -0.35536  -0.35443  -0.35378
 Alpha  occ. eigenvalues --   -0.35046  -0.34973  -0.34780  -0.34508  -0.34471
 Alpha  occ. eigenvalues --   -0.34169  -0.34138  -0.33728  -0.33639  -0.33476
 Alpha  occ. eigenvalues --   -0.33394  -0.33091  -0.32939  -0.32604  -0.32411
 Alpha  occ. eigenvalues --   -0.32303  -0.31936  -0.31928  -0.31508  -0.30959
 Alpha  occ. eigenvalues --   -0.30928  -0.30642  -0.30587  -0.30534  -0.30140
 Alpha  occ. eigenvalues --   -0.29561  -0.29295  -0.28078  -0.27960  -0.27929
 Alpha  occ. eigenvalues --   -0.27656  -0.27296  -0.26950  -0.26548  -0.26016
 Alpha  occ. eigenvalues --   -0.24736  -0.24306  -0.24091  -0.22394  -0.19904
 Alpha  occ. eigenvalues --   -0.18336
 Alpha virt. eigenvalues --   -0.09763  -0.07797  -0.04020  -0.02170  -0.01151
 Alpha virt. eigenvalues --   -0.00288   0.00507   0.01012   0.02312   0.02960
 Alpha virt. eigenvalues --    0.03086   0.03553   0.03594   0.04006   0.04213

 Mulliken charges:
               1
     1  C    0.014462
     2  C   -0.006084
     3  C   -0.133265
     4  C   -0.055728
     5  N   -0.127859
     6  C   -0.088322
     7  C   -0.112901
     8  C    0.010451
     9  C    0.004741
    10  C   -0.005283
    11  C    0.061371
    12  C   -0.006672
    13  C    0.167563
    14  O   -0.200386
    15  O   -0.319208
    16  N   -0.027475
    17  C    0.039858
    18  C   -0.070480
    19  C    0.086817
    20  C    0.151308
    21  C   -0.089363
    22  C   -0.099035
    23  C   -0.003370
    24  N   -0.223515
    25  C    0.027644
    26  C   -0.076698
    27  C   -0.028121
    28  C   -0.024160
    29  C   -0.068464
    30  C    0.063226
    31  C   -0.024820
    32  N    0.115708
    33  C    0.040558
    34  C   -0.240743
    35  C    0.067061
    36  C    0.006953
    37  C    0.085795
    38  C    0.014148
    39  O   -0.183699
    40  C   -0.028032
    41  C    0.236001
    42  O   -0.248294
    43  O   -0.284351
    44  C    0.222812
    45  C    0.306649
    46  C   -0.063861
    47  C   -0.140525
    48  C   -0.090639
    49  C    0.148497
    50  C   -0.141059
    51  C    0.235342
    52  C   -0.004726
    53  C    0.014205
    54  C   -0.025944
    55  C   -0.002232
    56  C    0.037897
    57  C   -0.028491
    58  C    0.082492
    59  C    0.004084
    60  C   -0.088262
    61  C   -0.012718
    62  C   -0.053332
    63  C   -0.027588
    64  C   -0.020848
    65  H   -0.032308
    66  H    0.004992
    67  H   -0.006586
    68  H    0.040788
    69  H    0.013561
    70  H    0.044529
    71  H    0.004086
    72  H    0.045065
    73  H    0.009399
    74  H    0.002769
    75  H    0.010188
    76  H    0.027235
    77  H    0.051052
    78  H    0.038514
    79  H    0.062105
    80  H    0.030694
    81  H    0.013755
    82  H   -0.008695
    83  H    0.052621
    84  H    0.042406
    85  H    0.045196
    86  H    0.001093
    87  H   -0.027874
    88  H    0.014010
    89  H    0.024066
    90  H    0.014288
    91  H    0.027855
    92  H    0.052925
    93  H    0.064850
    94  H    0.115707
    95  H   -0.042513
    96  H    0.049212
    97  H    0.080269
    98  H    0.023998
    99  H    0.007762
   100  H   -0.036997
   101  H    0.054207
   102  H    0.070607
   103  H    0.044553
   104  H   -0.012023
   105  H   -0.010168
   106  H    0.029747
   107  H    0.023852
   108  H   -0.000222
   109  H   -0.162668
   110  H   -0.025104
   111  H    0.003042
   112  H    0.023831
   113  H    0.002953
   114  H    0.002825
   115  H    0.007826
   116  H   -0.016681
   117  H   -0.009565
   118  H   -0.006733
   119  H    0.010504
   120  H   -0.001660
   121  H   -0.028763
   122  H   -0.008833
   123  H   -0.029309
   124  H    0.007603
   125  H   -0.011650
   126  H    0.016405
   127  H    0.015792
   128  H    0.022504
   129  H    0.009995
   130  H    0.020883
   131  H    0.026404
   132  H    0.012730
   133  H    0.007933
   134  H    0.028989
   135  H    0.018592
   136  H    0.019864
   137  H    0.113176
   138  H    0.099455
 Sum of Mulliken charges =  -0.00000

 Dipole moment (field-independent basis, Debye):
    X=              2.9478    Y=              2.3522    Z=              0.5523  Tot=              3.8115
 Quadrupole moment (field-independent basis, Debye-Ang):
   XX=           -354.4000   YY=           -380.1399   ZZ=           -397.7300
   XY=            -34.7508   XZ=             13.0002   YZ=             -4.3876

 Normal termination of Gaussian 16 at Mon Aug 19 19:10:06 2019.
