 Gaussian 16, Revision A.03,
 Gaussian 16:  ES64L-G16RevA.03 25-Dec-2016

 --------------------------
 # td=(NStates=1) B3LYP/SVP
 --------------------------

 --
 TD
 --
 Symbolic Z-matrix:
 Charge =  0 Multiplicity = 1

                         Standard orientation:
 ---------------------------------------------------------------------
 Center     Atomic      Atomic             Coordinates (Angstroms)
 Number     Number       Type             X           Y           Z
 ---------------------------------------------------------------------
      1          6           0       -5.231047   -1.982029    0.357203
      2          6           0       -4.626999    2.638108    1.472715
      3          6           0       -9.141159    3.494503   -0.139492
      4          6           0       -9.824572   -1.261634   -0.933495
      5          7           0       -5.101579    0.372667    0.799034
      6          6           0       -4.549702   -0.819474    0.817120
      7          6           0       -3.058551   -0.773684    1.224067
      8          6           0       -3.038468    0.783628    1.877150
      9          6           0       -4.319726    1.305231    1.273795
     10          6           0       -3.018275    0.800762    3.392244
     11          6           0       -2.138701   -0.856824    0.036325
     12          6           0       -0.645485   -0.916048    0.569912
     13          6           0        0.350753   -1.154470   -0.550933
     14          8           0        0.081571   -1.489566   -1.677078
     15          8           0        1.591904   -1.081722   -0.148921
     16          7           0       -6.889152    2.824318    0.409141
     17          6           0       -5.780805    3.414237    1.028702
     18          6           0       -5.963168    4.857260    1.070865
     19          6           0       -7.265782    5.142080    0.534159
     20          6           0       -7.919861    3.777171    0.265498
     21          6           0       -4.963143    5.906174    1.433304
     22          6           0       -7.786757    6.401967    0.329166
     23          6           0       -8.862602    6.616823   -0.552319
     24          7           0       -9.183238    0.990193   -0.573162
     25          6           0       -9.804937    2.226439   -0.454008
     26          6           0      -11.178255    2.110497   -0.844477
     27          6           0      -11.346574    0.764090   -1.122657
     28          6           0      -10.139022    0.048238   -0.898170
     29          6           0      -12.137677    3.231242   -0.919193
     30          6           0      -12.630412    0.025910   -1.573206
     31          6           0      -12.538095   -0.334617   -3.140855
     32          7           0       -7.528081   -1.144416   -0.403660
     33          6           0       -8.618141   -1.930726   -0.779751
     34          6           0       -8.270239   -3.281874   -0.750682
     35          6           0       -6.968646   -3.313210   -0.285728
     36          6           0       -6.442871   -2.018018   -0.105475
     37          6           0       -9.294030   -4.388433   -1.012934
     38          6           0       -5.929890   -4.348337    0.091022
     39          8           0       -5.958065   -5.538078    0.029424
     40          6           0       -4.698103   -3.489961    0.417451
     41          6           0       -4.071942   -3.842282    1.728522
     42          8           0       -4.110091   -3.395060    2.868213
     43          8           0       -3.223365   -4.904015    1.532351
     44          6           0       -2.617748   -5.542114    2.711157
     45          6           0        2.633469   -1.352841   -1.121317
     46          6           0        3.919349   -1.004638   -0.533118
     47          6           0        4.961293   -0.166237   -1.004689
     48          6           0        4.810574    0.530018   -2.299530
     49          6           0        6.238398    0.133070   -0.364252
     50          6           0        7.391711   -0.623489   -0.952752
     51          6           0        8.695029   -0.374245   -0.226405
     52          6           0        9.981853   -0.951745   -0.847800
     53          6           0        9.962049   -2.436888   -1.101423
     54          6           0       11.265077   -0.395824    0.014635
     55          6           0       12.660336   -0.588643   -0.655527
     56          6           0       13.866664   -0.052077    0.250596
     57          6           0       15.212962   -0.151295   -0.447975
     58          6           0       15.704817   -1.593423   -0.640549
     59          6           0       16.194289    0.537164    0.462752
     60          6           0       17.671286    0.814264   -0.069515
     61          6           0       18.578442    1.700501    0.767746
     62          6           0       20.005267    1.841788    0.131162
     63          6           0       20.036993    2.556625   -1.296763
     64          6           0       20.970111    2.609533    1.048622
     65          1           0       -3.766163    3.384175    1.721499
     66          1           0      -10.050734    4.143216    0.042763
     67          1           0      -10.612658   -1.817195   -1.253838
     68          1           0       -2.769846   -1.564823    1.912061
     69          1           0       -2.101910    1.515987    1.620374
     70          1           0       -2.079591    0.311607    3.876514
     71          1           0       -3.342980    1.943510    3.723977
     72          1           0       -3.817332    0.352252    3.900343
     73          1           0       -2.360912   -1.617244   -0.565822
     74          1           0       -2.356238   -0.089673   -0.584071
     75          1           0       -0.253294   -0.090261    1.086603
     76          1           0       -0.576724   -1.672519    1.218268
     77          1           0       -4.079790    5.917557    0.672287
     78          1           0       -5.241302    6.735777    1.411112
     79          1           0       -4.646602    5.657826    2.459565
     80          1           0       -7.381509    7.244579    0.975167
     81          1           0       -9.334737    5.938728   -1.228015
     82          1           0       -9.535931    7.640926   -0.595553
     83          1           0      -12.219160    3.887238   -0.038185
     84          1           0      -11.774116    3.785645   -1.883576
     85          1           0      -13.197217    2.986330   -1.234219
     86          1           0      -12.650587   -0.906862   -1.051438
     87          1           0      -13.565722    0.736373   -1.534560
     88          1           0      -12.591040    0.413700   -3.916047
     89          1           0      -11.502911   -0.857646   -3.464376
     90          1           0      -13.382796   -1.153818   -3.344946
     91          1           0      -10.132876   -4.537484   -0.420988
     92          1           0       -9.570816   -4.376595   -2.107312
     93          1           0       -8.779491   -5.389912   -1.047366
     94          1           0       -3.835217   -3.716128   -0.425238
     95          1           0       -1.710902   -6.208116    2.396018
     96          1           0       -2.074481   -4.964005    3.595477
     97          1           0       -3.330357   -6.336582    3.164551
     98          1           0        2.666153   -2.502504   -1.402444
     99          1           0        2.343457   -0.853697   -2.059171
    100          1           0        4.371623   -1.599963    0.423890
    101          1           0        4.897940    1.705802   -2.199790
    102          1           0        5.648638    0.301731   -3.028263
    103          1           0        3.976774    0.280035   -3.036689
    104          1           0        6.575724    1.154510   -0.298434
    105          1           0        6.168669   -0.324629    0.763009
    106          1           0        7.061239   -1.709688   -0.831225
    107          1           0        7.503287   -0.199574   -1.969315
    108          1           0        9.047650    0.702788   -0.203625
    109          1           0        8.740953   -0.982882    0.812696
    110          1           0       10.237990   -0.342308   -1.816248
    111          1           0        9.216322   -2.984252   -1.816361
    112          1           0       10.878241   -2.706503   -1.464221
    113          1           0        9.806109   -2.807722   -0.032135
    114          1           0       11.036982    0.656071    0.275332
    115          1           0       11.194325   -0.993424    1.118524
    116          1           0       12.689447   -1.672520   -0.796415
    117          1           0       12.725605    0.081734   -1.663514
    118          1           0       13.572754    0.965124    0.590726
    119          1           0       13.959169   -0.694124    1.174974
    120          1           0       15.261636    0.580059   -1.418711
    121          1           0       15.076414   -2.095037   -1.337593
    122          1           0       16.867383   -1.718914   -0.883963
    123          1           0       15.358629   -2.243309    0.364329
    124          1           0       15.863190    1.548431    0.843897
    125          1           0       16.310592    0.293553    1.516988
    126          1           0       18.218349   -0.111772   -0.076968
    127          1           0       17.576237    1.222930   -1.052811
    128          1           0       17.986288    2.618170    0.709233
    129          1           0       18.519787    1.554683    1.714429
    130          1           0       20.161714    0.902680    0.071878
    131          1           0       19.856385    3.734167   -1.021169
    132          1           0       21.099651    2.502607   -1.722442
    133          1           0       19.278991    2.231075   -2.111511
    134          1           0       21.166193    1.787194    2.028817
    135          1           0       21.888713    3.009324    0.528512
    136          1           0       20.485387    3.670887    1.556605
    137          1           0       -6.961096    1.897527    0.217928
    138          1           0       -7.584837   -0.120081   -0.086590
 ---------------------------------------------------------------------

 SCF Done:  E(RB3LYP) =  -2733.01098867     A.U. after   17 cycles

 Excitation energies and oscillator strengths:

 Excited State   1:      Singlet-A      2.0615 eV  601.42 nm  f=0.1653  <S**2>=0.000
     235 -> 237       -0.26095
     235 -> 238        0.26757
     236 -> 237        0.53857
     236 -> 238        0.24495
 This state for optimization and/or second-order correction.
 Total Energy, E(TD-HF/TD-DFT) =  -2732.93522922
 Copying the excited state density for this state as the 1-particle RhoCI density.

 The electronic state is 1-A.
 Alpha  occ. eigenvalues --  -19.17534 -19.17391 -19.12952 -19.12436 -19.11087
 Alpha  occ. eigenvalues --  -14.37024 -14.35815 -14.32057 -14.28860 -10.32056
 Alpha  occ. eigenvalues --  -10.30482 -10.28391 -10.26052 -10.25788 -10.25261
 Alpha  occ. eigenvalues --  -10.24372 -10.23416 -10.23364 -10.22758 -10.22745
 Alpha  occ. eigenvalues --  -10.22405 -10.21863 -10.21626 -10.21599 -10.21531
 Alpha  occ. eigenvalues --  -10.21353 -10.21341 -10.21226 -10.21189 -10.21105
 Alpha  occ. eigenvalues --  -10.20471 -10.20470 -10.20410 -10.20298 -10.20256
 Alpha  occ. eigenvalues --  -10.20239 -10.20211 -10.20145 -10.20143 -10.20133
 Alpha  occ. eigenvalues --  -10.20074 -10.20036 -10.20006 -10.19984 -10.19905
 Alpha  occ. eigenvalues --  -10.19687 -10.19613 -10.19610 -10.19492 -10.19394
 Alpha  occ. eigenvalues --  -10.19269 -10.19259 -10.19217 -10.19054 -10.18994
 Alpha  occ. eigenvalues --  -10.18876 -10.18553 -10.18331 -10.18294 -10.18115
 Alpha  occ. eigenvalues --  -10.17752 -10.17600 -10.17234 -10.16288  -1.10510
 Alpha  occ. eigenvalues --   -1.08276  -1.04438  -0.99880  -0.98709  -0.97268
 Alpha  occ. eigenvalues --   -0.96728  -0.95883  -0.92324  -0.85614  -0.83330
 Alpha  occ. eigenvalues --   -0.82821  -0.81873  -0.81206  -0.80960  -0.80507
 Alpha  occ. eigenvalues --   -0.79857  -0.79831  -0.79377  -0.78021  -0.77705
 Alpha  occ. eigenvalues --   -0.77361  -0.76063  -0.75486  -0.74835  -0.74304
 Alpha  occ. eigenvalues --   -0.73515  -0.73290  -0.72216  -0.71929  -0.71741
 Alpha  occ. eigenvalues --   -0.70521  -0.68747  -0.68649  -0.67896  -0.67365
 Alpha  occ. eigenvalues --   -0.66936  -0.66282  -0.66103  -0.65322  -0.64881
 Alpha  occ. eigenvalues --   -0.64607  -0.63128  -0.62995  -0.61632  -0.61254
 Alpha  occ. eigenvalues --   -0.60737  -0.59052  -0.58818  -0.57776  -0.57761
 Alpha  occ. eigenvalues --   -0.57349  -0.56923  -0.56667  -0.55928  -0.55373
 Alpha  occ. eigenvalues --   -0.55056  -0.54701  -0.54425  -0.53511  -0.53119
 Alpha  occ. eigenvalues --   -0.52952  -0.52100  -0.50997  -0.50724  -0.50161
 Alpha  occ. eigenvalues --   -0.50018  -0.49644  -0.49558  -0.48657  -0.48480
 Alpha  occ. eigenvalues --   -0.47849  -0.47731  -0.47463  -0.47018  -0.46859
 Alpha  occ. eigenvalues --   -0.46729  -0.46530  -0.45922  -0.45846  -0.45740
 Alpha  occ. eigenvalues --   -0.45571  -0.45338  -0.45132  -0.44904  -0.44657
 Alpha  occ. eigenvalues --   -0.44027  -0.43792  -0.43678  -0.43508  -0.43263
 Alpha  occ. eigenvalues --   -0.43195  -0.43178  -0.42865  -0.42787  -0.42712
 Alpha  occ. eigenvalues --   -0.42398  -0.42208  -0.42064  -0.41875  -0.41688
 Alpha  occ. eigenvalues --   -0.41494  -0.41197  -0.40950  -0.40739  -0.40667
 Alpha  occ. eigenvalues --   -0.40384  -0.39969  -0.39702  -0.39621  -0.39211
 Alpha  occ. eigenvalues --   -0.39033  -0.38950  -0.38769  -0.38459  -0.38319
 Alpha  occ. eigenvalues --   -0.37827  -0.37781  -0.37649  -0.37281  -0.37182
 Alpha  occ. eigenvalues --   -0.37006  -0.36922  -0.36626  -0.36533  -0.36477
 Alpha  occ. eigenvalues --   -0.36212  -0.36175  -0.35995  -0.35847  -0.35533
 Alpha  occ. eigenvalues --   -0.35308  -0.35293  -0.35084  -0.34929  -0.34527
 Alpha  occ. eigenvalues --   -0.34399  -0.34287  -0.34126  -0.34108  -0.33664
 Alpha  occ. eigenvalues --   -0.33618  -0.33325  -0.32808  -0.32612  -0.32572
 Alpha  occ. eigenvalues --   -0.32414  -0.32255  -0.32114  -0.31621  -0.31484
 Alpha  occ. eigenvalues --   -0.31272  -0.30654  -0.30487  -0.30247  -0.29794
 Alpha  occ. eigenvalues --   -0.29735  -0.29638  -0.28891  -0.28544  -0.27624
 Alpha  occ. eigenvalues --   -0.27291  -0.26992  -0.26466  -0.26141  -0.25673
 Alpha  occ. eigenvalues --   -0.25004  -0.23952  -0.23421  -0.21823  -0.20432
 Alpha  occ. eigenvalues --   -0.18696
 Alpha virt. eigenvalues --   -0.10198  -0.08692  -0.05098  -0.02811  -0.01864
 Alpha virt. eigenvalues --   -0.01124   0.00412   0.01532   0.02187   0.03712
 Alpha virt. eigenvalues --    0.03925   0.04155   0.04243   0.04502   0.04626

 Mulliken charges:
               1
     1  C   -0.041912
     2  C   -0.074248
     3  C   -0.103638
     4  C   -0.026535
     5  N   -0.090313
     6  C   -0.106705
     7  C   -0.067173
     8  C   -0.103869
     9  C    0.020539
    10  C    0.042266
    11  C    0.218675
    12  C    0.134097
    13  C    0.127427
    14  O   -0.247981
    15  O   -0.281470
    16  N   -0.052315
    17  C    0.068180
    18  C   -0.174338
    19  C    0.093002
    20  C    0.185598
    21  C    0.274339
    22  C   -0.091215
    23  C   -0.079007
    24  N   -0.289278
    25  C   -0.040471
    26  C   -0.107102
    27  C   -0.066899
    28  C    0.069090
    29  C    0.046409
    30  C    0.093620
    31  C   -0.083993
    32  N   -0.144522
    33  C    0.103312
    34  C   -0.126171
    35  C   -0.083425
    36  C    0.213638
    37  C    0.112582
    38  C    0.110871
    39  O   -0.126819
    40  C   -0.088975
    41  C    0.224112
    42  O   -0.230308
    43  O   -0.322842
    44  C    0.113848
    45  C    0.260444
    46  C   -0.092058
    47  C   -0.107826
    48  C   -0.007328
    49  C    0.051134
    50  C    0.044198
    51  C   -0.008287
    52  C   -0.120998
    53  C    0.066085
    54  C   -0.059866
    55  C    0.033810
    56  C   -0.003455
    57  C   -0.026922
    58  C    0.003739
    59  C    0.003514
    60  C    0.031353
    61  C    0.097481
    62  C    0.034015
    63  C   -0.074301
    64  C   -0.066058
    65  H    0.011896
    66  H    0.012207
    67  H   -0.079391
    68  H    0.007041
    69  H    0.027412
    70  H    0.035781
    71  H    0.012208
    72  H   -0.000974
    73  H   -0.045972
    74  H   -0.040998
    75  H    0.002657
    76  H   -0.015979
    77  H    0.041207
    78  H   -0.135409
    79  H    0.029991
    80  H    0.030890
    81  H    0.033727
    82  H    0.043064
    83  H    0.043015
    84  H    0.035284
    85  H    0.009865
    86  H    0.006158
    87  H    0.023138
    88  H    0.015985
    89  H    0.023431
    90  H    0.021336
    91  H    0.026208
    92  H    0.019889
    93  H    0.021048
    94  H    0.112213
    95  H    0.032773
    96  H    0.055718
    97  H    0.049851
    98  H    0.041247
    99  H    0.025983
   100  H    0.014124
   101  H    0.029799
   102  H    0.018266
   103  H    0.019507
   104  H   -0.003570
   105  H    0.004191
   106  H    0.013601
   107  H   -0.002531
   108  H    0.004936
   109  H    0.009176
   110  H   -0.011843
   111  H    0.032733
   112  H   -0.016559
   113  H    0.002680
   114  H   -0.000792
   115  H    0.002279
   116  H    0.011897
   117  H    0.020798
   118  H    0.003241
   119  H    0.002335
   120  H    0.014575
   121  H    0.001245
   122  H    0.051276
   123  H    0.014133
   124  H   -0.039741
   125  H   -0.038411
   126  H   -0.014284
   127  H   -0.013319
   128  H   -0.036345
   129  H   -0.070747
   130  H   -0.058991
   131  H    0.024953
   132  H    0.027366
   133  H    0.038890
   134  H    0.030207
   135  H    0.030177
   136  H    0.029928
   137  H    0.084227
   138  H    0.179344
 Sum of Mulliken charges =  -0.00000

 Dipole moment (field-independent basis, Debye):
    X=              2.5444    Y=              4.4624    Z=              0.2493  Tot=              5.1429
 Quadrupole moment (field-independent basis, Debye-Ang):
   XX=           -353.1650   YY=           -377.7855   ZZ=           -398.3362
   XY=            -31.3115   XZ=              1.5428   YZ=             -0.0529

 Normal termination of Gaussian 16 at Wed Aug 28 00:01:10 2019.
