 Gaussian 16, Revision A.03,
 Gaussian 16:  ES64L-G16RevA.03 25-Dec-2016

 --------------------------
 # td=(NStates=1) B3LYP/SVP
 --------------------------

 --
 TD
 --
 Symbolic Z-matrix:
 Charge =  0 Multiplicity = 1

                         Standard orientation:
 ---------------------------------------------------------------------
 Center     Atomic      Atomic             Coordinates (Angstroms)
 Number     Number       Type             X           Y           Z
 ---------------------------------------------------------------------
      1          6           0       -5.126509   -1.987122    0.419725
      2          6           0       -4.759454    2.721325    1.356872
      3          6           0       -9.303046    3.336106   -0.279239
      4          6           0       -9.841014   -1.516936   -0.814838
      5          7           0       -5.216376    0.380030    0.889293
      6          6           0       -4.444900   -0.782720    0.791675
      7          6           0       -3.038776   -0.542402    1.277046
      8          6           0       -3.136224    0.806237    1.824319
      9          6           0       -4.489002    1.367237    1.303355
     10          6           0       -2.945759    0.978281    3.382592
     11          6           0       -2.019360   -0.704620    0.118031
     12          6           0       -0.535455   -0.792094    0.450075
     13          6           0        0.388182   -1.138278   -0.733918
     14          8           0        0.158522   -1.564309   -1.767786
     15          8           0        1.693002   -0.738549   -0.307527
     16          7           0       -7.047749    2.758941    0.579262
     17          6           0       -5.957050    3.393529    1.048313
     18          6           0       -6.320742    4.832876    1.070702
     19          6           0       -7.658189    5.012643    0.463511
     20          6           0       -8.045549    3.662861    0.205626
     21          6           0       -5.357157    5.863591    1.491584
     22          6           0       -8.253122    6.188966    0.293756
     23          6           0       -9.108705    6.573963   -0.666674
     24          7           0       -9.133866    0.785492   -0.538947
     25          6           0       -9.868612    1.979853   -0.601136
     26          6           0      -11.255371    1.895655   -0.920209
     27          6           0      -11.397808    0.571142   -1.117540
     28          6           0      -10.111092   -0.125812   -0.818571
     29          6           0      -12.269134    3.002729   -1.127238
     30          6           0      -12.645904   -0.135771   -1.459315
     31          6           0      -12.654200   -0.514004   -2.939893
     32          7           0       -7.566266   -1.309754   -0.287649
     33          6           0       -8.648787   -2.146348   -0.598075
     34          6           0       -8.119924   -3.489966   -0.614038
     35          6           0       -6.760678   -3.437801   -0.301337
     36          6           0       -6.422149   -2.069942   -0.014379
     37          6           0       -8.975235   -4.583106   -1.045796
     38          6           0       -5.632484   -4.297281   -0.075822
     39          8           0       -5.526520   -5.511379   -0.183716
     40          6           0       -4.528921   -3.278482    0.380196
     41          6           0       -3.991039   -3.809060    1.707258
     42          8           0       -4.308357   -3.498347    2.788504
     43          8           0       -3.117206   -4.793356    1.467723
     44          6           0       -2.626328   -5.499734    2.584904
     45          6           0        2.747044   -0.971603   -1.278323
     46          6           0        4.021396   -0.646371   -0.604289
     47          6           0        5.022927    0.165568   -1.139219
     48          6           0        4.862106    0.892256   -2.308132
     49          6           0        6.213790    0.458514   -0.321129
     50          6           0        7.566065   -0.083142   -0.937094
     51          6           0        8.740526   -0.133668    0.026316
     52          6           0       10.050158   -0.778931   -0.590768
     53          6           0        9.986355   -2.244488   -0.921429
     54          6           0       11.375248   -0.271839    0.156132
     55          6           0       12.679990   -0.510020   -0.352777
     56          6           0       13.872958   -0.139632    0.419864
     57          6           0       15.243765   -0.189069   -0.368921
     58          6           0       15.546384   -1.628044   -0.530711
     59          6           0       16.326307    0.496137    0.492369
     60          6           0       17.769271    0.569351   -0.186536
     61          6           0       18.698816    1.488744    0.626997
     62          6           0       20.117905    1.677843    0.081338
     63          6           0       20.071275    2.167890   -1.419541
     64          6           0       21.054357    2.499357    0.989256
     65          1           0       -4.059644    3.447934    1.904597
     66          1           0      -10.004877    4.036661   -0.579651
     67          1           0      -10.893286   -2.050213   -0.919836
     68          1           0       -2.627541   -1.208905    2.133368
     69          1           0       -2.300496    1.438963    1.278300
     70          1           0       -2.101240    0.440959    3.799106
     71          1           0       -2.949915    1.960391    3.429509
     72          1           0       -3.906993    0.509258    3.862370
     73          1           0       -2.258768   -1.579939   -0.333294
     74          1           0       -2.166276    0.104174   -0.699913
     75          1           0       -0.167665    0.174926    0.797663
     76          1           0       -0.443243   -1.597221    1.282600
     77          1           0       -4.370294    5.673651    1.013111
     78          1           0       -5.829824    6.903982    1.580686
     79          1           0       -5.030947    5.683941    2.693639
     80          1           0       -7.833761    7.108103    1.014333
     81          1           0       -9.451204    5.981754   -1.630533
     82          1           0       -9.643538    7.524439   -0.445635
     83          1           0      -12.551412    3.626367   -0.384337
     84          1           0      -11.912113    3.644085   -2.005831
     85          1           0      -13.113310    2.579787   -1.332973
     86          1           0      -12.851779   -1.127236   -0.706635
     87          1           0      -13.499176    0.451494   -1.157937
     88          1           0      -12.918275    0.502853   -3.544068
     89          1           0      -11.617827   -1.050931   -3.176215
     90          1           0      -13.321714   -1.149913   -2.992898
     91          1           0       -9.885039   -4.665495   -0.404928
     92          1           0       -9.318073   -4.857569   -2.206163
     93          1           0       -8.256997   -5.376357   -0.996185
     94          1           0       -3.723907   -3.422030   -0.204190
     95          1           0       -1.840913   -6.321278    2.350374
     96          1           0       -2.185954   -4.737871    3.416314
     97          1           0       -3.469255   -5.810854    3.143061
     98          1           0        2.724680   -1.957554   -1.753009
     99          1           0        2.655645   -0.255372   -2.196437
    100          1           0        4.125957   -0.983211    0.446988
    101          1           0        5.061525    1.970151   -1.987164
    102          1           0        5.584650    0.670326   -3.141849
    103          1           0        3.862953    0.748707   -2.980688
    104          1           0        6.360764    1.607641   -0.192376
    105          1           0        6.147983    0.097289    0.631238
    106          1           0        7.209730   -1.118370   -1.871907
    107          1           0        7.893502    0.751284   -1.724384
    108          1           0        8.902056    0.875913    0.429288
    109          1           0        8.526059   -0.925756    0.915234
    110          1           0       10.283374   -0.348041   -1.439683
    111          1           0        8.975073   -2.254319   -1.432012
    112          1           0       10.886892   -2.565711   -1.678094
    113          1           0        9.940893   -2.965353   -0.169850
    114          1           0       11.181865    0.692864    0.436246
    115          1           0       11.386004   -0.688484    1.192376
    116          1           0       12.685910   -1.706518   -0.663255
    117          1           0       12.570313   -0.098559   -1.432815
    118          1           0       13.753098    0.999246    0.895438
    119          1           0       14.010139   -0.726398    1.448555
    120          1           0       15.248957    0.189933   -1.427136
    121          1           0       14.856183   -2.073467   -1.175387
    122          1           0       16.502690   -1.907115   -0.849338
    123          1           0       15.634925   -2.289793    0.437956
    124          1           0       16.058016    1.630527    0.701717
    125          1           0       16.291575    0.141283    1.541920
    126          1           0       18.261876   -0.291719   -0.322330
    127          1           0       17.517359    1.049566   -1.082787
    128          1           0       17.804635    2.314551    0.596437
    129          1           0       18.613769    1.167403    1.754282
    130          1           0       20.684582    0.679144    0.010560
    131          1           0       19.768450    3.073484   -1.650805
    132          1           0       21.178434    2.016769   -1.733281
    133          1           0       19.627164    1.496857   -2.227085
    134          1           0       20.797566    2.301886    2.109718
    135          1           0       22.115579    2.333846    0.791509
    136          1           0       20.661796    3.574310    0.837395
    137          1           0       -7.081041    1.808808    0.441437
    138          1           0       -7.854933   -0.255604   -0.185273
 ---------------------------------------------------------------------

 SCF Done:  E(RB3LYP) =  -2732.98353024     A.U. after   17 cycles

 Excitation energies and oscillator strengths:

 Excited State   1:      Singlet-A      1.9801 eV  626.17 nm  f=0.1555  <S**2>=0.000
     235 -> 238        0.32418
     236 -> 237        0.61835
 This state for optimization and/or second-order correction.
 Total Energy, E(TD-HF/TD-DFT) =  -2732.91076458
 Copying the excited state density for this state as the 1-particle RhoCI density.

 The electronic state is 1-A.
 Alpha  occ. eigenvalues --  -19.17376 -19.16139 -19.14258 -19.12281 -19.12258
 Alpha  occ. eigenvalues --  -14.36920 -14.35774 -14.32110 -14.31112 -10.31603
 Alpha  occ. eigenvalues --  -10.30915 -10.27680 -10.25026 -10.24312 -10.24143
 Alpha  occ. eigenvalues --  -10.24111 -10.23772 -10.23567 -10.22853 -10.22649
 Alpha  occ. eigenvalues --  -10.22396 -10.22212 -10.21837 -10.21787 -10.21527
 Alpha  occ. eigenvalues --  -10.21418 -10.21245 -10.20991 -10.20929 -10.20747
 Alpha  occ. eigenvalues --  -10.20652 -10.20589 -10.20528 -10.20324 -10.20323
 Alpha  occ. eigenvalues --  -10.20173 -10.20081 -10.20043 -10.19920 -10.19836
 Alpha  occ. eigenvalues --  -10.19784 -10.19664 -10.19599 -10.19526 -10.19410
 Alpha  occ. eigenvalues --  -10.19325 -10.19102 -10.19053 -10.19029 -10.18935
 Alpha  occ. eigenvalues --  -10.18925 -10.18919 -10.18844 -10.18768 -10.18752
 Alpha  occ. eigenvalues --  -10.18637 -10.18551 -10.18533 -10.18200 -10.18164
 Alpha  occ. eigenvalues --  -10.17796 -10.16739 -10.16506 -10.16450  -1.10981
 Alpha  occ. eigenvalues --   -1.10404  -1.02166  -1.01985  -1.01183  -0.98690
 Alpha  occ. eigenvalues --   -0.96577  -0.95229  -0.93501  -0.86773  -0.83656
 Alpha  occ. eigenvalues --   -0.83213  -0.82258  -0.81795  -0.81087  -0.80826
 Alpha  occ. eigenvalues --   -0.80375  -0.79889  -0.79368  -0.78822  -0.77542
 Alpha  occ. eigenvalues --   -0.76978  -0.76598  -0.76576  -0.75504  -0.74646
 Alpha  occ. eigenvalues --   -0.73985  -0.73611  -0.72855  -0.72281  -0.70982
 Alpha  occ. eigenvalues --   -0.70617  -0.70339  -0.68933  -0.68094  -0.67973
 Alpha  occ. eigenvalues --   -0.67564  -0.67129  -0.65918  -0.65838  -0.65177
 Alpha  occ. eigenvalues --   -0.64894  -0.63856  -0.62371  -0.62155  -0.61861
 Alpha  occ. eigenvalues --   -0.60620  -0.58664  -0.58525  -0.57735  -0.56777
 Alpha  occ. eigenvalues --   -0.56239  -0.56098  -0.55983  -0.55473  -0.55331
 Alpha  occ. eigenvalues --   -0.55197  -0.54568  -0.54185  -0.53676  -0.53111
 Alpha  occ. eigenvalues --   -0.52517  -0.52147  -0.51714  -0.51597  -0.50889
 Alpha  occ. eigenvalues --   -0.49734  -0.49563  -0.49338  -0.49116  -0.48228
 Alpha  occ. eigenvalues --   -0.48082  -0.47887  -0.47823  -0.47406  -0.47090
 Alpha  occ. eigenvalues --   -0.46881  -0.46709  -0.46571  -0.46481  -0.46189
 Alpha  occ. eigenvalues --   -0.46052  -0.45668  -0.45382  -0.45132  -0.44888
 Alpha  occ. eigenvalues --   -0.44476  -0.44235  -0.44205  -0.43959  -0.43882
 Alpha  occ. eigenvalues --   -0.43626  -0.43538  -0.43267  -0.43140  -0.42999
 Alpha  occ. eigenvalues --   -0.42882  -0.42610  -0.42220  -0.42102  -0.41990
 Alpha  occ. eigenvalues --   -0.41734  -0.41155  -0.41005  -0.40795  -0.40615
 Alpha  occ. eigenvalues --   -0.40356  -0.40279  -0.40231  -0.39894  -0.39579
 Alpha  occ. eigenvalues --   -0.39236  -0.39188  -0.39112  -0.38954  -0.38822
 Alpha  occ. eigenvalues --   -0.38630  -0.38286  -0.38158  -0.37828  -0.37634
 Alpha  occ. eigenvalues --   -0.37311  -0.37217  -0.37097  -0.36753  -0.36593
 Alpha  occ. eigenvalues --   -0.36524  -0.36187  -0.36027  -0.35873  -0.35633
 Alpha  occ. eigenvalues --   -0.35389  -0.35338  -0.35222  -0.34965  -0.34734
 Alpha  occ. eigenvalues --   -0.34231  -0.34141  -0.34072  -0.33948  -0.33720
 Alpha  occ. eigenvalues --   -0.33456  -0.33156  -0.33098  -0.33024  -0.32827
 Alpha  occ. eigenvalues --   -0.32438  -0.32385  -0.32069  -0.31618  -0.31518
 Alpha  occ. eigenvalues --   -0.31145  -0.30195  -0.29872  -0.29839  -0.29438
 Alpha  occ. eigenvalues --   -0.29144  -0.28919  -0.28582  -0.28486  -0.28465
 Alpha  occ. eigenvalues --   -0.28125  -0.27886  -0.26799  -0.26053  -0.25543
 Alpha  occ. eigenvalues --   -0.25080  -0.23793  -0.23391  -0.22945  -0.19904
 Alpha  occ. eigenvalues --   -0.19027
 Alpha virt. eigenvalues --   -0.10537  -0.08518  -0.05500  -0.02472  -0.00662
 Alpha virt. eigenvalues --    0.00396   0.00468   0.01333   0.02112   0.02480
 Alpha virt. eigenvalues --    0.03221   0.03683   0.04280   0.04499   0.04696

 Mulliken charges:
               1
     1  C    0.000280
     2  C   -0.064361
     3  C   -0.066833
     4  C   -0.087335
     5  N   -0.148570
     6  C   -0.047601
     7  C   -0.016203
     8  C   -0.104291
     9  C   -0.001036
    10  C    0.137461
    11  C    0.067356
    12  C    0.019979
    13  C    0.169571
    14  O   -0.132024
    15  O   -0.382197
    16  N   -0.005627
    17  C    0.043266
    18  C   -0.133850
    19  C    0.136455
    20  C    0.170857
    21  C    0.019000
    22  C   -0.157180
    23  C   -0.074554
    24  N   -0.272835
    25  C    0.018700
    26  C   -0.161031
    27  C   -0.029675
    28  C   -0.001621
    29  C    0.252816
    30  C   -0.076557
    31  C    0.107039
    32  N   -0.148067
    33  C    0.128320
    34  C   -0.089096
    35  C   -0.017213
    36  C    0.206856
    37  C    0.008498
    38  C    0.054591
    39  O   -0.168377
    40  C   -0.000543
    41  C    0.129209
    42  O   -0.177452
    43  O   -0.284756
    44  C    0.160362
    45  C    0.276364
    46  C   -0.098778
    47  C   -0.119615
    48  C    0.024183
    49  C    0.140278
    50  C   -0.135486
    51  C    0.018131
    52  C    0.009533
    53  C    0.015763
    54  C    0.072222
    55  C    0.015401
    56  C   -0.015775
    57  C   -0.030528
    58  C    0.063705
    59  C   -0.040533
    60  C    0.122155
    61  C   -0.063465
    62  C   -0.060296
    63  C    0.025273
    64  C    0.015015
    65  H   -0.002756
    66  H   -0.078069
    67  H    0.010120
    68  H    0.020623
    69  H    0.000349
    70  H    0.021283
    71  H   -0.029918
    72  H    0.031935
    73  H   -0.027842
    74  H    0.014634
    75  H    0.030509
    76  H    0.045132
    77  H    0.048875
    78  H    0.033705
    79  H    0.029361
    80  H    0.039322
    81  H    0.060570
    82  H    0.029385
    83  H   -0.010237
    84  H    0.030655
    85  H   -0.069056
    86  H    0.020923
    87  H   -0.003933
    88  H    0.036575
    89  H    0.038360
    90  H   -0.059164
    91  H    0.041377
    92  H    0.052196
    93  H    0.021792
    94  H    0.000879
    95  H    0.063442
    96  H    0.020751
    97  H    0.013028
    98  H    0.025277
    99  H    0.005694
   100  H   -0.005233
   101  H    0.027757
   102  H    0.023135
   103  H    0.028944
   104  H    0.009047
   105  H   -0.037181
   106  H    0.041735
   107  H    0.017230
   108  H    0.011909
   109  H    0.021602
   110  H   -0.063161
   111  H    0.003864
   112  H    0.030319
   113  H   -0.003700
   114  H   -0.058485
   115  H   -0.041582
   116  H    0.007972
   117  H   -0.010811
   118  H    0.002082
   119  H    0.019487
   120  H    0.000706
   121  H   -0.008715
   122  H   -0.023454
   123  H   -0.008171
   124  H   -0.003639
   125  H   -0.008848
   126  H   -0.029819
   127  H   -0.013660
   128  H    0.000178
   129  H    0.003607
   130  H    0.003398
   131  H   -0.018338
   132  H   -0.000686
   133  H    0.016227
   134  H    0.018842
   135  H    0.022503
   136  H    0.014997
   137  H    0.099361
   138  H    0.189526
 Sum of Mulliken charges =  -0.00000

 Dipole moment (field-independent basis, Debye):
    X=              0.0925    Y=              5.1102    Z=              0.1188  Tot=              5.1124
 Quadrupole moment (field-independent basis, Debye-Ang):
   XX=           -328.4191   YY=           -387.9503   ZZ=           -396.4489
   XY=            -32.7309   XZ=              4.2824   YZ=             -2.6416

 Normal termination of Gaussian 16 at Thu Aug 15 10:59:29 2019.
