 Gaussian 16, Revision A.03,
 Gaussian 16:  ES64L-G16RevA.03 25-Dec-2016

 --------------------------
 # td=(NStates=1) B3LYP/SVP
 --------------------------

 --
 TD
 --
 Symbolic Z-matrix:
 Charge =  0 Multiplicity = 1

                         Standard orientation:
 ---------------------------------------------------------------------
 Center     Atomic      Atomic             Coordinates (Angstroms)
 Number     Number       Type             X           Y           Z
 ---------------------------------------------------------------------
      1          6           0       -5.130785   -1.946806    0.591539
      2          6           0       -4.887638    2.783743    1.503878
      3          6           0       -9.406670    3.262350   -0.282426
      4          6           0       -9.853349   -1.596420   -0.990387
      5          7           0       -5.219881    0.477759    0.777039
      6          6           0       -4.478471   -0.708765    0.916195
      7          6           0       -3.114229   -0.482696    1.364458
      8          6           0       -3.171585    0.962476    1.865423
      9          6           0       -4.468016    1.446305    1.312352
     10          6           0       -3.027631    1.127262    3.468920
     11          6           0       -2.058400   -0.696655    0.296950
     12          6           0       -0.584796   -0.680846    0.767781
     13          6           0        0.285071   -0.970338   -0.368370
     14          8           0        0.005290   -1.215363   -1.546212
     15          8           0        1.567364   -0.811152    0.039465
     16          7           0       -7.132390    2.707462    0.454330
     17          6           0       -5.997593    3.380864    0.958290
     18          6           0       -6.345792    4.777352    0.952621
     19          6           0       -7.676751    4.948819    0.573209
     20          6           0       -8.150364    3.649313    0.172924
     21          6           0       -5.338610    5.771900    1.397494
     22          6           0       -8.382304    6.233993    0.381404
     23          6           0       -9.233659    6.520018   -0.532436
     24          7           0       -9.227777    0.798399   -0.588335
     25          6           0       -9.837343    1.945339   -0.542297
     26          6           0      -11.335242    1.797549   -1.073237
     27          6           0      -11.564042    0.503091   -1.318093
     28          6           0      -10.156645   -0.204001   -0.951431
     29          6           0      -12.287964    2.860594   -1.227237
     30          6           0      -12.669058   -0.336898   -1.855836
     31          6           0      -12.718609   -0.547404   -3.354559
     32          7           0       -7.444587   -1.276773   -0.354236
     33          6           0       -8.582354   -2.035272   -0.718775
     34          6           0       -8.209944   -3.440072   -0.586566
     35          6           0       -6.880842   -3.412306   -0.082506
     36          6           0       -6.483917   -2.118662    0.095098
     37          6           0       -8.986194   -4.626669   -0.932209
     38          6           0       -5.703627   -4.274127    0.080521
     39          8           0       -5.605922   -5.476560    0.121458
     40          6           0       -4.548512   -3.341174    0.518708
     41          6           0       -3.847697   -3.743073    1.779103
     42          8           0       -4.040108   -3.164169    2.898424
     43          8           0       -3.013402   -4.752048    1.590882
     44          6           0       -2.389988   -5.221310    2.749139
     45          6           0        2.547328   -0.928384   -1.060652
     46          6           0        3.955128   -0.700482   -0.470705
     47          6           0        5.029331   -0.043889   -1.046041
     48          6           0        4.886888    0.508614   -2.426027
     49          6           0        6.278994    0.202636   -0.328766
     50          6           0        7.560893   -0.437569   -1.021341
     51          6           0        8.859908   -0.147691   -0.226454
     52          6           0       10.122143   -0.653685   -0.926645
     53          6           0       10.065379   -2.166387   -1.192594
     54          6           0       11.265539   -0.382836   -0.066758
     55          6           0       12.694766   -0.617854   -0.689291
     56          6           0       13.900099   -0.024117    0.078002
     57          6           0       15.310206   -0.179816   -0.481650
     58          6           0       15.695476   -1.622770   -0.589686
     59          6           0       16.343909    0.578818    0.394086
     60          6           0       17.776641    0.690108   -0.234396
     61          6           0       18.751190    1.632720    0.656657
     62          6           0       20.205650    1.596681    0.168010
     63          6           0       20.353169    2.118243   -1.287270
     64          6           0       21.074656    2.442323    1.187195
     65          1           0       -3.926662    3.259428    1.785050
     66          1           0      -10.229983    4.033081   -0.292615
     67          1           0      -10.502733   -2.212054   -1.382623
     68          1           0       -3.004556   -1.199733    2.203215
     69          1           0       -2.400479    1.606425    1.228377
     70          1           0       -1.904279    0.896688    3.742773
     71          1           0       -3.342449    2.095891    3.945147
     72          1           0       -3.794097    0.447494    3.972544
     73          1           0       -2.115500   -1.900939   -0.060642
     74          1           0       -2.174657    0.092188   -0.502252
     75          1           0        0.032885    0.363447    0.982720
     76          1           0       -0.323763   -1.241504    1.746651
     77          1           0       -4.354053    5.859022    0.747877
     78          1           0       -5.524800    6.978498    1.734185
     79          1           0       -4.851358    5.646994    2.232385
     80          1           0       -7.910728    6.883246    1.072589
     81          1           0       -9.495476    5.796984   -1.412626
     82          1           0       -9.665067    7.589121   -0.589927
     83          1           0      -12.427505    3.455325   -0.289835
     84          1           0      -11.861736    3.676482   -1.735424
     85          1           0      -13.274265    2.545182   -1.847287
     86          1           0      -12.811867   -1.322479   -1.364812
     87          1           0      -13.489705    0.164913   -1.574289
     88          1           0      -12.750477    0.247350   -3.985968
     89          1           0      -11.991798   -1.086959   -3.661366
     90          1           0      -13.548375   -1.315243   -3.536234
     91          1           0       -9.997648   -4.575345   -0.172329
     92          1           0       -9.213295   -4.691381   -1.904451
     93          1           0       -8.553551   -5.610340   -0.776487
     94          1           0       -3.841468   -3.424921   -0.242868
     95          1           0       -1.732564   -5.881331    2.202013
     96          1           0       -1.818686   -4.415061    3.267231
     97          1           0       -2.881446   -5.948123    3.409881
     98          1           0        2.514917   -2.029439   -1.304967
     99          1           0        2.386652   -0.417697   -1.920247
    100          1           0        4.139285   -1.020306    0.576196
    101          1           0        5.097642    1.514057   -2.685001
    102          1           0        5.686763   -0.104691   -3.149568
    103          1           0        3.962856    0.449579   -2.935011
    104          1           0        6.571736    1.327611   -0.403367
    105          1           0        6.188306    0.001467    0.790015
    106          1           0        7.379986   -1.560961   -1.220400
    107          1           0        7.543363   -0.026761   -2.070656
    108          1           0        8.923816    0.953233   -0.334923
    109          1           0        8.737445   -0.529966    0.649947
    110          1           0       10.247720   -0.315549   -2.028776
    111          1           0        9.393563   -2.552024   -1.830653
    112          1           0       11.000858   -2.568612   -1.593529
    113          1           0        9.911941   -2.643293   -0.222572
    114          1           0       11.335103    0.841455    0.302450
    115          1           0       11.051869   -0.986118    0.914120
    116          1           0       12.756557   -1.761909   -1.018354
    117          1           0       12.684621    0.166346   -1.565229
    118          1           0       13.604142    1.006018    0.520287
    119          1           0       13.756782   -0.638667    1.050253
    120          1           0       15.446452    0.167341   -1.465613
    121          1           0       15.049012   -2.259016   -1.140025
    122          1           0       16.839919   -1.683874   -1.202393
    123          1           0       15.782478   -2.046724    0.476528
    124          1           0       15.935881    1.558127    0.776364
    125          1           0       16.295944    0.247760    1.451163
    126          1           0       18.360189   -0.379532   -0.035453
    127          1           0       17.708946    0.889711   -1.143164
    128          1           0       18.395229    2.730549    0.541404
    129          1           0       18.779216    1.343648    1.757044
    130          1           0       20.743874    0.671745    0.375668
    131          1           0       19.978190    3.337574   -1.269324
    132          1           0       21.320186    2.333381   -1.764695
    133          1           0       19.666640    1.572469   -1.803684
    134          1           0       21.449893    1.917057    2.089484
    135          1           0       22.007682    2.502258    0.648612
    136          1           0       20.928975    3.567945    1.295241
    137          1           0       -7.154165    1.646385    0.215609
    138          1           0       -7.584080   -0.339365   -0.309017
 ---------------------------------------------------------------------

 SCF Done:  E(RB3LYP) =  -2733.02227095     A.U. after   17 cycles

 Excitation energies and oscillator strengths:

 Excited State   1:      Singlet-A      2.0025 eV  619.15 nm  f=0.2064  <S**2>=0.000
     235 -> 238       -0.27351
     236 -> 237        0.64939
 This state for optimization and/or second-order correction.
 Total Energy, E(TD-HF/TD-DFT) =  -2732.94868126
 Copying the excited state density for this state as the 1-particle RhoCI density.

 The electronic state is 1-A.
 Alpha  occ. eigenvalues --  -19.19358 -19.17526 -19.12319 -19.12092 -19.11771
 Alpha  occ. eigenvalues --  -14.36669 -14.36206 -14.32221 -14.31114 -10.31841
 Alpha  occ. eigenvalues --  -10.31449 -10.27470 -10.24715 -10.24410 -10.23993
 Alpha  occ. eigenvalues --  -10.23819 -10.22993 -10.22880 -10.22830 -10.22356
 Alpha  occ. eigenvalues --  -10.22348 -10.22295 -10.22294 -10.22075 -10.21359
 Alpha  occ. eigenvalues --  -10.21079 -10.21020 -10.20864 -10.20601 -10.20600
 Alpha  occ. eigenvalues --  -10.20552 -10.20370 -10.20354 -10.20270 -10.20196
 Alpha  occ. eigenvalues --  -10.20062 -10.20061 -10.19889 -10.19753 -10.19610
 Alpha  occ. eigenvalues --  -10.19479 -10.19471 -10.19406 -10.19400 -10.19368
 Alpha  occ. eigenvalues --  -10.19305 -10.19287 -10.19231 -10.19175 -10.19159
 Alpha  occ. eigenvalues --  -10.19095 -10.18959 -10.18860 -10.18736 -10.18637
 Alpha  occ. eigenvalues --  -10.18621 -10.18542 -10.18385 -10.18276 -10.17987
 Alpha  occ. eigenvalues --  -10.17690 -10.17543 -10.16620 -10.16452  -1.11108
 Alpha  occ. eigenvalues --   -1.08709  -1.02796  -0.99208  -0.98461  -0.97965
 Alpha  occ. eigenvalues --   -0.96117  -0.94335  -0.92688  -0.85058  -0.82965
 Alpha  occ. eigenvalues --   -0.82024  -0.81802  -0.81426  -0.81097  -0.80967
 Alpha  occ. eigenvalues --   -0.80361  -0.80156  -0.79490  -0.79063  -0.77825
 Alpha  occ. eigenvalues --   -0.77267  -0.76686  -0.75890  -0.75635  -0.74738
 Alpha  occ. eigenvalues --   -0.74145  -0.73205  -0.72530  -0.71490  -0.71152
 Alpha  occ. eigenvalues --   -0.70464  -0.69526  -0.68913  -0.68845  -0.67628
 Alpha  occ. eigenvalues --   -0.67476  -0.66967  -0.66012  -0.65820  -0.65201
 Alpha  occ. eigenvalues --   -0.64043  -0.63514  -0.62996  -0.62818  -0.61755
 Alpha  occ. eigenvalues --   -0.61325  -0.59245  -0.58703  -0.57970  -0.57372
 Alpha  occ. eigenvalues --   -0.57205  -0.56202  -0.55968  -0.55917  -0.55828
 Alpha  occ. eigenvalues --   -0.55527  -0.54787  -0.54566  -0.53300  -0.52820
 Alpha  occ. eigenvalues --   -0.52669  -0.52108  -0.51526  -0.51303  -0.50649
 Alpha  occ. eigenvalues --   -0.49822  -0.49630  -0.49201  -0.48899  -0.48791
 Alpha  occ. eigenvalues --   -0.48619  -0.47931  -0.47539  -0.47150  -0.46884
 Alpha  occ. eigenvalues --   -0.46839  -0.46468  -0.46288  -0.45612  -0.45425
 Alpha  occ. eigenvalues --   -0.45244  -0.45182  -0.45074  -0.44960  -0.44684
 Alpha  occ. eigenvalues --   -0.44559  -0.44235  -0.44064  -0.43817  -0.43711
 Alpha  occ. eigenvalues --   -0.43553  -0.43349  -0.43223  -0.42777  -0.42612
 Alpha  occ. eigenvalues --   -0.42422  -0.42369  -0.42251  -0.41728  -0.41445
 Alpha  occ. eigenvalues --   -0.41157  -0.41022  -0.40620  -0.40516  -0.40308
 Alpha  occ. eigenvalues --   -0.40049  -0.39717  -0.39621  -0.39401  -0.39132
 Alpha  occ. eigenvalues --   -0.39035  -0.38864  -0.38739  -0.38419  -0.38267
 Alpha  occ. eigenvalues --   -0.38241  -0.37978  -0.37897  -0.37654  -0.37455
 Alpha  occ. eigenvalues --   -0.37404  -0.37069  -0.36927  -0.36822  -0.36791
 Alpha  occ. eigenvalues --   -0.36603  -0.36368  -0.35971  -0.35829  -0.35778
 Alpha  occ. eigenvalues --   -0.35615  -0.35562  -0.35394  -0.34983  -0.34779
 Alpha  occ. eigenvalues --   -0.34500  -0.34451  -0.34331  -0.34145  -0.33600
 Alpha  occ. eigenvalues --   -0.33439  -0.33345  -0.33106  -0.32872  -0.32476
 Alpha  occ. eigenvalues --   -0.32434  -0.31925  -0.31817  -0.31599  -0.31303
 Alpha  occ. eigenvalues --   -0.31254  -0.31102  -0.30597  -0.30303  -0.29966
 Alpha  occ. eigenvalues --   -0.29673  -0.29014  -0.28684  -0.28255  -0.27871
 Alpha  occ. eigenvalues --   -0.27430  -0.27349  -0.26483  -0.25982  -0.25330
 Alpha  occ. eigenvalues --   -0.24782  -0.24322  -0.23701  -0.23306  -0.19813
 Alpha  occ. eigenvalues --   -0.18411
 Alpha virt. eigenvalues --   -0.10142  -0.07018  -0.04134  -0.01590  -0.01022
 Alpha virt. eigenvalues --   -0.00826  -0.00197   0.00674   0.01905   0.03344
 Alpha virt. eigenvalues --    0.03975   0.03985   0.04376   0.04574   0.04781

 Mulliken charges:
               1
     1  C    0.024642
     2  C   -0.045881
     3  C   -0.145212
     4  C    0.003199
     5  N   -0.195109
     6  C   -0.069425
     7  C    0.042314
     8  C   -0.045709
     9  C   -0.083802
    10  C    0.009001
    11  C    0.032184
    12  C   -0.085047
    13  C    0.214720
    14  O   -0.261310
    15  O   -0.343434
    16  N   -0.182473
    17  C    0.161400
    18  C   -0.027103
    19  C   -0.037056
    20  C    0.126536
    21  C    0.039971
    22  C    0.053881
    23  C   -0.065908
    24  N   -0.211033
    25  C    0.091693
    26  C   -0.193702
    27  C   -0.075156
    28  C    0.021874
    29  C    0.120841
    30  C    0.122232
    31  C    0.135339
    32  N    0.020447
    33  C    0.093833
    34  C   -0.153762
    35  C   -0.011301
    36  C    0.067021
    37  C    0.105278
    38  C    0.050336
    39  O   -0.164819
    40  C    0.029873
    41  C    0.198254
    42  O   -0.291536
    43  O   -0.246440
    44  C    0.177390
    45  C    0.349184
    46  C   -0.129530
    47  C   -0.081413
    48  C    0.043654
    49  C    0.059729
    50  C   -0.084843
    51  C    0.181332
    52  C   -0.078367
    53  C    0.073002
    54  C   -0.050806
    55  C   -0.012330
    56  C   -0.013389
    57  C    0.041112
    58  C   -0.029838
    59  C    0.016564
    60  C    0.083563
    61  C    0.011305
    62  C   -0.097092
    63  C    0.029004
    64  C    0.010461
    65  H   -0.012755
    66  H   -0.009174
    67  H   -0.088473
    68  H    0.020444
    69  H    0.017056
    70  H    0.040856
    71  H    0.024653
    72  H    0.046299
    73  H    0.054917
    74  H    0.031011
    75  H    0.062605
    76  H    0.059718
    77  H    0.024656
    78  H    0.027493
    79  H   -0.028694
    80  H   -0.021151
    81  H    0.057357
    82  H    0.038155
    83  H    0.013601
    84  H   -0.017905
    85  H    0.040605
    86  H   -0.002017
    87  H   -0.044787
    88  H   -0.010388
    89  H   -0.060361
    90  H   -0.003036
    91  H    0.044740
    92  H   -0.001678
    93  H    0.022828
    94  H    0.023848
    95  H    0.013263
    96  H    0.039550
    97  H    0.043210
    98  H    0.023748
    99  H   -0.010156
   100  H   -0.009802
   101  H    0.004683
   102  H    0.030153
   103  H   -0.014808
   104  H    0.008157
   105  H    0.007538
   106  H    0.011448
   107  H    0.003718
   108  H    0.000769
   109  H   -0.054561
   110  H   -0.002597
   111  H   -0.022795
   112  H   -0.009183
   113  H   -0.017706
   114  H    0.005725
   115  H    0.004571
   116  H    0.040149
   117  H    0.004943
   118  H    0.004351
   119  H   -0.013364
   120  H   -0.027073
   121  H    0.007090
   122  H    0.020307
   123  H    0.012724
   124  H   -0.022779
   125  H   -0.029538
   126  H    0.024997
   127  H   -0.055533
   128  H    0.008424
   129  H    0.013052
   130  H   -0.001878
   131  H    0.003616
   132  H    0.023608
   133  H   -0.005142
   134  H    0.011764
   135  H   -0.026915
   136  H    0.010140
   137  H    0.193637
   138  H    0.069734
 Sum of Mulliken charges =  -0.00000

 Dipole moment (field-independent basis, Debye):
    X=              2.5166    Y=              3.7454    Z=             -0.1381  Tot=              4.5145
 Quadrupole moment (field-independent basis, Debye-Ang):
   XX=           -354.8246   YY=           -382.8155   ZZ=           -393.2012
   XY=            -20.8799   XZ=             10.7006   YZ=              0.7913

 Normal termination of Gaussian 16 at Mon Aug 19 08:29:19 2019.
