 Gaussian 16, Revision A.03,
 Gaussian 16:  ES64L-G16RevA.03 25-Dec-2016

 --------------------------
 # td=(NStates=1) B3LYP/SVP
 --------------------------

 --
 TD
 --
 Symbolic Z-matrix:
 Charge =  0 Multiplicity = 1

                         Standard orientation:
 ---------------------------------------------------------------------
 Center     Atomic      Atomic             Coordinates (Angstroms)
 Number     Number       Type             X           Y           Z
 ---------------------------------------------------------------------
      1          6           0       -5.010572   -1.914759    0.414206
      2          6           0       -4.737732    2.787348    1.382819
      3          6           0       -9.463546    3.372927   -0.124172
      4          6           0       -9.870943   -1.421761   -0.861074
      5          7           0       -5.105723    0.411030    0.787396
      6          6           0       -4.310463   -0.829476    0.682653
      7          6           0       -3.041500   -0.627556    1.312834
      8          6           0       -3.139729    0.745001    1.835930
      9          6           0       -4.426927    1.440526    1.249277
     10          6           0       -3.119272    0.810725    3.481226
     11          6           0       -1.988117   -0.866371    0.098713
     12          6           0       -0.561673   -0.864361    0.598292
     13          6           0        0.420635   -1.050514   -0.510655
     14          8           0       -0.016634   -1.390903   -1.612211
     15          8           0        1.682640   -0.859362   -0.155631
     16          7           0       -7.081856    2.734749    0.558087
     17          6           0       -5.875535    3.423557    1.057071
     18          6           0       -6.160936    4.781550    1.014466
     19          6           0       -7.510404    5.000091    0.559955
     20          6           0       -8.100964    3.695158    0.291365
     21          6           0       -5.111935    5.892248    1.235570
     22          6           0       -8.007648    6.336377    0.273488
     23          6           0       -9.071094    6.595436   -0.577606
     24          7           0       -9.304304    0.937062   -0.311392
     25          6           0       -9.997388    2.160885   -0.434726
     26          6           0      -11.348194    1.937565   -0.870533
     27          6           0      -11.461444    0.604971   -1.213024
     28          6           0      -10.182590   -0.046854   -0.849965
     29          6           0      -12.354633    2.902650   -0.985293
     30          6           0      -12.674357   -0.213653   -1.593969
     31          6           0      -12.767534   -0.447349   -3.157500
     32          7           0       -7.461231   -1.258658   -0.238580
     33          6           0       -8.651321   -2.070182   -0.604605
     34          6           0       -8.196800   -3.448109   -0.641238
     35          6           0       -6.783368   -3.329168   -0.204095
     36          6           0       -6.458598   -1.983178   -0.038047
     37          6           0       -9.031511   -4.507673   -0.891393
     38          6           0       -5.628747   -4.244243   -0.115655
     39          8           0       -5.568577   -5.461925   -0.320197
     40          6           0       -4.501113   -3.403306    0.374679
     41          6           0       -3.897452   -3.881715    1.675357
     42          8           0       -4.051051   -3.428716    2.773112
     43          8           0       -2.965856   -4.870497    1.404713
     44          6           0       -2.621230   -5.650347    2.556855
     45          6           0        2.608695   -1.092583   -1.184697
     46          6           0        3.988495   -0.693987   -0.560351
     47          6           0        4.946959    0.091353   -0.988946
     48          6           0        4.922217    0.925866   -2.344348
     49          6           0        6.205814    0.210558   -0.268914
     50          6           0        7.501978   -0.276505   -0.988888
     51          6           0        8.727608   -0.326322   -0.107758
     52          6           0       10.122619   -0.781864   -0.858126
     53          6           0       10.038317   -2.237282   -1.201931
     54          6           0       11.346389   -0.355306   -0.050212
     55          6           0       12.742504   -0.560362   -0.608429
     56          6           0       13.804375   -0.095552    0.252232
     57          6           0       15.276813   -0.310051   -0.293845
     58          6           0       15.698788   -1.776054   -0.348179
     59          6           0       16.217802    0.644738    0.476378
     60          6           0       17.596428    0.760583   -0.101566
     61          6           0       18.595174    1.598278    0.674071
     62          6           0       20.065996    1.739975    0.119168
     63          6           0       20.129696    2.259014   -1.366557
     64          6           0       20.877555    2.697454    1.059605
     65          1           0       -3.818552    3.461906    1.840140
     66          1           0      -10.006698    4.225881   -0.682226
     67          1           0      -10.796396   -1.961461   -1.000039
     68          1           0       -2.713044   -1.373435    2.055953
     69          1           0       -2.211139    1.383238    1.543507
     70          1           0       -2.162294    0.320869    3.745771
     71          1           0       -3.036509    1.673067    3.832180
     72          1           0       -4.063250    0.288253    4.013427
     73          1           0       -2.312825   -1.943866   -0.342262
     74          1           0       -2.125171    0.083843   -0.587068
     75          1           0       -0.288460    0.124163    1.076558
     76          1           0       -0.575230   -1.636286    1.543804
     77          1           0       -4.338326    5.790151    0.521597
     78          1           0       -5.610382    6.702090    1.525650
     79          1           0       -4.472535    5.649720    2.242957
     80          1           0       -7.615157    7.241016    0.719384
     81          1           0       -9.566853    5.835025   -1.239642
     82          1           0       -9.424367    7.639143   -0.737388
     83          1           0      -12.387607    3.650676   -0.181896
     84          1           0      -12.180241    3.908812   -1.904687
     85          1           0      -13.391293    2.691284   -1.183212
     86          1           0      -12.778110   -1.164511   -1.081880
     87          1           0      -13.682658    0.321859   -1.050029
     88          1           0      -12.668498    0.489328   -3.577282
     89          1           0      -11.889099   -1.007814   -3.569503
     90          1           0      -13.757900   -1.106644   -3.472721
     91          1           0       -9.806023   -4.695571   -0.074460
     92          1           0       -9.499234   -4.359248   -1.875415
     93          1           0       -8.527001   -5.455296   -0.980465
     94          1           0       -3.705219   -3.482785   -0.485110
     95          1           0       -2.135910   -6.745494    2.016183
     96          1           0       -1.906056   -5.278707    3.328948
     97          1           0       -3.750102   -5.836342    3.005077
     98          1           0        2.714003   -2.228611   -1.364470
     99          1           0        2.475589   -0.423928   -2.077834
    100          1           0        4.290947   -1.203724    0.210726
    101          1           0        4.867178    2.050981   -2.154542
    102          1           0        5.825587    0.616195   -2.918129
    103          1           0        3.851055    0.758270   -3.066503
    104          1           0        6.409003    1.303712   -0.159408
    105          1           0        6.182461   -0.045468    0.851600
    106          1           0        7.467493   -1.268913   -1.468659
    107          1           0        7.573539    0.607015   -1.851669
    108          1           0        8.841571    0.698165    0.241378
    109          1           0        8.497218   -0.849261    0.697243
    110          1           0       10.244005   -0.287046   -1.772577
    111          1           0        9.240514   -2.467490   -1.855234
    112          1           0       11.037790   -2.635861   -1.592066
    113          1           0        9.936846   -3.054610   -0.427815
    114          1           0       11.379373    0.856010    0.264389
    115          1           0       11.369743   -0.904077    0.910377
    116          1           0       12.922843   -1.590789   -0.743533
    117          1           0       12.962917   -0.183149   -1.560704
    118          1           0       13.711524    0.877953    0.673991
    119          1           0       13.688396   -0.702170    1.325301
    120          1           0       15.260594    0.108965   -1.328585
    121          1           0       14.980829   -2.393665   -0.916252
    122          1           0       16.760850   -1.692999   -0.895552
    123          1           0       15.756342   -2.102385    0.694849
    124          1           0       15.820134    1.751868    0.213940
    125          1           0       16.402722    0.318959    1.553742
    126          1           0       17.919033   -0.221190   -0.110087
    127          1           0       17.540516    1.114305   -1.116293
    128          1           0       18.005757    2.498138    0.810701
    129          1           0       18.819374    1.176296    1.738460
    130          1           0       20.386198    0.643177    0.296949
    131          1           0       19.531972    3.111090   -1.431585
    132          1           0       21.247453    2.360539   -1.465067
    133          1           0       19.886836    1.604808   -2.133425
    134          1           0       21.138531    2.254466    1.916369
    135          1           0       21.969604    2.803781    0.638032
    136          1           0       20.621826    3.607516    1.129549
    137          1           0       -7.192405    1.551592    0.693249
    138          1           0       -7.733525   -0.179731   -0.103039
 ---------------------------------------------------------------------

 SCF Done:  E(RB3LYP) =  -2732.98151736     A.U. after   17 cycles

 Excitation energies and oscillator strengths:

 Excited State   1:      Singlet-A      1.9015 eV  652.02 nm  f=0.2144  <S**2>=0.000
     235 -> 237       -0.13482
     235 -> 238       -0.16685
     236 -> 237        0.66245
     236 -> 238       -0.10709
 This state for optimization and/or second-order correction.
 Total Energy, E(TD-HF/TD-DFT) =  -2732.91163702
 Copying the excited state density for this state as the 1-particle RhoCI density.

 The electronic state is 1-A.
 Alpha  occ. eigenvalues --  -19.19238 -19.17476 -19.13704 -19.12104 -19.11310
 Alpha  occ. eigenvalues --  -14.37512 -14.37028 -14.31781 -14.30756 -10.32223
 Alpha  occ. eigenvalues --  -10.31614 -10.27207 -10.26895 -10.26073 -10.25174
 Alpha  occ. eigenvalues --  -10.23961 -10.23735 -10.23635 -10.23006 -10.22243
 Alpha  occ. eigenvalues --  -10.22136 -10.21955 -10.21649 -10.21620 -10.21551
 Alpha  occ. eigenvalues --  -10.21534 -10.21257 -10.21221 -10.21214 -10.21184
 Alpha  occ. eigenvalues --  -10.21153 -10.21134 -10.20877 -10.20837 -10.20733
 Alpha  occ. eigenvalues --  -10.20345 -10.20345 -10.20284 -10.20231 -10.20120
 Alpha  occ. eigenvalues --  -10.20082 -10.20003 -10.19638 -10.19580 -10.19541
 Alpha  occ. eigenvalues --  -10.19481 -10.19468 -10.19391 -10.19124 -10.19041
 Alpha  occ. eigenvalues --  -10.18939 -10.18900 -10.18888 -10.18811 -10.18533
 Alpha  occ. eigenvalues --  -10.18238 -10.18013 -10.17922 -10.17684 -10.17211
 Alpha  occ. eigenvalues --  -10.17128 -10.16660 -10.16372 -10.16269  -1.11208
 Alpha  occ. eigenvalues --   -1.09401  -1.01288  -1.00890  -1.00608  -0.98599
 Alpha  occ. eigenvalues --   -0.94370  -0.93157  -0.91727  -0.84366  -0.82915
 Alpha  occ. eigenvalues --   -0.82328  -0.81735  -0.81346  -0.80881  -0.80638
 Alpha  occ. eigenvalues --   -0.80192  -0.79622  -0.79333  -0.78839  -0.77655
 Alpha  occ. eigenvalues --   -0.76817  -0.76457  -0.75595  -0.75139  -0.74293
 Alpha  occ. eigenvalues --   -0.73695  -0.73326  -0.73118  -0.72360  -0.70464
 Alpha  occ. eigenvalues --   -0.70087  -0.68797  -0.68771  -0.68312  -0.67387
 Alpha  occ. eigenvalues --   -0.67195  -0.67081  -0.66812  -0.66423  -0.66329
 Alpha  occ. eigenvalues --   -0.63649  -0.62470  -0.62111  -0.61827  -0.61498
 Alpha  occ. eigenvalues --   -0.60711  -0.58742  -0.58475  -0.57663  -0.57340
 Alpha  occ. eigenvalues --   -0.56861  -0.56541  -0.55666  -0.55370  -0.54996
 Alpha  occ. eigenvalues --   -0.54608  -0.54306  -0.54022  -0.53504  -0.52919
 Alpha  occ. eigenvalues --   -0.52355  -0.51782  -0.51665  -0.51239  -0.51019
 Alpha  occ. eigenvalues --   -0.50544  -0.49653  -0.49083  -0.48951  -0.48418
 Alpha  occ. eigenvalues --   -0.48378  -0.48054  -0.47691  -0.47495  -0.47203
 Alpha  occ. eigenvalues --   -0.46781  -0.46724  -0.46397  -0.46390  -0.45772
 Alpha  occ. eigenvalues --   -0.45452  -0.45191  -0.45057  -0.44959  -0.44685
 Alpha  occ. eigenvalues --   -0.44404  -0.44318  -0.43876  -0.43834  -0.43444
 Alpha  occ. eigenvalues --   -0.43363  -0.43109  -0.42941  -0.42582  -0.42477
 Alpha  occ. eigenvalues --   -0.42319  -0.42157  -0.42119  -0.41952  -0.41737
 Alpha  occ. eigenvalues --   -0.41497  -0.41238  -0.40971  -0.40608  -0.40362
 Alpha  occ. eigenvalues --   -0.40213  -0.40113  -0.39761  -0.39574  -0.39276
 Alpha  occ. eigenvalues --   -0.38948  -0.38866  -0.38759  -0.38599  -0.38407
 Alpha  occ. eigenvalues --   -0.38350  -0.38057  -0.37923  -0.37643  -0.37555
 Alpha  occ. eigenvalues --   -0.37366  -0.36976  -0.36909  -0.36621  -0.36467
 Alpha  occ. eigenvalues --   -0.36279  -0.35939  -0.35660  -0.35440  -0.35326
 Alpha  occ. eigenvalues --   -0.35301  -0.35094  -0.34859  -0.34823  -0.34579
 Alpha  occ. eigenvalues --   -0.34518  -0.34057  -0.33980  -0.33872  -0.33694
 Alpha  occ. eigenvalues --   -0.33523  -0.33450  -0.33044  -0.33019  -0.32461
 Alpha  occ. eigenvalues --   -0.32287  -0.32092  -0.31746  -0.31432  -0.31230
 Alpha  occ. eigenvalues --   -0.31217  -0.30757  -0.30735  -0.30528  -0.30381
 Alpha  occ. eigenvalues --   -0.29875  -0.29687  -0.28845  -0.28755  -0.27974
 Alpha  occ. eigenvalues --   -0.27715  -0.27267  -0.26288  -0.25491  -0.25276
 Alpha  occ. eigenvalues --   -0.24754  -0.24620  -0.23237  -0.22461  -0.20847
 Alpha  occ. eigenvalues --   -0.18586
 Alpha virt. eigenvalues --   -0.11197  -0.08360  -0.04155  -0.02421  -0.01558
 Alpha virt. eigenvalues --   -0.00917  -0.00397   0.00997   0.01465   0.02793
 Alpha virt. eigenvalues --    0.03252   0.03332   0.03950   0.04191   0.04739

 Mulliken charges:
               1
     1  C    0.006622
     2  C   -0.129932
     3  C   -0.104938
     4  C   -0.040177
     5  N   -0.237319
     6  C   -0.026251
     7  C   -0.002133
     8  C   -0.090415
     9  C    0.029038
    10  C    0.108290
    11  C   -0.040998
    12  C   -0.002871
    13  C    0.199977
    14  O   -0.256609
    15  O   -0.263793
    16  N   -0.256685
    17  C    0.193665
    18  C   -0.173449
    19  C    0.063831
    20  C    0.109157
    21  C    0.179142
    22  C   -0.044374
    23  C   -0.074949
    24  N   -0.324155
    25  C    0.105141
    26  C   -0.021857
    27  C   -0.051951
    28  C    0.033294
    29  C    0.002335
    30  C   -0.022995
    31  C    0.008336
    32  N   -0.036860
    33  C    0.080777
    34  C   -0.053373
    35  C   -0.114191
    36  C    0.113020
    37  C    0.078644
    38  C    0.063168
    39  O   -0.196998
    40  C   -0.052076
    41  C    0.225516
    42  O   -0.193272
    43  O   -0.312615
    44  C    0.079313
    45  C    0.288649
    46  C   -0.062843
    47  C   -0.091310
    48  C   -0.045573
    49  C    0.054632
    50  C   -0.059086
    51  C    0.107243
    52  C    0.046682
    53  C    0.008136
    54  C   -0.025732
    55  C    0.150638
    56  C   -0.018545
    57  C   -0.094023
    58  C    0.032355
    59  C   -0.016405
    60  C    0.078169
    61  C    0.010927
    62  C   -0.133720
    63  C    0.078546
    64  C    0.146957
    65  H    0.023720
    66  H    0.008808
    67  H   -0.024251
    68  H    0.018885
    69  H   -0.008961
    70  H    0.007509
    71  H   -0.059985
    72  H    0.047850
    73  H    0.056334
    74  H    0.030549
    75  H    0.025685
    76  H    0.050625
    77  H    0.031731
    78  H   -0.013727
    79  H    0.011448
    80  H    0.000173
    81  H    0.043483
    82  H    0.028687
    83  H    0.015022
    84  H    0.002399
    85  H    0.012071
    86  H    0.008637
    87  H    0.022393
    88  H    0.006137
    89  H    0.018149
    90  H    0.036744
    91  H    0.047158
    92  H    0.024673
    93  H    0.018044
    94  H    0.098047
    95  H    0.059557
    96  H    0.056177
    97  H    0.057039
    98  H    0.043009
    99  H    0.029002
   100  H   -0.080303
   101  H    0.040556
   102  H    0.050205
   103  H    0.031752
   104  H   -0.003898
   105  H    0.005080
   106  H    0.004402
   107  H    0.019112
   108  H   -0.023856
   109  H   -0.044531
   110  H   -0.029593
   111  H    0.002006
   112  H    0.006337
   113  H   -0.002049
   114  H    0.008714
   115  H   -0.008900
   116  H   -0.037158
   117  H   -0.039968
   118  H   -0.029573
   119  H   -0.025380
   120  H   -0.017982
   121  H    0.021222
   122  H    0.034010
   123  H    0.010059
   124  H    0.009356
   125  H    0.007327
   126  H   -0.046223
   127  H   -0.022330
   128  H   -0.025228
   129  H   -0.006481
   130  H    0.004087
   131  H    0.003190
   132  H    0.010388
   133  H   -0.005023
   134  H   -0.026788
   135  H   -0.014806
   136  H   -0.041388
   137  H    0.231852
   138  H    0.189258
 Sum of Mulliken charges =  -0.00000

 Dipole moment (field-independent basis, Debye):
    X=              2.7801    Y=              4.0352    Z=              0.9816  Tot=              4.9975
 Quadrupole moment (field-independent basis, Debye-Ang):
   XX=           -342.6541   YY=           -383.0161   ZZ=           -399.1931
   XY=            -20.0754   XZ=              1.4908   YZ=             -2.6443

 Normal termination of Gaussian 16 at Sun Aug 11 17:42:56 2019.
