 Gaussian 16, Revision A.03,
 Gaussian 16:  ES64L-G16RevA.03 25-Dec-2016

 --------------------------
 # td=(NStates=1) B3LYP/SVP
 --------------------------

 --
 TD
 --
 Symbolic Z-matrix:
 Charge =  0 Multiplicity = 1

                         Standard orientation:
 ---------------------------------------------------------------------
 Center     Atomic      Atomic             Coordinates (Angstroms)
 Number     Number       Type             X           Y           Z
 ---------------------------------------------------------------------
      1          6           0       -5.161367   -2.022536    0.316718
      2          6           0       -4.562881    2.715634    1.246168
      3          6           0       -9.107854    3.403787   -0.253402
      4          6           0       -9.861758   -1.347981   -0.835011
      5          7           0       -5.262508    0.414734    0.840484
      6          6           0       -4.491105   -0.816069    0.793517
      7          6           0       -3.016117   -0.600499    1.162615
      8          6           0       -3.073093    0.694234    1.887232
      9          6           0       -4.337976    1.355419    1.298962
     10          6           0       -3.210611    0.574775    3.428593
     11          6           0       -2.077062   -0.762618   -0.101395
     12          6           0       -0.608364   -0.910039    0.378361
     13          6           0        0.401434   -1.015502   -0.794409
     14          8           0       -0.070417   -1.221496   -1.908531
     15          8           0        1.646680   -0.810732   -0.292472
     16          7           0       -6.934431    2.654159    0.527978
     17          6           0       -5.829118    3.350394    1.019354
     18          6           0       -6.073248    4.780893    1.101263
     19          6           0       -7.378628    4.917971    0.583138
     20          6           0       -7.858013    3.633626    0.273999
     21          6           0       -5.065062    5.737336    1.689681
     22          6           0       -8.069986    6.306346    0.486054
     23          6           0       -8.934618    6.706789   -0.527442
     24          7           0       -9.142876    0.967965   -0.469319
     25          6           0       -9.751562    2.165465   -0.480246
     26          6           0      -11.215448    2.185821   -0.922835
     27          6           0      -11.335847    0.787133   -1.143183
     28          6           0      -10.107459    0.088311   -0.804639
     29          6           0      -12.206552    3.244807   -1.147676
     30          6           0      -12.599390    0.034784   -1.682434
     31          6           0      -12.700297   -0.346254   -3.177911
     32          7           0       -7.626188   -1.229538   -0.267942
     33          6           0       -8.700705   -2.008852   -0.685314
     34          6           0       -8.313644   -3.389643   -0.613901
     35          6           0       -7.033620   -3.405992   -0.224266
     36          6           0       -6.526951   -2.027806   -0.010376
     37          6           0       -9.269664   -4.540610   -0.944030
     38          6           0       -5.950802   -4.286718    0.117908
     39          8           0       -5.838830   -5.532762   -0.024135
     40          6           0       -4.732100   -3.388101    0.423340
     41          6           0       -4.141968   -3.963284    1.720264
     42          8           0       -4.452232   -3.609708    2.866438
     43          8           0       -3.182994   -4.885578    1.604254
     44          6           0       -2.795571   -5.503294    2.794197
     45          6           0        2.629744   -0.811859   -1.329721
     46          6           0        4.062430   -0.773705   -0.688384
     47          6           0        5.098706    0.032665   -0.958263
     48          6           0        4.979191    1.035660   -2.071159
     49          6           0        6.418552   -0.015069   -0.136972
     50          6           0        7.613128   -0.403135   -0.955295
     51          6           0        8.906602   -0.500498   -0.054269
     52          6           0       10.105452   -0.854103   -0.921005
     53          6           0       10.183873   -2.315238   -1.529990
     54          6           0       11.385938   -0.621356    0.074912
     55          6           0       12.725615   -0.733487   -0.672252
     56          6           0       13.956347   -0.456603    0.411514
     57          6           0       15.315642   -0.241194   -0.411648
     58          6           0       15.767699   -1.741323   -0.966453
     59          6           0       16.323913    0.413454    0.499724
     60          6           0       17.702785    0.913644   -0.079621
     61          6           0       18.561281    1.593647    0.935821
     62          6           0       20.060046    1.879397    0.341386
     63          6           0       19.904802    2.527768   -1.092235
     64          6           0       20.890472    2.744920    1.175233
     65          1           0       -3.721279    3.261630    1.716640
     66          1           0       -9.887527    4.338803   -0.197000
     67          1           0      -10.940218   -1.863614   -0.945738
     68          1           0       -2.843842   -1.393407    1.978015
     69          1           0       -2.191960    1.290231    1.605117
     70          1           0       -2.182350    0.417812    3.795406
     71          1           0       -3.415925    1.653313    3.712863
     72          1           0       -4.034441    0.023632    3.664115
     73          1           0       -2.315932   -1.569100   -0.704532
     74          1           0       -2.105475    0.118764   -0.806510
     75          1           0       -0.337906   -0.054723    0.945907
     76          1           0       -0.522930   -2.075047    0.954338
     77          1           0       -4.194633    5.651485    0.877085
     78          1           0       -5.307758    6.889148    1.957502
     79          1           0       -4.598600    5.475362    2.603997
     80          1           0       -7.775071    7.084248    1.225680
     81          1           0       -9.387931    6.053631   -1.317675
     82          1           0       -9.190624    7.699927   -0.639383
     83          1           0      -12.305591    4.015876   -0.202062
     84          1           0      -11.942182    3.956550   -1.907287
     85          1           0      -13.149163    2.646009   -1.414778
     86          1           0      -12.794449   -0.885368   -0.975648
     87          1           0      -13.411699    0.635756   -1.392995
     88          1           0      -12.659439    0.426365   -4.012320
     89          1           0      -11.823136   -0.896479   -3.391866
     90          1           0      -13.805087   -0.857079   -3.304362
     91          1           0      -10.351693   -4.564962   -0.387674
     92          1           0       -9.579099   -4.207029   -1.964927
     93          1           0       -8.794719   -5.655073   -0.807258
     94          1           0       -3.991721   -3.568695   -0.386471
     95          1           0       -2.079105   -6.360369    2.430375
     96          1           0       -2.251286   -4.709624    3.308421
     97          1           0       -3.665720   -5.638097    3.481623
     98          1           0        2.671842   -1.867666   -2.162698
     99          1           0        2.515965   -0.169146   -2.231349
    100          1           0        4.204040   -1.406895    0.120723
    101          1           0        5.276107    2.071561   -2.025398
    102          1           0        5.393348    0.730542   -2.958125
    103          1           0        3.912253    1.117226   -2.492716
    104          1           0        6.597983    1.100715    0.245069
    105          1           0        6.159568   -0.698031    0.677446
    106          1           0        7.533277   -1.415992   -1.642525
    107          1           0        7.913525    0.470461   -1.658196
    108          1           0        9.138642    0.683666    0.383408
    109          1           0        8.931078   -1.309934    0.793039
    110          1           0       10.184783   -0.031325   -1.752131
    111          1           0        9.598213   -2.561784   -2.499369
    112          1           0       11.053545   -2.488943   -2.023910
    113          1           0       10.033181   -3.080798   -0.748188
    114          1           0       11.432083    0.494084    0.600643
    115          1           0       11.508998   -1.206314    0.937350
    116          1           0       12.983995   -1.771050   -1.015616
    117          1           0       12.809801    0.075332   -1.567615
    118          1           0       13.625273    0.500284    1.000213
    119          1           0       14.014400   -1.536087    1.188353
    120          1           0       15.025191    0.345494   -1.307716
    121          1           0       15.201005   -2.338943   -1.577526
    122          1           0       16.762359   -1.611249   -1.333345
    123          1           0       15.916846   -2.420053   -0.092453
    124          1           0       15.741312    1.362232    0.771922
    125          1           0       16.362615   -0.305971    1.333218
    126          1           0       18.039635   -0.284581   -0.447215
    127          1           0       17.702670    1.528157   -0.886654
    128          1           0       18.314500    2.579130    1.099172
    129          1           0       18.676374    0.949120    1.887776
    130          1           0       20.356745    0.888202    0.185909
    131          1           0       19.404967    3.392171   -1.116660
    132          1           0       20.929554    2.634954   -1.473795
    133          1           0       19.254569    1.962291   -1.739259
    134          1           0       21.264306    2.509599    2.251536
    135          1           0       21.759520    3.138191    0.508699
    136          1           0       20.627088    3.805657    1.308388
    137          1           0       -7.013308    1.721535    0.111196
    138          1           0       -7.686275   -0.192633   -0.198347
 ---------------------------------------------------------------------

 SCF Done:  E(RB3LYP) =  -2733.02738786     A.U. after   17 cycles

 Excitation energies and oscillator strengths:

 Excited State   1:      Singlet-A      1.9951 eV  621.43 nm  f=0.1466  <S**2>=0.000
     235 -> 238        0.31042
     236 -> 237        0.62884
 This state for optimization and/or second-order correction.
 Total Energy, E(TD-HF/TD-DFT) =  -2732.95406770
 Copying the excited state density for this state as the 1-particle RhoCI density.

 The electronic state is 1-A.
 Alpha  occ. eigenvalues --  -19.21069 -19.17575 -19.13881 -19.11858 -19.11527
 Alpha  occ. eigenvalues --  -14.37028 -14.36657 -14.32710 -14.30346 -10.32777
 Alpha  occ. eigenvalues --  -10.31540 -10.27718 -10.27636 -10.24380 -10.24278
 Alpha  occ. eigenvalues --  -10.24253 -10.24061 -10.23272 -10.22676 -10.22387
 Alpha  occ. eigenvalues --  -10.22191 -10.21977 -10.21916 -10.21801 -10.21574
 Alpha  occ. eigenvalues --  -10.21497 -10.21419 -10.21404 -10.21186 -10.21111
 Alpha  occ. eigenvalues --  -10.21101 -10.20924 -10.20878 -10.20868 -10.20773
 Alpha  occ. eigenvalues --  -10.20724 -10.20591 -10.20577 -10.20319 -10.20311
 Alpha  occ. eigenvalues --  -10.20266 -10.20138 -10.19996 -10.19981 -10.19878
 Alpha  occ. eigenvalues --  -10.19665 -10.19554 -10.19518 -10.19423 -10.19157
 Alpha  occ. eigenvalues --  -10.19152 -10.19118 -10.19029 -10.18929 -10.18791
 Alpha  occ. eigenvalues --  -10.18764 -10.18729 -10.18688 -10.18651 -10.18527
 Alpha  occ. eigenvalues --  -10.18297 -10.17913 -10.17273 -10.16851  -1.10640
 Alpha  occ. eigenvalues --   -1.10267  -1.02228  -1.00258  -0.98759  -0.98051
 Alpha  occ. eigenvalues --   -0.97706  -0.93896  -0.91957  -0.85920  -0.82058
 Alpha  occ. eigenvalues --   -0.81244  -0.81210  -0.80810  -0.80712  -0.79987
 Alpha  occ. eigenvalues --   -0.79855  -0.78825  -0.78729  -0.78387  -0.77417
 Alpha  occ. eigenvalues --   -0.76145  -0.75540  -0.75230  -0.74280  -0.73980
 Alpha  occ. eigenvalues --   -0.73399  -0.72902  -0.71914  -0.71471  -0.70694
 Alpha  occ. eigenvalues --   -0.69798  -0.69065  -0.68660  -0.68177  -0.68172
 Alpha  occ. eigenvalues --   -0.67582  -0.67507  -0.66749  -0.65641  -0.64712
 Alpha  occ. eigenvalues --   -0.64050  -0.62697  -0.62002  -0.61442  -0.61168
 Alpha  occ. eigenvalues --   -0.60707  -0.58791  -0.58519  -0.57766  -0.57187
 Alpha  occ. eigenvalues --   -0.56473  -0.56298  -0.56112  -0.55471  -0.55197
 Alpha  occ. eigenvalues --   -0.54822  -0.54709  -0.53988  -0.53870  -0.53311
 Alpha  occ. eigenvalues --   -0.52709  -0.51795  -0.51760  -0.51351  -0.50061
 Alpha  occ. eigenvalues --   -0.49631  -0.49022  -0.48884  -0.48328  -0.48279
 Alpha  occ. eigenvalues --   -0.47721  -0.47475  -0.47411  -0.46847  -0.46512
 Alpha  occ. eigenvalues --   -0.46439  -0.46264  -0.46150  -0.45625  -0.45475
 Alpha  occ. eigenvalues --   -0.45399  -0.45227  -0.44931  -0.44825  -0.44443
 Alpha  occ. eigenvalues --   -0.44376  -0.44169  -0.43928  -0.43608  -0.43349
 Alpha  occ. eigenvalues --   -0.42972  -0.42748  -0.42497  -0.42404  -0.42134
 Alpha  occ. eigenvalues --   -0.41900  -0.41750  -0.41671  -0.41396  -0.40954
 Alpha  occ. eigenvalues --   -0.40873  -0.40737  -0.40454  -0.40424  -0.40264
 Alpha  occ. eigenvalues --   -0.39668  -0.39526  -0.39220  -0.39187  -0.39077
 Alpha  occ. eigenvalues --   -0.38868  -0.38793  -0.38628  -0.38522  -0.38141
 Alpha  occ. eigenvalues --   -0.38002  -0.37740  -0.37735  -0.37570  -0.37322
 Alpha  occ. eigenvalues --   -0.37242  -0.37201  -0.37044  -0.36801  -0.36674
 Alpha  occ. eigenvalues --   -0.36653  -0.36297  -0.36219  -0.36046  -0.35736
 Alpha  occ. eigenvalues --   -0.35406  -0.35317  -0.35078  -0.34955  -0.34789
 Alpha  occ. eigenvalues --   -0.34656  -0.34282  -0.34112  -0.33720  -0.33568
 Alpha  occ. eigenvalues --   -0.33240  -0.33149  -0.33061  -0.32844  -0.32644
 Alpha  occ. eigenvalues --   -0.32219  -0.32089  -0.31790  -0.31685  -0.31509
 Alpha  occ. eigenvalues --   -0.31333  -0.31023  -0.30823  -0.29909  -0.29637
 Alpha  occ. eigenvalues --   -0.29477  -0.28561  -0.28348  -0.27890  -0.27588
 Alpha  occ. eigenvalues --   -0.27380  -0.27151  -0.26616  -0.26324  -0.26008
 Alpha  occ. eigenvalues --   -0.24888  -0.24736  -0.24356  -0.22603  -0.19769
 Alpha  occ. eigenvalues --   -0.18723
 Alpha virt. eigenvalues --   -0.10163  -0.08042  -0.05050  -0.02058  -0.01481
 Alpha virt. eigenvalues --   -0.00121   0.00175   0.00312   0.01220   0.03012
 Alpha virt. eigenvalues --    0.03442   0.03838   0.03926   0.04230   0.04491

 Mulliken charges:
               1
     1  C   -0.041030
     2  C   -0.057592
     3  C   -0.154346
     4  C   -0.110024
     5  N   -0.255447
     6  C   -0.037435
     7  C   -0.002912
     8  C   -0.065999
     9  C   -0.014390
    10  C    0.159771
    11  C    0.137947
    12  C   -0.041772
    13  C    0.209075
    14  O   -0.234008
    15  O   -0.265998
    16  N   -0.052656
    17  C    0.096336
    18  C   -0.084078
    19  C   -0.002699
    20  C    0.105187
    21  C    0.023560
    22  C   -0.034138
    23  C   -0.024784
    24  N   -0.227752
    25  C    0.032000
    26  C   -0.114519
    27  C   -0.110088
    28  C    0.002010
    29  C    0.053733
    30  C    0.039373
    31  C    0.002158
    32  N   -0.091913
    33  C    0.131269
    34  C   -0.102924
    35  C    0.020158
    36  C    0.114264
    37  C    0.001765
    38  C    0.050301
    39  O   -0.218312
    40  C    0.037673
    41  C    0.180367
    42  O   -0.274929
    43  O   -0.269097
    44  C    0.175895
    45  C    0.178574
    46  C   -0.048031
    47  C   -0.119495
    48  C    0.086084
    49  C    0.115050
    50  C   -0.033052
    51  C   -0.036761
    52  C   -0.070330
    53  C    0.061924
    54  C    0.009633
    55  C   -0.034634
    56  C   -0.097870
    57  C   -0.066419
    58  C    0.043234
    59  C    0.046691
    60  C    0.001811
    61  C    0.066505
    62  C   -0.067753
    63  C    0.038587
    64  C    0.036118
    65  H   -0.026086
    66  H    0.028783
    67  H    0.018375
    68  H    0.015588
    69  H   -0.023954
    70  H    0.021151
    71  H   -0.002632
    72  H    0.016124
    73  H   -0.008585
    74  H    0.015963
    75  H    0.017965
    76  H    0.063120
    77  H    0.049180
    78  H    0.042426
    79  H    0.022093
    80  H    0.017172
    81  H    0.040002
    82  H    0.006354
    83  H    0.040201
    84  H    0.019300
    85  H    0.036340
    86  H    0.015385
    87  H   -0.026788
    88  H    0.018634
    89  H    0.006332
    90  H    0.034815
    91  H    0.048901
    92  H    0.039456
    93  H    0.081707
    94  H    0.050942
    95  H    0.056123
    96  H    0.002964
    97  H    0.044546
    98  H    0.034522
    99  H    0.026503
   100  H   -0.039856
   101  H    0.007026
   102  H   -0.009306
   103  H   -0.014193
   104  H    0.022218
   105  H   -0.003800
   106  H    0.034381
   107  H    0.011761
   108  H    0.022172
   109  H    0.017306
   110  H    0.002791
   111  H    0.009343
   112  H   -0.022607
   113  H    0.017218
   114  H    0.003883
   115  H   -0.017903
   116  H    0.021841
   117  H    0.018378
   118  H    0.017771
   119  H    0.023311
   120  H   -0.002565
   121  H   -0.002570
   122  H   -0.005899
   123  H   -0.010962
   124  H   -0.003891
   125  H    0.007363
   126  H    0.011052
   127  H   -0.027778
   128  H   -0.025705
   129  H    0.009658
   130  H   -0.017211
   131  H   -0.029256
   132  H    0.016208
   133  H    0.005650
   134  H    0.028451
   135  H   -0.009830
   136  H   -0.013562
   137  H    0.157916
   138  H    0.154410
 Sum of Mulliken charges =  -0.00000

 Dipole moment (field-independent basis, Debye):
    X=              3.3701    Y=              5.4238    Z=             -0.3487  Tot=              6.3950
 Quadrupole moment (field-independent basis, Debye-Ang):
   XX=           -358.5406   YY=           -382.3148   ZZ=           -397.7260
   XY=            -23.5817   XZ=              5.1842   YZ=              0.8212

 Normal termination of Gaussian 16 at Thu Aug 15 03:09:46 2019.
