 Gaussian 16, Revision A.03,
 Gaussian 16:  ES64L-G16RevA.03 25-Dec-2016

 --------------------------
 # td=(NStates=1) B3LYP/SVP
 --------------------------

 --
 TD
 --
 Symbolic Z-matrix:
 Charge =  0 Multiplicity = 1

                         Standard orientation:
 ---------------------------------------------------------------------
 Center     Atomic      Atomic             Coordinates (Angstroms)
 Number     Number       Type             X           Y           Z
 ---------------------------------------------------------------------
      1          6           0       -5.139847   -1.922799    0.587906
      2          6           0       -4.730473    2.714475    1.558008
      3          6           0       -9.393513    3.386920   -0.265503
      4          6           0       -9.772296   -1.398295   -1.064250
      5          7           0       -5.182014    0.371213    0.944300
      6          6           0       -4.585496   -0.800008    0.937781
      7          6           0       -3.090051   -0.681664    1.429458
      8          6           0       -3.028103    0.827707    1.924674
      9          6           0       -4.448558    1.379920    1.477400
     10          6           0       -2.976850    0.920059    3.462447
     11          6           0       -2.129513   -0.928197    0.249604
     12          6           0       -0.631653   -0.931574    0.607840
     13          6           0        0.325988   -1.026622   -0.618482
     14          8           0        0.024819   -1.206610   -1.757686
     15          8           0        1.551471   -0.943743   -0.160451
     16          7           0       -7.036926    2.728513    0.613948
     17          6           0       -6.042733    3.352464    1.192010
     18          6           0       -6.241810    4.773124    1.193297
     19          6           0       -7.494379    4.987743    0.615657
     20          6           0       -8.011847    3.695323    0.308767
     21          6           0       -5.297895    5.801687    1.767946
     22          6           0       -8.099030    6.287876    0.327880
     23          6           0       -9.014231    6.531915   -0.682297
     24          7           0       -9.111389    0.982221   -0.610723
     25          6           0       -9.844938    2.140819   -0.614176
     26          6           0      -11.114712    1.982533   -1.096873
     27          6           0      -11.253526    0.582835   -1.378913
     28          6           0       -9.965495    0.058681   -0.916536
     29          6           0      -12.216943    3.100881   -1.153117
     30          6           0      -12.390548   -0.050027   -2.020489
     31          6           0      -12.196371   -0.498097   -3.386109
     32          7           0       -7.441018   -1.290039   -0.342828
     33          6           0       -8.572043   -2.008898   -0.842657
     34          6           0       -8.161040   -3.456612   -0.876104
     35          6           0       -6.809929   -3.443566   -0.329531
     36          6           0       -6.436563   -2.101471    0.033105
     37          6           0       -8.901533   -4.649449   -1.190796
     38          6           0       -5.697855   -4.330303   -0.041226
     39          8           0       -5.603933   -5.478522   -0.217875
     40          6           0       -4.502844   -3.360982    0.561512
     41          6           0       -4.092696   -3.817537    1.957640
     42          8           0       -4.350409   -3.377410    3.021295
     43          8           0       -3.310391   -4.953749    1.751064
     44          6           0       -2.658967   -5.492733    2.998703
     45          6           0        2.624759   -1.001982   -1.137029
     46          6           0        3.994328   -0.901901   -0.480986
     47          6           0        4.865190    0.060333   -0.932740
     48          6           0        4.827585    0.915411   -2.144114
     49          6           0        6.302794    0.121687   -0.309731
     50          6           0        7.449402   -0.400450   -1.131007
     51          6           0        8.781464   -0.118962   -0.264822
     52          6           0       10.081792   -0.604538   -0.807279
     53          6           0        9.895495   -2.125816   -1.282641
     54          6           0       11.323265   -0.395371    0.015931
     55          6           0       12.658449   -0.790667   -0.572946
     56          6           0       13.792502   -0.045872    0.184143
     57          6           0       15.152531   -0.150651   -0.537688
     58          6           0       15.636592   -1.684481   -0.509794
     59          6           0       16.201241    0.651550    0.376835
     60          6           0       17.597244    0.471054   -0.153348
     61          6           0       18.571644    1.610876    0.612677
     62          6           0       20.031317    1.720741    0.025705
     63          6           0       20.079848    2.560713   -1.284174
     64          6           0       20.922554    2.421388    1.144266
     65          1           0       -4.158298    3.486536    1.910469
     66          1           0       -9.972538    4.320524   -0.166894
     67          1           0      -10.419880   -2.083947   -1.551230
     68          1           0       -2.784114   -1.311759    2.336063
     69          1           0       -2.221765    1.272572    1.321047
     70          1           0       -2.153162    0.381416    3.694795
     71          1           0       -3.023841    1.997539    3.778979
     72          1           0       -3.646537    0.354267    4.125535
     73          1           0       -2.539252   -1.729379   -0.507881
     74          1           0       -2.198798   -0.192450   -0.646881
     75          1           0       -0.415784    0.104075    0.842411
     76          1           0       -0.296665   -1.618041    1.458754
     77          1           0       -4.339879    5.967815    1.348019
     78          1           0       -5.800351    6.893430    1.963016
     79          1           0       -4.968642    5.672926    2.755846
     80          1           0       -7.646208    7.135046    0.815305
     81          1           0       -9.517620    5.670091   -1.350101
     82          1           0       -9.348513    7.633351   -0.817134
     83          1           0      -12.506732    3.505978   -0.268238
     84          1           0      -11.665225    3.863952   -1.809815
     85          1           0      -13.164518    2.754981   -1.631748
     86          1           0      -12.585214   -1.160087   -1.515337
     87          1           0      -13.523020    0.541394   -1.866151
     88          1           0      -11.983052    0.405578   -4.037729
     89          1           0      -11.158311   -1.004569   -3.466672
     90          1           0      -12.986119   -1.070636   -3.968747
     91          1           0       -9.693346   -4.471985   -0.565873
     92          1           0       -9.350316   -4.514376   -2.313113
     93          1           0       -8.239315   -5.530776   -0.974723
     94          1           0       -3.596515   -3.396542   -0.127557
     95          1           0       -2.000965   -6.383018    2.712993
     96          1           0       -2.164865   -4.726640    3.408010
     97          1           0       -3.354268   -5.913174    3.407506
     98          1           0        2.621161   -2.033733   -1.483829
     99          1           0        2.424560   -0.114532   -2.040811
    100          1           0        4.165825   -1.553728    0.422955
    101          1           0        5.677079    1.824358   -2.181503
    102          1           0        5.173477   -0.096165   -2.975789
    103          1           0        3.809296    1.332942   -2.634375
    104          1           0        6.429841    1.226931   -0.241117
    105          1           0        6.365258   -0.463946    0.752011
    106          1           0        7.303824   -1.381672   -1.295160
    107          1           0        7.537341    0.067024   -2.070506
    108          1           0        8.767481    0.861742   -0.145374
    109          1           0        8.739917   -0.736584    0.714339
    110          1           0       10.249157   -0.159777   -1.864746
    111          1           0        9.159851   -2.344755   -2.048295
    112          1           0       10.950980   -2.327602   -1.756901
    113          1           0        9.865497   -2.937902   -0.360432
    114          1           0       11.111542    0.834620    0.288120
    115          1           0       11.271629   -0.794986    1.085921
    116          1           0       12.935775   -1.976770   -0.502356
    117          1           0       12.702531   -0.517412   -1.748486
    118          1           0       13.622335    1.015326    0.089306
    119          1           0       14.003704   -0.233519    1.349262
    120          1           0       15.051185    0.288558   -1.478407
    121          1           0       15.065135   -2.061730   -1.254573
    122          1           0       16.715606   -1.713894   -0.804620
    123          1           0       15.455976   -2.320597    0.352374
    124          1           0       15.972952    1.752620    0.467251
    125          1           0       16.083656    0.101812    1.424655
    126          1           0       17.968720   -0.513210   -0.113829
    127          1           0       17.778665    0.665418   -1.223523
    128          1           0       18.086631    2.644368    0.823023
    129          1           0       18.792599    1.090512    1.829130
    130          1           0       20.401951    0.721316   -0.044232
    131          1           0       19.716790    3.555165   -1.022937
    132          1           0       21.045956    2.477740   -1.688927
    133          1           0       19.467685    2.008250   -1.933589
    134          1           0       20.964877    1.845645    2.221773
    135          1           0       22.034330    2.607973    0.618970
    136          1           0       20.635379    3.531727    1.159181
    137          1           0       -7.167798    1.731797    0.628243
    138          1           0       -7.657986   -0.255644   -0.083821
 ---------------------------------------------------------------------

 SCF Done:  E(RB3LYP) =  -2732.98502316     A.U. after   17 cycles

 Excitation energies and oscillator strengths:

 Excited State   1:      Singlet-A      2.0269 eV  611.68 nm  f=0.1582  <S**2>=0.000
     235 -> 237       -0.23114
     235 -> 238       -0.22756
     236 -> 237        0.60549
     236 -> 238       -0.15497
 This state for optimization and/or second-order correction.
 Total Energy, E(TD-HF/TD-DFT) =  -2732.91053453
 Copying the excited state density for this state as the 1-particle RhoCI density.

 The electronic state is 1-A.
 Alpha  occ. eigenvalues --  -19.17558 -19.15553 -19.12842 -19.12652 -19.11786
 Alpha  occ. eigenvalues --  -14.37289 -14.36771 -14.31108 -14.30160 -10.30864
 Alpha  occ. eigenvalues --  -10.30824 -10.27997 -10.25965 -10.24235 -10.24046
 Alpha  occ. eigenvalues --  -10.23855 -10.23679 -10.23268 -10.23241 -10.22279
 Alpha  occ. eigenvalues --  -10.22224 -10.22197 -10.21875 -10.21409 -10.21388
 Alpha  occ. eigenvalues --  -10.21344 -10.21245 -10.21207 -10.21092 -10.20941
 Alpha  occ. eigenvalues --  -10.20913 -10.20739 -10.20455 -10.20411 -10.20388
 Alpha  occ. eigenvalues --  -10.20368 -10.20252 -10.20213 -10.20201 -10.20130
 Alpha  occ. eigenvalues --  -10.20061 -10.20036 -10.19989 -10.19683 -10.19608
 Alpha  occ. eigenvalues --  -10.19550 -10.19464 -10.19216 -10.19190 -10.19166
 Alpha  occ. eigenvalues --  -10.19143 -10.19068 -10.18813 -10.18806 -10.18752
 Alpha  occ. eigenvalues --  -10.18628 -10.18451 -10.18398 -10.18331 -10.18020
 Alpha  occ. eigenvalues --  -10.17765 -10.17646 -10.17282 -10.17157  -1.10329
 Alpha  occ. eigenvalues --   -1.07820  -1.05784  -1.00977  -0.99458  -0.99085
 Alpha  occ. eigenvalues --   -0.97091  -0.95433  -0.93731  -0.83799  -0.82658
 Alpha  occ. eigenvalues --   -0.81955  -0.81436  -0.81312  -0.80334  -0.79914
 Alpha  occ. eigenvalues --   -0.79814  -0.79650  -0.79027  -0.78654  -0.77278
 Alpha  occ. eigenvalues --   -0.76432  -0.75996  -0.75521  -0.74347  -0.74017
 Alpha  occ. eigenvalues --   -0.73767  -0.72984  -0.72671  -0.71216  -0.70916
 Alpha  occ. eigenvalues --   -0.69664  -0.68998  -0.68659  -0.67872  -0.67176
 Alpha  occ. eigenvalues --   -0.66840  -0.66275  -0.65968  -0.65203  -0.64251
 Alpha  occ. eigenvalues --   -0.64084  -0.62451  -0.62071  -0.61478  -0.60697
 Alpha  occ. eigenvalues --   -0.60398  -0.59465  -0.58349  -0.57706  -0.57067
 Alpha  occ. eigenvalues --   -0.56799  -0.56572  -0.55407  -0.54931  -0.54842
 Alpha  occ. eigenvalues --   -0.54415  -0.53810  -0.53788  -0.53534  -0.53055
 Alpha  occ. eigenvalues --   -0.52088  -0.51675  -0.51511  -0.50748  -0.50070
 Alpha  occ. eigenvalues --   -0.49819  -0.49562  -0.49222  -0.49036  -0.47994
 Alpha  occ. eigenvalues --   -0.47578  -0.47213  -0.47008  -0.46964  -0.46654
 Alpha  occ. eigenvalues --   -0.46404  -0.46238  -0.45954  -0.45863  -0.45516
 Alpha  occ. eigenvalues --   -0.45450  -0.44978  -0.44834  -0.44631  -0.44577
 Alpha  occ. eigenvalues --   -0.44069  -0.44054  -0.43966  -0.43751  -0.43671
 Alpha  occ. eigenvalues --   -0.43348  -0.43118  -0.42866  -0.42768  -0.42340
 Alpha  occ. eigenvalues --   -0.42035  -0.41903  -0.41775  -0.41574  -0.41409
 Alpha  occ. eigenvalues --   -0.41130  -0.40942  -0.40899  -0.40707  -0.40584
 Alpha  occ. eigenvalues --   -0.40400  -0.40221  -0.40023  -0.39942  -0.39752
 Alpha  occ. eigenvalues --   -0.39302  -0.39261  -0.39079  -0.38893  -0.38714
 Alpha  occ. eigenvalues --   -0.38687  -0.38399  -0.38145  -0.37619  -0.37586
 Alpha  occ. eigenvalues --   -0.37343  -0.36944  -0.36821  -0.36743  -0.36638
 Alpha  occ. eigenvalues --   -0.36414  -0.36230  -0.36034  -0.35925  -0.35807
 Alpha  occ. eigenvalues --   -0.35446  -0.35344  -0.35207  -0.34752  -0.34723
 Alpha  occ. eigenvalues --   -0.34408  -0.34305  -0.34177  -0.34124  -0.33962
 Alpha  occ. eigenvalues --   -0.33925  -0.33127  -0.32941  -0.32390  -0.32257
 Alpha  occ. eigenvalues --   -0.31752  -0.31611  -0.31290  -0.31183  -0.30768
 Alpha  occ. eigenvalues --   -0.30556  -0.30209  -0.30090  -0.29844  -0.29722
 Alpha  occ. eigenvalues --   -0.29114  -0.28921  -0.28131  -0.27379  -0.27289
 Alpha  occ. eigenvalues --   -0.27205  -0.26930  -0.26864  -0.25712  -0.25207
 Alpha  occ. eigenvalues --   -0.25023  -0.24083  -0.23829  -0.22354  -0.20133
 Alpha  occ. eigenvalues --   -0.18765
 Alpha virt. eigenvalues --   -0.10652  -0.07965  -0.03576  -0.02120  -0.01503
 Alpha virt. eigenvalues --    0.00214   0.01273   0.01694   0.02375   0.02621
 Alpha virt. eigenvalues --    0.03657   0.04260   0.04347   0.04581   0.04648

 Mulliken charges:
               1
     1  C    0.102877
     2  C    0.020920
     3  C   -0.132441
     4  C   -0.073256
     5  N   -0.146850
     6  C   -0.148571
     7  C   -0.045227
     8  C   -0.036398
     9  C    0.049389
    10  C    0.108800
    11  C   -0.035297
    12  C    0.061140
    13  C    0.136424
    14  O   -0.217012
    15  O   -0.293530
    16  N    0.017077
    17  C   -0.036303
    18  C   -0.101548
    19  C    0.035558
    20  C   -0.009148
    21  C    0.079024
    22  C   -0.017597
    23  C   -0.099287
    24  N   -0.200282
    25  C    0.167452
    26  C   -0.161858
    27  C   -0.088140
    28  C    0.086102
    29  C    0.124701
    30  C   -0.023444
    31  C   -0.013030
    32  N   -0.106209
    33  C    0.061192
    34  C   -0.124108
    35  C   -0.036872
    36  C    0.082422
    37  C    0.101633
    38  C    0.052928
    39  O   -0.105789
    40  C   -0.099163
    41  C    0.212964
    42  O   -0.189950
    43  O   -0.382943
    44  C    0.337436
    45  C    0.214250
    46  C   -0.097229
    47  C   -0.072518
    48  C   -0.112712
    49  C   -0.004393
    50  C    0.094826
    51  C    0.071196
    52  C   -0.055671
    53  C   -0.059209
    54  C   -0.001244
    55  C   -0.017157
    56  C    0.025354
    57  C   -0.098442
    58  C    0.057991
    59  C    0.014501
    60  C    0.060977
    61  C   -0.099380
    62  C   -0.084632
    63  C    0.112074
    64  C   -0.057796
    65  H   -0.078301
    66  H    0.012105
    67  H   -0.032807
    68  H    0.022401
    69  H    0.005535
    70  H   -0.026891
    71  H    0.019976
    72  H    0.016491
    73  H    0.017872
    74  H    0.007283
    75  H    0.015715
    76  H    0.046276
    77  H    0.011629
    78  H    0.023845
    79  H   -0.001351
    80  H   -0.013977
    81  H    0.067931
    82  H    0.041900
    83  H    0.008169
    84  H    0.029644
    85  H    0.010267
    86  H    0.008134
    87  H    0.032709
    88  H   -0.004686
    89  H    0.015175
    90  H    0.029327
    91  H    0.018492
    92  H    0.051284
    93  H    0.068260
    94  H    0.073411
    95  H    0.028463
    96  H    0.008132
    97  H   -0.052456
    98  H    0.017859
    99  H    0.058619
   100  H    0.016315
   101  H    0.062726
   102  H    0.069995
   103  H    0.065479
   104  H    0.001614
   105  H    0.022050
   106  H   -0.030689
   107  H   -0.017912
   108  H   -0.047624
   109  H    0.005304
   110  H   -0.010864
   111  H    0.024267
   112  H    0.009783
   113  H    0.017019
   114  H    0.009893
   115  H    0.006285
   116  H    0.041104
   117  H    0.019446
   118  H   -0.019771
   119  H    0.015001
   120  H   -0.020050
   121  H   -0.022004
   122  H    0.008407
   123  H    0.014095
   124  H    0.006031
   125  H    0.012917
   126  H   -0.006141
   127  H   -0.014258
   128  H    0.021805
   129  H   -0.000528
   130  H   -0.011169
   131  H    0.015893
   132  H   -0.001034
   133  H   -0.014379
   134  H    0.050385
   135  H    0.006193
   136  H    0.010427
   137  H    0.139803
   138  H    0.183180
 Sum of Mulliken charges =  -0.00000

 Dipole moment (field-independent basis, Debye):
    X=              2.6712    Y=              2.8700    Z=              0.3177  Tot=              3.9336
 Quadrupole moment (field-independent basis, Debye-Ang):
   XX=           -359.1221   YY=           -378.7650   ZZ=           -396.0691
   XY=            -16.3521   XZ=             -7.1912   YZ=             -3.1880

 Normal termination of Gaussian 16 at Sun Aug 18 21:59:56 2019.
