 Gaussian 16, Revision A.03,
 Gaussian 16:  ES64L-G16RevA.03 25-Dec-2016

 --------------------------
 # td=(NStates=1) B3LYP/SVP
 --------------------------

 --
 TD
 --
 Symbolic Z-matrix:
 Charge =  0 Multiplicity = 1

                         Standard orientation:
 ---------------------------------------------------------------------
 Center     Atomic      Atomic             Coordinates (Angstroms)
 Number     Number       Type             X           Y           Z
 ---------------------------------------------------------------------
      1          6           0       -5.092393   -1.896342    0.528091
      2          6           0       -4.726697    2.807637    1.356653
      3          6           0       -9.381467    3.284207   -0.380843
      4          6           0       -9.874448   -1.620750   -0.892286
      5          7           0       -5.163114    0.472282    0.683292
      6          6           0       -4.547122   -0.710609    0.906489
      7          6           0       -3.112810   -0.504384    1.346448
      8          6           0       -3.075868    0.953823    1.791193
      9          6           0       -4.403687    1.388070    1.258397
     10          6           0       -3.077490    1.014015    3.331786
     11          6           0       -2.053313   -0.775550    0.199859
     12          6           0       -0.581210   -0.665731    0.574568
     13          6           0        0.360612   -0.787008   -0.484614
     14          8           0        0.103033   -1.255895   -1.584462
     15          8           0        1.668097   -0.727263   -0.014605
     16          7           0       -6.923505    2.827433    0.247649
     17          6           0       -5.982330    3.423416    0.922623
     18          6           0       -6.284242    4.714989    1.002692
     19          6           0       -7.575080    4.931131    0.498385
     20          6           0       -8.055834    3.602545    0.027682
     21          6           0       -5.375369    5.945189    1.452910
     22          6           0       -8.230962    6.221319    0.386363
     23          6           0       -9.475986    6.560165   -0.272605
     24          7           0       -9.266259    0.863401   -0.692425
     25          6           0       -9.898618    2.023024   -0.589911
     26          6           0      -11.263546    1.820605   -1.017474
     27          6           0      -11.464475    0.551098   -1.150427
     28          6           0      -10.181909   -0.114124   -0.919435
     29          6           0      -12.333968    2.922569   -1.185854
     30          6           0      -12.691353   -0.263571   -1.631447
     31          6           0      -12.559267   -0.730622   -3.073490
     32          7           0       -7.503533   -1.298582   -0.305578
     33          6           0       -8.593676   -2.085522   -0.617371
     34          6           0       -8.188735   -3.459770   -0.576351
     35          6           0       -6.808938   -3.461478   -0.292651
     36          6           0       -6.381218   -2.082739   -0.024916
     37          6           0       -9.128742   -4.554602   -0.958591
     38          6           0       -5.678952   -4.261528   -0.028951
     39          8           0       -5.507258   -5.468129   -0.298187
     40          6           0       -4.503709   -3.368272    0.502962
     41          6           0       -4.015066   -3.882905    1.695821
     42          8           0       -4.261463   -3.599101    2.872408
     43          8           0       -3.067641   -4.798696    1.471377
     44          6           0       -2.588889   -5.471108    2.672318
     45          6           0        2.675790   -0.793092   -0.991067
     46          6           0        4.015505   -0.510574   -0.317900
     47          6           0        5.091928    0.221450   -0.775901
     48          6           0        5.014394    0.886304   -2.160138
     49          6           0        6.305234    0.297224   -0.076644
     50          6           0        7.473421   -0.495730   -0.818769
     51          6           0        8.833020   -0.252471   -0.151519
     52          6           0       10.074683   -0.673639   -0.882042
     53          6           0        9.997991   -2.211379   -0.931948
     54          6           0       11.303581   -0.187491   -0.026339
     55          6           0       12.734324   -0.631339   -0.638812
     56          6           0       13.853330    0.132314    0.052487
     57          6           0       15.244915   -0.131261   -0.520266
     58          6           0       15.642025   -1.661461   -0.653832
     59          6           0       16.380220    0.541192    0.378580
     60          6           0       17.737711    0.592421   -0.146467
     61          6           0       18.745504    1.426280    0.590323
     62          6           0       20.176238    1.517760    0.149224
     63          6           0       20.245906    2.233258   -1.253249
     64          6           0       21.040293    2.357632    1.021310
     65          1           0       -3.869787    3.450585    1.509071
     66          1           0      -10.060898    4.117693   -0.328826
     67          1           0      -10.643936   -2.290199   -1.295833
     68          1           0       -2.967829   -1.342334    2.082073
     69          1           0       -2.225811    1.460433    1.284529
     70          1           0       -1.956357    0.724104    3.673164
     71          1           0       -3.399884    1.949913    3.780933
     72          1           0       -3.842938    0.325057    3.903652
     73          1           0       -2.237730   -1.929571   -0.076152
     74          1           0       -2.229874   -0.196325   -0.838929
     75          1           0       -0.517152    0.402785    0.924459
     76          1           0       -0.396876   -1.279890    1.648779
     77          1           0       -4.320848    5.736424    1.043777
     78          1           0       -5.555173    6.985507    1.294295
     79          1           0       -4.987039    5.786823    2.575216
     80          1           0       -7.556508    6.996992    0.739198
     81          1           0       -9.989858    5.809351   -0.958668
     82          1           0       -9.737577    7.605930   -0.118591
     83          1           0      -12.622081    3.294189   -0.171493
     84          1           0      -11.978032    3.743513   -1.850356
     85          1           0      -13.091884    2.352558   -1.600695
     86          1           0      -12.781974   -1.106056   -0.980400
     87          1           0      -13.649189    0.173734   -1.305046
     88          1           0      -12.617840    0.238797   -3.716198
     89          1           0      -11.654133   -1.184291   -3.332646
     90          1           0      -13.364377   -1.382613   -3.327919
     91          1           0       -9.963862   -4.565953   -0.321656
     92          1           0       -9.321661   -4.606413   -2.125042
     93          1           0       -8.549491   -5.649415   -1.014536
     94          1           0       -3.640493   -3.537349   -0.105418
     95          1           0       -1.844313   -6.203301    2.176662
     96          1           0       -1.772031   -4.821032    3.175158
     97          1           0       -3.481941   -5.840019    3.457192
     98          1           0        2.737569   -1.775879   -1.588906
     99          1           0        2.401093   -0.000832   -1.771199
    100          1           0        4.182309   -1.322052    0.513834
    101          1           0        5.310979    1.925442   -2.188981
    102          1           0        5.653090    0.178148   -2.972884
    103          1           0        4.006138    1.017933   -2.502916
    104          1           0        6.519173    1.438880    0.095541
    105          1           0        6.136747    0.032484    0.945753
    106          1           0        7.127862   -1.502400   -0.793121
    107          1           0        7.273516   -0.095205   -1.809348
    108          1           0        8.762414    0.964358   -0.000850
    109          1           0        8.553467   -0.835196    0.815696
    110          1           0       10.300609   -0.222014   -1.899229
    111          1           0        9.007419   -2.553849   -1.463187
    112          1           0       10.780200   -2.723137   -1.578710
    113          1           0       10.230847   -2.711657    0.116540
    114          1           0       11.082270    1.016683   -0.190346
    115          1           0       11.293085   -0.551080    1.082115
    116          1           0       12.805898   -1.668771   -0.596044
    117          1           0       12.767592   -0.457183   -1.791729
    118          1           0       13.726234    1.239815    0.174207
    119          1           0       13.762234   -0.366202    1.272837
    120          1           0       15.446305    0.092894   -1.598691
    121          1           0       14.849663   -2.347881   -1.080290
    122          1           0       16.560533   -1.973785   -1.255507
    123          1           0       15.879939   -2.125831    0.366253
    124          1           0       15.922250    1.532570    0.251746
    125          1           0       16.209069    0.015057    1.206155
    126          1           0       18.447396   -0.611392   -0.180678
    127          1           0       17.941098    0.745776   -1.200122
    128          1           0       18.225082    2.229325    0.901439
    129          1           0       18.674478    1.031195    1.736767
    130          1           0       20.613425    0.596539   -0.122369
    131          1           0       19.874640    3.229418   -0.992793
    132          1           0       21.293400    2.227749   -1.711302
    133          1           0       19.366111    1.750344   -2.122782
    134          1           0       21.009849    2.042827    2.015752
    135          1           0       22.112084    2.442746    0.695819
    136          1           0       20.711544    3.429062    0.994250
    137          1           0       -6.981301    1.786835    0.126721
    138          1           0       -7.785741   -0.347934   -0.032311
 ---------------------------------------------------------------------

 SCF Done:  E(RB3LYP) =  -2733.03645336     A.U. after   18 cycles

 Excitation energies and oscillator strengths:

 Excited State   1:      Singlet-A      1.9260 eV  643.73 nm  f=0.1825  <S**2>=0.000
     235 -> 237       -0.15055
     235 -> 238       -0.27027
     236 -> 237        0.61938
     236 -> 238       -0.12750
 This state for optimization and/or second-order correction.
 Total Energy, E(TD-HF/TD-DFT) =  -2732.96567277
 Copying the excited state density for this state as the 1-particle RhoCI density.

 The electronic state is 1-A.
 Alpha  occ. eigenvalues --  -19.17526 -19.17418 -19.13137 -19.11983 -19.11171
 Alpha  occ. eigenvalues --  -14.37525 -14.37359 -14.32917 -14.30173 -10.31984
 Alpha  occ. eigenvalues --  -10.30507 -10.28069 -10.26148 -10.25150 -10.25127
 Alpha  occ. eigenvalues --  -10.24183 -10.23807 -10.23446 -10.23431 -10.23421
 Alpha  occ. eigenvalues --  -10.22666 -10.22439 -10.22211 -10.22064 -10.21878
 Alpha  occ. eigenvalues --  -10.21543 -10.21411 -10.21381 -10.21309 -10.21278
 Alpha  occ. eigenvalues --  -10.21029 -10.20998 -10.20943 -10.20933 -10.20874
 Alpha  occ. eigenvalues --  -10.20731 -10.20729 -10.20599 -10.20394 -10.20169
 Alpha  occ. eigenvalues --  -10.20150 -10.20148 -10.20084 -10.20052 -10.20001
 Alpha  occ. eigenvalues --  -10.19928 -10.19802 -10.19779 -10.19728 -10.19661
 Alpha  occ. eigenvalues --  -10.19418 -10.19221 -10.19099 -10.18834 -10.18720
 Alpha  occ. eigenvalues --  -10.18555 -10.18484 -10.18368 -10.18336 -10.17789
 Alpha  occ. eigenvalues --  -10.17706 -10.17676 -10.17570 -10.17478  -1.09561
 Alpha  occ. eigenvalues --   -1.09003  -1.01012  -1.00689  -1.00315  -0.98361
 Alpha  occ. eigenvalues --   -0.98052  -0.96520  -0.95114  -0.85709  -0.83001
 Alpha  occ. eigenvalues --   -0.82395  -0.81931  -0.81243  -0.81171  -0.80994
 Alpha  occ. eigenvalues --   -0.80594  -0.80102  -0.79744  -0.79172  -0.78738
 Alpha  occ. eigenvalues --   -0.77714  -0.76532  -0.76051  -0.74782  -0.74517
 Alpha  occ. eigenvalues --   -0.73642  -0.73072  -0.72698  -0.71517  -0.70388
 Alpha  occ. eigenvalues --   -0.69594  -0.69132  -0.68668  -0.67998  -0.67790
 Alpha  occ. eigenvalues --   -0.67240  -0.66725  -0.66065  -0.65826  -0.65081
 Alpha  occ. eigenvalues --   -0.64765  -0.63761  -0.63001  -0.62686  -0.62314
 Alpha  occ. eigenvalues --   -0.61042  -0.59355  -0.58829  -0.58477  -0.57930
 Alpha  occ. eigenvalues --   -0.57411  -0.56538  -0.56522  -0.55390  -0.55146
 Alpha  occ. eigenvalues --   -0.54997  -0.54505  -0.53900  -0.53646  -0.53600
 Alpha  occ. eigenvalues --   -0.52941  -0.52516  -0.51981  -0.51310  -0.51134
 Alpha  occ. eigenvalues --   -0.50380  -0.49728  -0.49550  -0.49309  -0.48324
 Alpha  occ. eigenvalues --   -0.48185  -0.47683  -0.47459  -0.47251  -0.47024
 Alpha  occ. eigenvalues --   -0.46718  -0.46581  -0.46369  -0.46142  -0.45683
 Alpha  occ. eigenvalues --   -0.45478  -0.45243  -0.45050  -0.44868  -0.44446
 Alpha  occ. eigenvalues --   -0.44288  -0.44208  -0.44002  -0.43662  -0.43533
 Alpha  occ. eigenvalues --   -0.43507  -0.43299  -0.42987  -0.42841  -0.42613
 Alpha  occ. eigenvalues --   -0.42410  -0.42172  -0.42144  -0.41869  -0.41548
 Alpha  occ. eigenvalues --   -0.41422  -0.41047  -0.40858  -0.40682  -0.40630
 Alpha  occ. eigenvalues --   -0.40398  -0.40074  -0.39771  -0.39649  -0.39585
 Alpha  occ. eigenvalues --   -0.39515  -0.39121  -0.38688  -0.38421  -0.38195
 Alpha  occ. eigenvalues --   -0.38068  -0.37999  -0.37962  -0.37756  -0.37515
 Alpha  occ. eigenvalues --   -0.37346  -0.37277  -0.37181  -0.36934  -0.36817
 Alpha  occ. eigenvalues --   -0.36564  -0.36499  -0.36466  -0.36124  -0.35794
 Alpha  occ. eigenvalues --   -0.35644  -0.35502  -0.35358  -0.35037  -0.34933
 Alpha  occ. eigenvalues --   -0.34829  -0.34446  -0.34006  -0.33687  -0.33363
 Alpha  occ. eigenvalues --   -0.33273  -0.33148  -0.32954  -0.32930  -0.32661
 Alpha  occ. eigenvalues --   -0.32458  -0.32161  -0.32024  -0.31481  -0.31170
 Alpha  occ. eigenvalues --   -0.30980  -0.30701  -0.30264  -0.30014  -0.29765
 Alpha  occ. eigenvalues --   -0.29733  -0.28809  -0.28671  -0.28447  -0.28081
 Alpha  occ. eigenvalues --   -0.26987  -0.26828  -0.26815  -0.26537  -0.26230
 Alpha  occ. eigenvalues --   -0.25172  -0.23957  -0.23808  -0.23072  -0.20454
 Alpha  occ. eigenvalues --   -0.19403
 Alpha virt. eigenvalues --   -0.11402  -0.08713  -0.05658  -0.02988  -0.02792
 Alpha virt. eigenvalues --   -0.00863  -0.00627   0.00234   0.01921   0.03480
 Alpha virt. eigenvalues --    0.03592   0.03673   0.04198   0.04314   0.04615

 Mulliken charges:
               1
     1  C    0.092474
     2  C   -0.081958
     3  C   -0.077167
     4  C   -0.057850
     5  N   -0.140324
     6  C   -0.093231
     7  C   -0.028918
     8  C    0.010951
     9  C   -0.032252
    10  C    0.010061
    11  C   -0.060365
    12  C    0.013094
    13  C    0.211218
    14  O   -0.231341
    15  O   -0.324814
    16  N   -0.016791
    17  C    0.079410
    18  C   -0.095250
    19  C   -0.013906
    20  C    0.065461
    21  C    0.054375
    22  C   -0.051905
    23  C   -0.038518
    24  N   -0.208232
    25  C    0.071322
    26  C   -0.198816
    27  C   -0.087662
    28  C   -0.013099
    29  C    0.147385
    30  C    0.086436
    31  C    0.052876
    32  N   -0.063627
    33  C    0.078228
    34  C   -0.121901
    35  C    0.063885
    36  C    0.056533
    37  C    0.027455
    38  C    0.024560
    39  O   -0.200433
    40  C    0.023497
    41  C    0.166627
    42  O   -0.262694
    43  O   -0.298897
    44  C    0.119365
    45  C    0.222041
    46  C   -0.109524
    47  C   -0.168113
    48  C    0.059470
    49  C    0.074139
    50  C    0.029867
    51  C    0.009198
    52  C   -0.021892
    53  C   -0.048599
    54  C   -0.050745
    55  C    0.047401
    56  C    0.006404
    57  C   -0.102990
    58  C   -0.050408
    59  C    0.160986
    60  C   -0.033927
    61  C    0.070005
    62  C    0.007846
    63  C   -0.082816
    64  C    0.068038
    65  H   -0.015144
    66  H   -0.025401
    67  H    0.007620
    68  H    0.019382
    69  H    0.019372
    70  H    0.031226
    71  H    0.009784
    72  H    0.043986
    73  H    0.028502
    74  H    0.043465
    75  H    0.020073
    76  H    0.079670
    77  H    0.015309
    78  H    0.033037
    79  H    0.022892
    80  H   -0.014644
    81  H    0.059680
    82  H    0.031625
    83  H    0.031596
    84  H    0.024561
    85  H   -0.011535
    86  H   -0.026100
    87  H   -0.009097
    88  H    0.015143
    89  H    0.002788
    90  H    0.006356
    91  H    0.035240
    92  H    0.055927
    93  H    0.053569
    94  H    0.044214
    95  H    0.035885
    96  H    0.030021
    97  H    0.093428
    98  H    0.040315
    99  H    0.012877
   100  H    0.014647
   101  H    0.006499
   102  H    0.061699
   103  H   -0.014428
   104  H    0.004922
   105  H   -0.025448
   106  H   -0.001843
   107  H   -0.018474
   108  H    0.013347
   109  H    0.019684
   110  H    0.010830
   111  H    0.030533
   112  H    0.010541
   113  H    0.027567
   114  H    0.018609
   115  H    0.020738
   116  H   -0.004128
   117  H   -0.004048
   118  H    0.015225
   119  H    0.007369
   120  H    0.005815
   121  H    0.007594
   122  H    0.022198
   123  H   -0.001700
   124  H    0.002828
   125  H   -0.028232
   126  H   -0.028957
   127  H   -0.018359
   128  H   -0.066443
   129  H   -0.024977
   130  H   -0.015294
   131  H    0.007398
   132  H    0.032766
   133  H    0.025696
   134  H   -0.008562
   135  H    0.006009
   136  H   -0.001901
   137  H    0.158431
   138  H    0.144583
 Sum of Mulliken charges =  -0.00000

 Dipole moment (field-independent basis, Debye):
    X=              0.8563    Y=              4.2607    Z=              0.4319  Tot=              4.3673
 Quadrupole moment (field-independent basis, Debye-Ang):
   XX=           -350.6653   YY=           -389.8769   ZZ=           -401.0880
   XY=             -8.4367   XZ=              5.5522   YZ=              0.1018

 Normal termination of Gaussian 16 at Sat Aug 10 01:38:48 2019.
