 Gaussian 16, Revision A.03,
 Gaussian 16:  ES64L-G16RevA.03 25-Dec-2016

 --------------------------
 # td=(NStates=1) B3LYP/SVP
 --------------------------

 --
 TD
 --
 Symbolic Z-matrix:
 Charge =  0 Multiplicity = 1

                         Standard orientation:
 ---------------------------------------------------------------------
 Center     Atomic      Atomic             Coordinates (Angstroms)
 Number     Number       Type             X           Y           Z
 ---------------------------------------------------------------------
      1          6           0       -5.138696   -1.948178    0.462543
      2          6           0       -4.739868    2.759686    1.354672
      3          6           0       -9.241010    3.354828   -0.295257
      4          6           0       -9.875815   -1.419300   -0.972161
      5          7           0       -5.174972    0.437277    0.874294
      6          6           0       -4.519493   -0.721162    0.844939
      7          6           0       -3.032720   -0.598763    1.213891
      8          6           0       -3.053183    0.847683    1.820471
      9          6           0       -4.388078    1.423504    1.429945
     10          6           0       -2.934192    0.942771    3.419904
     11          6           0       -2.092699   -0.768230    0.072276
     12          6           0       -0.638124   -0.728967    0.530341
     13          6           0        0.225601   -0.904769   -0.701577
     14          8           0       -0.117565   -1.093265   -1.892941
     15          8           0        1.560057   -0.811601   -0.342318
     16          7           0       -7.005859    2.769756    0.539649
     17          6           0       -5.924148    3.368966    1.046264
     18          6           0       -6.149316    4.758481    1.092802
     19          6           0       -7.439961    4.966950    0.531340
     20          6           0       -7.976899    3.707199    0.216839
     21          6           0       -5.237361    5.846787    1.549163
     22          6           0       -8.053789    6.289931    0.407522
     23          6           0       -9.057395    6.658144   -0.526451
     24          7           0       -9.108609    0.943961   -0.495715
     25          6           0       -9.816288    2.116989   -0.511860
     26          6           0      -11.155077    1.925912   -0.996932
     27          6           0      -11.367413    0.549648   -1.185318
     28          6           0      -10.066214    0.000384   -0.838163
     29          6           0      -12.198834    3.010631   -1.238568
     30          6           0      -12.678582   -0.131847   -1.526472
     31          6           0      -12.738428   -0.272347   -3.113961
     32          7           0       -7.547119   -1.336364   -0.272053
     33          6           0       -8.709664   -2.076243   -0.622114
     34          6           0       -8.231370   -3.462402   -0.648356
     35          6           0       -6.864926   -3.466622   -0.369135
     36          6           0       -6.437895   -2.164061   -0.051844
     37          6           0       -9.119202   -4.661859   -0.902244
     38          6           0       -5.805689   -4.349817    0.182692
     39          8           0       -5.660989   -5.519744    0.039214
     40          6           0       -4.609675   -3.350287    0.388491
     41          6           0       -3.959312   -3.798504    1.728600
     42          8           0       -4.259014   -3.456544    2.818114
     43          8           0       -3.118248   -4.837677    1.541103
     44          6           0       -2.688117   -5.509645    2.721223
     45          6           0        2.613510   -1.145367   -1.288121
     46          6           0        3.935883   -0.809733   -0.685573
     47          6           0        4.870800    0.017702   -1.000377
     48          6           0        5.002478    0.787175   -2.397698
     49          6           0        6.236809   -0.019055   -0.223393
     50          6           0        7.442965   -0.470775   -1.079917
     51          6           0        8.752502   -0.322415   -0.192157
     52          6           0       10.155798   -0.876789   -0.785368
     53          6           0       10.065881   -2.371845   -1.089164
     54          6           0       11.394397   -0.403190   -0.034249
     55          6           0       12.746405   -0.770973   -0.659706
     56          6           0       13.839991    0.001999    0.150748
     57          6           0       15.299486   -0.209139   -0.378518
     58          6           0       15.744334   -1.620611   -0.477661
     59          6           0       16.288565    0.686764    0.423651
     60          6           0       17.635919    0.661868    0.073895
     61          6           0       18.539028    1.803645    0.648942
     62          6           0       20.046794    1.817279    0.185577
     63          6           0       20.327192    2.113945   -1.159044
     64          6           0       20.902464    2.637684    1.092160
     65          1           0       -4.002783    3.509824    1.916372
     66          1           0       -9.814544    4.205888   -0.636186
     67          1           0      -10.837583   -1.928378   -0.813623
     68          1           0       -2.911855   -1.371233    2.010454
     69          1           0       -2.132310    1.584497    1.404975
     70          1           0       -1.832773    0.554160    3.803402
     71          1           0       -3.283706    2.053270    3.737732
     72          1           0       -3.621282    0.367990    3.848294
     73          1           0       -2.203165   -1.593654   -0.436492
     74          1           0       -2.274764    0.181522   -0.677635
     75          1           0       -0.181337    0.204359    0.955181
     76          1           0       -0.287706   -1.679136    1.181154
     77          1           0       -4.453289    6.098262    0.696189
     78          1           0       -5.743779    6.879031    1.780841
     79          1           0       -4.414002    5.592846    2.544808
     80          1           0       -7.843822    6.977137    1.166242
     81          1           0       -9.337143    5.815491   -1.310566
     82          1           0       -9.608071    7.714321   -0.697363
     83          1           0      -12.129316    3.814960   -0.508702
     84          1           0      -11.943790    3.580795   -2.334849
     85          1           0      -13.270352    2.498613   -1.211611
     86          1           0      -12.658949   -1.216123   -0.985306
     87          1           0      -13.313173    0.533075   -1.153865
     88          1           0      -12.922571    0.742528   -3.276401
     89          1           0      -11.794059   -0.572074   -3.469761
     90          1           0      -13.722999   -0.742158   -3.253254
     91          1           0       -9.748479   -4.825080    0.094192
     92          1           0       -9.767667   -4.571954   -1.909251
     93          1           0       -8.451598   -5.604284   -1.001238
     94          1           0       -3.950634   -3.691432   -0.392988
     95          1           0       -1.825594   -6.113512    2.471277
     96          1           0       -2.350361   -4.781320    3.555945
     97          1           0       -3.600877   -6.130421    3.040501
     98          1           0        2.460277   -2.190980   -1.615729
     99          1           0        2.521788   -0.320864   -2.106808
    100          1           0        4.009428   -1.167570    0.442170
    101          1           0        5.358695    1.824704   -2.108833
    102          1           0        5.797454    0.352778   -3.189396
    103          1           0        4.194771    0.754193   -2.966799
    104          1           0        6.442136    1.088567    0.161618
    105          1           0        6.232133   -0.796775    0.701693
    106          1           0        7.352611   -1.532756   -1.294337
    107          1           0        7.703111   -0.117018   -1.923332
    108          1           0        8.820163    0.670106    0.125245
    109          1           0        8.740302   -0.947826    0.809316
    110          1           0       10.169179   -0.170723   -1.807872
    111          1           0        9.254870   -2.847492   -1.756002
    112          1           0       10.845159   -2.785000   -1.449483
    113          1           0        9.876110   -2.910500   -0.171489
    114          1           0       11.247989    0.677248    0.172571
    115          1           0       11.452248   -0.925127    0.944681
    116          1           0       12.991881   -1.934373   -0.604710
    117          1           0       12.671531   -0.212893   -1.552489
    118          1           0       13.420052    1.073240    0.174470
    119          1           0       13.803530   -0.262185    1.121247
    120          1           0       15.311056    0.096304   -1.590947
    121          1           0       15.183764   -2.309623   -0.950546
    122          1           0       16.842872   -1.607915   -0.858955
    123          1           0       15.804949   -2.063693    0.618562
    124          1           0       15.881881    1.575368    0.416079
    125          1           0       16.253123    0.342335    1.426386
    126          1           0       18.179343   -0.189757    0.028593
    127          1           0       17.846153    0.691493   -1.186010
    128          1           0       18.117055    2.672545    0.635092
    129          1           0       18.560397    1.599016    1.834004
    130          1           0       20.447795    0.857618    0.350556
    131          1           0       20.122353    3.228239   -1.433473
    132          1           0       21.517069    2.101658   -1.375232
    133          1           0       19.826752    1.387196   -2.044939
    134          1           0       20.947549    2.419530    2.135038
    135          1           0       21.852510    2.503707    0.698491
    136          1           0       20.703506    3.664478    1.271117
    137          1           0       -7.266451    1.733248    0.516657
    138          1           0       -7.404975   -0.282030   -0.388496
 ---------------------------------------------------------------------

 SCF Done:  E(RB3LYP) =  -2732.99461441     A.U. after   17 cycles

 Excitation energies and oscillator strengths:

 Excited State   1:      Singlet-A      2.0204 eV  613.66 nm  f=0.1376  <S**2>=0.000
     235 -> 238       -0.34146
     236 -> 237        0.61491
 This state for optimization and/or second-order correction.
 Total Energy, E(TD-HF/TD-DFT) =  -2732.92036615
 Copying the excited state density for this state as the 1-particle RhoCI density.

 The electronic state is 1-A.
 Alpha  occ. eigenvalues --  -19.17011 -19.16901 -19.12901 -19.12398 -19.12167
 Alpha  occ. eigenvalues --  -14.36760 -14.36201 -14.32318 -14.30138 -10.31799
 Alpha  occ. eigenvalues --  -10.30945 -10.28109 -10.25622 -10.24719 -10.23933
 Alpha  occ. eigenvalues --  -10.23605 -10.23325 -10.23315 -10.23281 -10.23221
 Alpha  occ. eigenvalues --  -10.23008 -10.22284 -10.22096 -10.22090 -10.22031
 Alpha  occ. eigenvalues --  -10.21763 -10.21677 -10.21467 -10.21325 -10.21301
 Alpha  occ. eigenvalues --  -10.21204 -10.21038 -10.20797 -10.20661 -10.20620
 Alpha  occ. eigenvalues --  -10.20602 -10.20594 -10.20529 -10.20278 -10.20136
 Alpha  occ. eigenvalues --  -10.19965 -10.19938 -10.19899 -10.19864 -10.19851
 Alpha  occ. eigenvalues --  -10.19839 -10.19695 -10.18997 -10.18965 -10.18773
 Alpha  occ. eigenvalues --  -10.18696 -10.18688 -10.18459 -10.18437 -10.18013
 Alpha  occ. eigenvalues --  -10.18003 -10.17972 -10.17959 -10.17814 -10.17803
 Alpha  occ. eigenvalues --  -10.17650 -10.16941 -10.16193 -10.16039  -1.10107
 Alpha  occ. eigenvalues --   -1.06963  -1.04789  -1.01051  -0.98858  -0.98422
 Alpha  occ. eigenvalues --   -0.96285  -0.94522  -0.92967  -0.85145  -0.82945
 Alpha  occ. eigenvalues --   -0.82188  -0.81780  -0.81561  -0.81401  -0.81214
 Alpha  occ. eigenvalues --   -0.80313  -0.79800  -0.79454  -0.78713  -0.77723
 Alpha  occ. eigenvalues --   -0.76962  -0.76193  -0.75368  -0.75159  -0.74022
 Alpha  occ. eigenvalues --   -0.73498  -0.73176  -0.72861  -0.71946  -0.69955
 Alpha  occ. eigenvalues --   -0.69836  -0.68901  -0.68422  -0.68347  -0.68129
 Alpha  occ. eigenvalues --   -0.67605  -0.67432  -0.66880  -0.65708  -0.65352
 Alpha  occ. eigenvalues --   -0.64212  -0.63269  -0.62623  -0.61861  -0.61426
 Alpha  occ. eigenvalues --   -0.60862  -0.59987  -0.58430  -0.57963  -0.57448
 Alpha  occ. eigenvalues --   -0.57195  -0.56474  -0.55975  -0.55274  -0.54881
 Alpha  occ. eigenvalues --   -0.54682  -0.54271  -0.54023  -0.53586  -0.52606
 Alpha  occ. eigenvalues --   -0.52268  -0.51617  -0.51526  -0.51000  -0.50474
 Alpha  occ. eigenvalues --   -0.49801  -0.49160  -0.48854  -0.48805  -0.48217
 Alpha  occ. eigenvalues --   -0.47945  -0.47730  -0.47373  -0.47191  -0.46972
 Alpha  occ. eigenvalues --   -0.46622  -0.46538  -0.46483  -0.46203  -0.45957
 Alpha  occ. eigenvalues --   -0.45736  -0.45324  -0.45103  -0.44860  -0.44596
 Alpha  occ. eigenvalues --   -0.44515  -0.44221  -0.43960  -0.43678  -0.43576
 Alpha  occ. eigenvalues --   -0.43369  -0.43044  -0.42879  -0.42670  -0.42624
 Alpha  occ. eigenvalues --   -0.42501  -0.41999  -0.41978  -0.41694  -0.41605
 Alpha  occ. eigenvalues --   -0.41473  -0.40908  -0.40611  -0.40408  -0.40347
 Alpha  occ. eigenvalues --   -0.40172  -0.39833  -0.39647  -0.39500  -0.39185
 Alpha  occ. eigenvalues --   -0.39091  -0.38884  -0.38734  -0.38605  -0.38504
 Alpha  occ. eigenvalues --   -0.38306  -0.38112  -0.37877  -0.37776  -0.37645
 Alpha  occ. eigenvalues --   -0.37523  -0.37317  -0.37184  -0.36977  -0.36667
 Alpha  occ. eigenvalues --   -0.36454  -0.36220  -0.35973  -0.35922  -0.35761
 Alpha  occ. eigenvalues --   -0.35453  -0.35294  -0.35036  -0.34923  -0.34871
 Alpha  occ. eigenvalues --   -0.34569  -0.34431  -0.34295  -0.34098  -0.33987
 Alpha  occ. eigenvalues --   -0.33645  -0.33627  -0.33559  -0.33416  -0.32946
 Alpha  occ. eigenvalues --   -0.32851  -0.32343  -0.32250  -0.32149  -0.31075
 Alpha  occ. eigenvalues --   -0.30754  -0.30327  -0.30156  -0.29881  -0.29683
 Alpha  occ. eigenvalues --   -0.29419  -0.28291  -0.28152  -0.27809  -0.27688
 Alpha  occ. eigenvalues --   -0.27564  -0.27354  -0.27099  -0.26495  -0.26078
 Alpha  occ. eigenvalues --   -0.25835  -0.25182  -0.23486  -0.22180  -0.19893
 Alpha  occ. eigenvalues --   -0.19487
 Alpha virt. eigenvalues --   -0.10797  -0.08413  -0.04721  -0.02546  -0.00750
 Alpha virt. eigenvalues --   -0.00513   0.00160   0.01052   0.01666   0.02749
 Alpha virt. eigenvalues --    0.03650   0.03981   0.04155   0.04375   0.04608

 Mulliken charges:
               1
     1  C    0.143062
     2  C   -0.094351
     3  C   -0.077565
     4  C   -0.077765
     5  N   -0.162954
     6  C   -0.130622
     7  C    0.028117
     8  C   -0.128531
     9  C    0.020135
    10  C    0.051521
    11  C    0.151837
    12  C   -0.017777
    13  C    0.188126
    14  O   -0.271535
    15  O   -0.361661
    16  N   -0.058835
    17  C    0.098502
    18  C   -0.071700
    19  C    0.057313
    20  C    0.057338
    21  C   -0.051408
    22  C   -0.037278
    23  C   -0.114095
    24  N   -0.263038
    25  C    0.114187
    26  C   -0.137376
    27  C   -0.137547
    28  C    0.012502
    29  C    0.026642
    30  C    0.065876
    31  C    0.097651
    32  N   -0.146977
    33  C    0.129858
    34  C   -0.121211
    35  C   -0.003687
    36  C    0.018496
    37  C   -0.002099
    38  C    0.080675
    39  O   -0.147193
    40  C   -0.065605
    41  C    0.150592
    42  O   -0.198926
    43  O   -0.300130
    44  C    0.149105
    45  C    0.294021
    46  C   -0.126791
    47  C   -0.095809
    48  C    0.055043
    49  C   -0.011302
    50  C    0.147493
    51  C   -0.030664
    52  C   -0.084469
    53  C    0.122527
    54  C   -0.008876
    55  C    0.063796
    56  C    0.028248
    57  C   -0.116147
    58  C    0.038269
    59  C    0.254394
    60  C    0.001492
    61  C    0.079446
    62  C    0.010679
    63  C   -0.066597
    64  C    0.079724
    65  H    0.003174
    66  H   -0.054622
    67  H    0.005821
    68  H    0.012143
    69  H    0.033394
    70  H    0.040130
    71  H    0.028355
    72  H   -0.011016
    73  H   -0.040362
    74  H    0.039988
    75  H    0.051866
    76  H    0.060974
    77  H    0.051838
    78  H    0.044660
    79  H    0.049596
    80  H   -0.007064
    81  H    0.055059
    82  H    0.064758
    83  H    0.027051
    84  H    0.043602
    85  H    0.036238
    86  H    0.023686
    87  H   -0.033754
    88  H   -0.015389
    89  H    0.027288
    90  H    0.016113
    91  H    0.058480
    92  H    0.059150
    93  H    0.051806
    94  H    0.049394
    95  H    0.028962
    96  H    0.042947
    97  H    0.047788
    98  H    0.037831
    99  H    0.028656
   100  H    0.010582
   101  H    0.029909
   102  H    0.042105
   103  H   -0.028575
   104  H    0.020649
   105  H    0.031407
   106  H   -0.011085
   107  H   -0.063186
   108  H   -0.026861
   109  H   -0.005798
   110  H   -0.009702
   111  H    0.008482
   112  H   -0.056252
   113  H   -0.015896
   114  H    0.001412
   115  H   -0.017919
   116  H    0.041203
   117  H   -0.019034
   118  H   -0.008134
   119  H   -0.048512
   120  H   -0.001879
   121  H   -0.013388
   122  H    0.023852
   123  H   -0.010314
   124  H   -0.063214
   125  H   -0.029586
   126  H   -0.048485
   127  H   -0.034384
   128  H   -0.062713
   129  H   -0.014389
   130  H   -0.026146
   131  H    0.008217
   132  H    0.013362
   133  H    0.038003
   134  H   -0.021279
   135  H   -0.020918
   136  H   -0.019273
   137  H    0.174542
   138  H    0.178512
 Sum of Mulliken charges =  -0.00000

 Dipole moment (field-independent basis, Debye):
    X=              1.7670    Y=              3.1796    Z=              1.3573  Tot=              3.8826
 Quadrupole moment (field-independent basis, Debye-Ang):
   XX=           -344.7624   YY=           -379.0671   ZZ=           -400.6541
   XY=            -24.0708   XZ=             14.1607   YZ=              0.9585

 Normal termination of Gaussian 16 at Fri Aug 23 04:16:26 2019.
