 Gaussian 16, Revision A.03,
 Gaussian 16:  ES64L-G16RevA.03 25-Dec-2016

 --------------------------
 # td=(NStates=1) B3LYP/SVP
 --------------------------

 --
 TD
 --
 Symbolic Z-matrix:
 Charge =  0 Multiplicity = 1

                         Standard orientation:
 ---------------------------------------------------------------------
 Center     Atomic      Atomic             Coordinates (Angstroms)
 Number     Number       Type             X           Y           Z
 ---------------------------------------------------------------------
      1          6           0       -5.279746   -1.976661    0.408177
      2          6           0       -4.632213    2.803460    1.294925
      3          6           0       -9.255493    3.545419   -0.210391
      4          6           0       -9.911881   -1.341088   -0.840021
      5          7           0       -5.077886    0.430075    0.651472
      6          6           0       -4.486919   -0.793231    0.655186
      7          6           0       -3.094723   -0.673753    1.110167
      8          6           0       -3.058749    0.739495    1.653872
      9          6           0       -4.383070    1.383691    1.145637
     10          6           0       -2.962774    0.763805    3.288289
     11          6           0       -2.123893   -0.945869   -0.019881
     12          6           0       -0.614049   -0.995236    0.460982
     13          6           0        0.503871   -1.166609   -0.665878
     14          8           0        0.127842   -1.332098   -1.894888
     15          8           0        1.656535   -1.107570   -0.173388
     16          7           0       -6.992856    2.796122    0.385065
     17          6           0       -5.879160    3.316077    0.884324
     18          6           0       -5.978925    4.696451    0.964373
     19          6           0       -7.260733    5.085235    0.555814
     20          6           0       -7.927752    3.795868    0.296362
     21          6           0       -5.054815    5.798871    1.441764
     22          6           0       -7.822979    6.377134    0.549770
     23          6           0       -8.876248    6.879691   -0.201878
     24          7           0       -9.230074    1.077829   -0.288012
     25          6           0       -9.878781    2.222788   -0.417501
     26          6           0      -11.314429    2.060448   -0.855420
     27          6           0      -11.432509    0.691183   -1.077969
     28          6           0      -10.181410    0.123442   -0.731068
     29          6           0      -12.245941    3.176376   -1.005307
     30          6           0      -12.691983    0.007429   -1.559624
     31          6           0      -12.569530   -0.423498   -3.098540
     32          7           0       -7.578125   -1.295863   -0.184765
     33          6           0       -8.607794   -1.944844   -0.582325
     34          6           0       -8.256076   -3.322183   -0.571910
     35          6           0       -6.893523   -3.419083   -0.190890
     36          6           0       -6.507062   -2.125744    0.034336
     37          6           0       -9.135894   -4.455682   -1.092440
     38          6           0       -5.822225   -4.301558    0.073804
     39          8           0       -5.908404   -5.578490   -0.082197
     40          6           0       -4.638209   -3.436278    0.442586
     41          6           0       -3.937114   -3.942425    1.611559
     42          8           0       -4.375814   -3.609724    2.748790
     43          8           0       -2.998833   -4.968374    1.354830
     44          6           0       -2.519975   -5.597745    2.530377
     45          6           0        2.732476   -1.218713   -1.148204
     46          6           0        4.051570   -0.938210   -0.513082
     47          6           0        4.940659   -0.119886   -1.190630
     48          6           0        4.700268    0.578229   -2.417417
     49          6           0        6.229388    0.263072   -0.404385
     50          6           0        7.508224   -0.518372   -0.952027
     51          6           0        8.769945   -0.203418   -0.182655
     52          6           0       10.080049   -0.906255   -0.737294
     53          6           0       10.216768   -2.392726   -0.657455
     54          6           0       11.219413   -0.355149    0.158327
     55          6           0       12.609729   -0.738225   -0.395669
     56          6           0       13.753314    0.083332    0.438080
     57          6           0       15.153443   -0.228743   -0.226215
     58          6           0       15.595243   -1.674338   -0.294918
     59          6           0       16.276078    0.573534    0.570684
     60          6           0       17.596522    0.880280   -0.196984
     61          6           0       18.608989    1.760985    0.619358
     62          6           0       20.060090    1.823653    0.001427
     63          6           0       20.132453    2.236511   -1.451716
     64          6           0       20.913487    2.840158    0.822142
     65          1           0       -3.841997    3.468687    1.500507
     66          1           0       -9.848722    4.409857   -0.563135
     67          1           0      -10.795296   -1.711879   -1.296726
     68          1           0       -2.778720   -1.307160    1.943930
     69          1           0       -2.266449    1.196290    1.170186
     70          1           0       -1.954178    0.545940    3.586673
     71          1           0       -3.209027    1.894716    3.573340
     72          1           0       -3.743496    0.061098    3.728689
     73          1           0       -2.475462   -1.857510   -0.601022
     74          1           0       -2.137191   -0.112674   -0.583875
     75          1           0       -0.412543   -0.210490    1.119701
     76          1           0       -0.575812   -1.690263    1.261078
     77          1           0       -3.924200    5.756165    0.775167
     78          1           0       -5.532854    6.960836    1.198370
     79          1           0       -4.910448    5.540125    2.555040
     80          1           0       -7.361603    7.152236    0.982119
     81          1           0       -9.326143    6.378824   -1.031580
     82          1           0       -9.253828    7.959873   -0.008460
     83          1           0      -12.520080    3.718858   -0.119187
     84          1           0      -11.850171    4.112248   -1.572014
     85          1           0      -13.208946    2.981368   -1.315143
     86          1           0      -12.696623   -0.930841   -1.016637
     87          1           0      -13.754906    0.515868   -1.386587
     88          1           0      -12.472325    0.524127   -3.782232
     89          1           0      -11.629552   -0.871653   -3.210696
     90          1           0      -13.397873   -1.105190   -3.530691
     91          1           0       -9.963617   -4.694863   -0.413967
     92          1           0       -9.662952   -4.259237   -2.157681
     93          1           0       -8.651424   -5.365969   -1.184888
     94          1           0       -3.920405   -3.609768   -0.426099
     95          1           0       -1.627063   -6.217523    2.280931
     96          1           0       -2.076975   -4.833203    3.604028
     97          1           0       -3.412576   -6.102401    3.005951
     98          1           0        2.650888   -2.409575   -1.566298
     99          1           0        2.395964   -0.843494   -2.094498
    100          1           0        4.187881   -1.320568    0.363168
    101          1           0        5.057049    1.568766   -2.355171
    102          1           0        5.327198    0.197022   -3.256247
    103          1           0        3.648391    0.548616   -3.002525
    104          1           0        6.408178    1.337992   -0.692793
    105          1           0        6.208986    0.038024    0.733227
    106          1           0        7.315011   -1.677052   -0.834385
    107          1           0        7.363463   -0.151850   -2.049473
    108          1           0        9.030869    0.895328   -0.152694
    109          1           0        8.886085   -0.441112    0.945854
    110          1           0       10.148122   -0.469788   -1.759466
    111          1           0        9.383082   -2.871060   -1.235267
    112          1           0       11.160312   -2.864433   -1.017849
    113          1           0        9.847819   -2.738803    0.476001
    114          1           0       11.271562    0.739574    0.482389
    115          1           0       11.057471   -0.833330    1.189216
    116          1           0       12.986580   -1.776252   -0.433580
    117          1           0       12.625077   -0.519818   -1.553185
    118          1           0       13.591150    1.128604    0.416149
    119          1           0       13.651430   -0.267462    1.613489
    120          1           0       15.090572    0.347741   -1.151576
    121          1           0       14.835006   -2.421728   -0.803096
    122          1           0       16.593823   -1.611729   -0.700996
    123          1           0       15.856979   -2.076556    0.807739
    124          1           0       15.787060    1.643576    0.861496
    125          1           0       16.573071   -0.015387    1.639474
    126          1           0       18.166954   -0.068932   -0.397317
    127          1           0       17.561944    1.177449   -1.163984
    128          1           0       18.364914    2.981685    0.669189
    129          1           0       18.598860    1.435475    1.554112
    130          1           0       20.731895    0.756775    0.073242
    131          1           0       19.594753    3.366637   -1.575508
    132          1           0       21.249300    2.283714   -1.680335
    133          1           0       19.395479    1.662216   -2.277778
    134          1           0       20.744559    2.526510    1.900844
    135          1           0       21.889448    2.605670    0.576704
    136          1           0       20.398219    3.749748    0.809585
    137          1           0       -7.177497    1.890036    0.443534
    138          1           0       -7.614893   -0.192368   -0.193750
 ---------------------------------------------------------------------

 SCF Done:  E(RB3LYP) =  -2732.98537428     A.U. after   16 cycles

 Excitation energies and oscillator strengths:

 Excited State   1:      Singlet-A      1.9635 eV  631.44 nm  f=0.1551  <S**2>=0.000
     235 -> 238       -0.32366
     236 -> 237        0.61922
 This state for optimization and/or second-order correction.
 Total Energy, E(TD-HF/TD-DFT) =  -2732.91321683
 Copying the excited state density for this state as the 1-particle RhoCI density.

 The electronic state is 1-A.
 Alpha  occ. eigenvalues --  -19.20605 -19.19335 -19.13040 -19.11410 -19.11375
 Alpha  occ. eigenvalues --  -14.37214 -14.37138 -14.31865 -14.30710 -10.32640
 Alpha  occ. eigenvalues --  -10.32258 -10.27525 -10.26664 -10.26241 -10.24536
 Alpha  occ. eigenvalues --  -10.23961 -10.23652 -10.23623 -10.23391 -10.22781
 Alpha  occ. eigenvalues --  -10.22397 -10.22318 -10.22189 -10.22156 -10.21593
 Alpha  occ. eigenvalues --  -10.21269 -10.21197 -10.20929 -10.20918 -10.20899
 Alpha  occ. eigenvalues --  -10.20825 -10.20815 -10.20720 -10.20704 -10.20702
 Alpha  occ. eigenvalues --  -10.20591 -10.20569 -10.20523 -10.20236 -10.20186
 Alpha  occ. eigenvalues --  -10.20107 -10.20065 -10.19807 -10.19663 -10.19528
 Alpha  occ. eigenvalues --  -10.19500 -10.19456 -10.19449 -10.19393 -10.19377
 Alpha  occ. eigenvalues --  -10.19256 -10.19208 -10.19149 -10.19006 -10.18993
 Alpha  occ. eigenvalues --  -10.18977 -10.18947 -10.18944 -10.18871 -10.18788
 Alpha  occ. eigenvalues --  -10.18588 -10.18347 -10.18103 -10.17320  -1.13058
 Alpha  occ. eigenvalues --   -1.07913  -1.01146  -1.00796  -0.99497  -0.98154
 Alpha  occ. eigenvalues --   -0.96871  -0.96027  -0.93533  -0.87269  -0.83390
 Alpha  occ. eigenvalues --   -0.83386  -0.81688  -0.81473  -0.80710  -0.80641
 Alpha  occ. eigenvalues --   -0.79637  -0.79362  -0.79255  -0.78033  -0.77722
 Alpha  occ. eigenvalues --   -0.76825  -0.76131  -0.75538  -0.74810  -0.74227
 Alpha  occ. eigenvalues --   -0.73731  -0.73047  -0.72693  -0.71567  -0.70443
 Alpha  occ. eigenvalues --   -0.70127  -0.69437  -0.68800  -0.68540  -0.67660
 Alpha  occ. eigenvalues --   -0.66769  -0.66552  -0.66162  -0.65952  -0.65206
 Alpha  occ. eigenvalues --   -0.64471  -0.63834  -0.63067  -0.62444  -0.61841
 Alpha  occ. eigenvalues --   -0.61426  -0.59073  -0.58558  -0.58491  -0.57935
 Alpha  occ. eigenvalues --   -0.57678  -0.56918  -0.56841  -0.56011  -0.55547
 Alpha  occ. eigenvalues --   -0.55440  -0.54933  -0.54806  -0.54369  -0.53522
 Alpha  occ. eigenvalues --   -0.52962  -0.52394  -0.52106  -0.51189  -0.51179
 Alpha  occ. eigenvalues --   -0.50256  -0.49926  -0.49547  -0.48853  -0.48452
 Alpha  occ. eigenvalues --   -0.48162  -0.48088  -0.47782  -0.47494  -0.47213
 Alpha  occ. eigenvalues --   -0.47129  -0.46846  -0.46188  -0.45910  -0.45833
 Alpha  occ. eigenvalues --   -0.45704  -0.45407  -0.45258  -0.44997  -0.44691
 Alpha  occ. eigenvalues --   -0.44626  -0.44506  -0.44305  -0.43905  -0.43602
 Alpha  occ. eigenvalues --   -0.43419  -0.42850  -0.42721  -0.42633  -0.42535
 Alpha  occ. eigenvalues --   -0.41981  -0.41709  -0.41460  -0.41440  -0.41305
 Alpha  occ. eigenvalues --   -0.41021  -0.40876  -0.40750  -0.40576  -0.40216
 Alpha  occ. eigenvalues --   -0.40052  -0.39927  -0.39588  -0.39488  -0.39290
 Alpha  occ. eigenvalues --   -0.39078  -0.38878  -0.38744  -0.38701  -0.38330
 Alpha  occ. eigenvalues --   -0.38119  -0.37765  -0.37498  -0.37445  -0.37370
 Alpha  occ. eigenvalues --   -0.37137  -0.37063  -0.37027  -0.36849  -0.36227
 Alpha  occ. eigenvalues --   -0.36049  -0.35995  -0.35699  -0.35679  -0.35630
 Alpha  occ. eigenvalues --   -0.35453  -0.35407  -0.35191  -0.35000  -0.34791
 Alpha  occ. eigenvalues --   -0.34744  -0.34692  -0.34379  -0.34254  -0.34044
 Alpha  occ. eigenvalues --   -0.33933  -0.33444  -0.33334  -0.33135  -0.32836
 Alpha  occ. eigenvalues --   -0.32620  -0.32394  -0.32076  -0.32014  -0.31496
 Alpha  occ. eigenvalues --   -0.31301  -0.31142  -0.30218  -0.30081  -0.29868
 Alpha  occ. eigenvalues --   -0.29684  -0.29638  -0.28808  -0.27958  -0.27918
 Alpha  occ. eigenvalues --   -0.27665  -0.26667  -0.26495  -0.25528  -0.25430
 Alpha  occ. eigenvalues --   -0.24678  -0.24440  -0.23707  -0.22881  -0.19991
 Alpha  occ. eigenvalues --   -0.18788
 Alpha virt. eigenvalues --   -0.10436  -0.08720  -0.05821  -0.03054  -0.02578
 Alpha virt. eigenvalues --   -0.02158  -0.00189   0.00128   0.02547   0.03408
 Alpha virt. eigenvalues --    0.03615   0.03847   0.04098   0.04108   0.04324

 Mulliken charges:
               1
     1  C    0.012734
     2  C   -0.096371
     3  C   -0.062930
     4  C   -0.013419
     5  N   -0.115268
     6  C   -0.092889
     7  C   -0.072766
     8  C   -0.006974
     9  C   -0.041633
    10  C    0.022708
    11  C    0.125172
    12  C    0.048574
    13  C    0.209156
    14  O   -0.325448
    15  O   -0.206978
    16  N    0.081590
    17  C    0.128556
    18  C   -0.134076
    19  C    0.101915
    20  C    0.050003
    21  C   -0.050146
    22  C   -0.029852
    23  C   -0.065858
    24  N   -0.246865
    25  C    0.017458
    26  C   -0.098740
    27  C   -0.083541
    28  C   -0.007938
    29  C    0.125877
    30  C    0.033702
    31  C   -0.021697
    32  N    0.001532
    33  C    0.062844
    34  C   -0.157025
    35  C    0.083078
    36  C    0.126947
    37  C    0.102403
    38  C    0.020525
    39  O   -0.243809
    40  C   -0.007464
    41  C    0.242530
    42  O   -0.266804
    43  O   -0.305590
    44  C    0.102041
    45  C    0.186838
    46  C    0.041216
    47  C   -0.099652
    48  C    0.066903
    49  C    0.013427
    50  C   -0.002279
    51  C    0.018500
    52  C   -0.072655
    53  C    0.014842
    54  C    0.007094
    55  C   -0.025118
    56  C    0.002618
    57  C   -0.046280
    58  C    0.030773
    59  C   -0.080575
    60  C    0.081376
    61  C    0.063742
    62  C   -0.193013
    63  C   -0.048529
    64  C    0.119996
    65  H   -0.025095
    66  H   -0.029356
    67  H   -0.036504
    68  H    0.002799
    69  H   -0.041953
    70  H    0.016773
    71  H    0.021878
    72  H    0.054673
    73  H    0.030824
    74  H   -0.034313
    75  H   -0.023942
    76  H   -0.012505
    77  H    0.055515
    78  H    0.072228
    79  H    0.061508
    80  H   -0.058025
    81  H    0.027266
    82  H    0.041435
    83  H   -0.002346
    84  H    0.020144
    85  H   -0.025028
    86  H    0.005370
    87  H    0.033337
    88  H    0.020109
    89  H   -0.002256
    90  H    0.033394
    91  H    0.015930
    92  H    0.034860
    93  H    0.005067
    94  H    0.072177
    95  H    0.054691
    96  H    0.033912
    97  H    0.056891
    98  H    0.031248
    99  H    0.014368
   100  H   -0.078096
   101  H    0.003425
   102  H    0.025615
   103  H    0.045778
   104  H    0.009528
   105  H    0.023053
   106  H    0.022553
   107  H    0.012339
   108  H   -0.006411
   109  H   -0.001972
   110  H   -0.003435
   111  H    0.002794
   112  H    0.037209
   113  H    0.015574
   114  H    0.000669
   115  H   -0.005647
   116  H    0.007302
   117  H   -0.003596
   118  H   -0.011461
   119  H    0.012436
   120  H   -0.006646
   121  H    0.041421
   122  H   -0.001652
   123  H    0.014880
   124  H    0.012017
   125  H    0.019963
   126  H   -0.006074
   127  H   -0.041895
   128  H    0.002810
   129  H   -0.040832
   130  H    0.007107
   131  H    0.010982
   132  H    0.030698
   133  H    0.039275
   134  H   -0.005891
   135  H   -0.000900
   136  H   -0.007797
   137  H    0.084434
   138  H    0.190881
 Sum of Mulliken charges =  -0.00000

 Dipole moment (field-independent basis, Debye):
    X=              4.0073    Y=              5.9227    Z=              0.1360  Tot=              7.1523
 Quadrupole moment (field-independent basis, Debye-Ang):
   XX=           -348.3638   YY=           -390.8019   ZZ=           -400.2150
   XY=            -38.8897   XZ=              8.3689   YZ=             -1.0986

 Normal termination of Gaussian 16 at Sat Aug 24 09:41:55 2019.
