 Gaussian 16, Revision A.03,
 Gaussian 16:  ES64L-G16RevA.03 25-Dec-2016

 --------------------------
 # td=(NStates=1) B3LYP/SVP
 --------------------------

 --
 TD
 --
 Symbolic Z-matrix:
 Charge =  0 Multiplicity = 1

                         Standard orientation:
 ---------------------------------------------------------------------
 Center     Atomic      Atomic             Coordinates (Angstroms)
 Number     Number       Type             X           Y           Z
 ---------------------------------------------------------------------
      1          6           0       -5.162649   -1.977576    0.563998
      2          6           0       -4.725959    2.740942    1.386197
      3          6           0       -9.203447    3.385508   -0.227648
      4          6           0       -9.758137   -1.420882   -1.003877
      5          7           0       -5.149301    0.399483    0.890718
      6          6           0       -4.556798   -0.731325    0.927343
      7          6           0       -3.019214   -0.573496    1.356915
      8          6           0       -3.028854    0.807946    1.926950
      9          6           0       -4.338029    1.429962    1.329239
     10          6           0       -2.918549    1.128848    3.456318
     11          6           0       -2.064586   -0.862234    0.234718
     12          6           0       -0.662744   -0.877963    0.749243
     13          6           0        0.317883   -0.912133   -0.486414
     14          8           0        0.058874   -1.091346   -1.591293
     15          8           0        1.655012   -0.924445    0.030065
     16          7           0       -7.023036    2.786979    0.494083
     17          6           0       -5.855576    3.422148    0.968147
     18          6           0       -6.180039    4.815418    1.134305
     19          6           0       -7.463555    4.992835    0.526124
     20          6           0       -7.950668    3.759776    0.184352
     21          6           0       -5.151108    5.870924    1.441501
     22          6           0       -8.081648    6.369013    0.417519
     23          6           0       -8.982573    6.626681   -0.465071
     24          7           0       -9.102307    0.936736   -0.530683
     25          6           0       -9.722710    2.170221   -0.508141
     26          6           0      -11.171748    1.835491   -0.996187
     27          6           0      -11.354835    0.584979   -1.346374
     28          6           0       -9.958115    0.027780   -0.896787
     29          6           0      -12.223837    2.999657   -1.148721
     30          6           0      -12.524413   -0.181141   -1.880485
     31          6           0      -12.584066   -0.411835   -3.449404
     32          7           0       -7.517529   -1.299888   -0.185852
     33          6           0       -8.577680   -2.076916   -0.657253
     34          6           0       -8.058375   -3.510580   -0.725914
     35          6           0       -6.832288   -3.464581   -0.241800
     36          6           0       -6.482165   -2.135216    0.120802
     37          6           0       -8.911002   -4.682503   -1.087004
     38          6           0       -5.774578   -4.318154    0.021670
     39          8           0       -5.592490   -5.538107   -0.128450
     40          6           0       -4.547052   -3.398735    0.594303
     41          6           0       -3.986250   -3.867187    1.873465
     42          8           0       -4.307566   -3.466227    2.913674
     43          8           0       -2.943327   -4.776063    1.561159
     44          6           0       -2.402979   -5.309362    2.717244
     45          6           0        2.674414   -1.107664   -1.097235
     46          6           0        3.891016   -0.582379   -0.528867
     47          6           0        4.951923   -0.027983   -1.180594
     48          6           0        4.730339    0.356006   -2.640957
     49          6           0        6.289260    0.312555   -0.465388
     50          6           0        7.451624   -0.537406   -0.991644
     51          6           0        8.739000   -0.283208   -0.139187
     52          6           0       10.029164   -0.910909   -0.784987
     53          6           0        9.869597   -2.391147   -0.914175
     54          6           0       11.329462   -0.343030   -0.006973
     55          6           0       12.643685   -0.585165   -0.719438
     56          6           0       13.764611   -0.119530    0.269031
     57          6           0       15.203174   -0.291539   -0.516810
     58          6           0       15.570001   -1.792129   -0.555921
     59          6           0       16.229593    0.523111    0.370668
     60          6           0       17.701403    0.648438   -0.252367
     61          6           0       18.592348    1.636778    0.636037
     62          6           0       19.948101    1.893954    0.093557
     63          6           0       19.922948    2.557477   -1.302590
     64          6           0       20.662176    2.690994    1.136532
     65          1           0       -3.953338    3.335150    1.757881
     66          1           0       -9.843040    4.262623   -0.382695
     67          1           0      -10.610459   -1.952108   -1.290146
     68          1           0       -2.857331   -1.358379    2.254225
     69          1           0       -2.144399    1.524172    1.483101
     70          1           0       -2.176473    0.685264    3.974656
     71          1           0       -2.844881    2.174943    3.453114
     72          1           0       -3.891771    0.756715    3.983447
     73          1           0       -2.466391   -1.794477   -0.314331
     74          1           0       -2.183935    0.012677   -0.485907
     75          1           0       -0.430011   -0.107568    1.345540
     76          1           0       -0.652056   -1.901811    1.382136
     77          1           0       -4.420657    6.201677    0.480265
     78          1           0       -5.806171    6.699387    1.979195
     79          1           0       -4.621047    5.449024    2.252844
     80          1           0       -7.614315    7.205596    1.068515
     81          1           0       -9.504975    5.832777   -1.228374
     82          1           0       -9.207609    7.760460   -0.473018
     83          1           0      -12.467803    3.405203   -0.157996
     84          1           0      -11.885489    3.926937   -1.797585
     85          1           0      -13.197468    2.553733   -1.767440
     86          1           0      -12.452367   -1.108937   -1.227566
     87          1           0      -13.355699    0.273075   -1.626811
     88          1           0      -12.582746    0.506320   -4.283979
     89          1           0      -11.917716   -1.294805   -3.805064
     90          1           0      -13.587146   -0.848610   -3.739139
     91          1           0       -9.644694   -4.899179   -0.277449
     92          1           0       -9.363389   -4.519142   -2.040463
     93          1           0       -8.237681   -5.557146   -0.957057
     94          1           0       -3.743338   -3.390001   -0.084285
     95          1           0       -1.552713   -6.039757    2.315552
     96          1           0       -2.082434   -4.495821    3.454952
     97          1           0       -3.159741   -6.059040    3.378423
     98          1           0        2.804240   -2.169367   -1.086157
     99          1           0        2.389717   -0.585296   -2.099301
    100          1           0        3.931725   -1.019827    0.468683
    101          1           0        4.951482    1.468867   -2.724954
    102          1           0        5.610396    0.025515   -3.210342
    103          1           0        3.727539    0.181120   -2.879489
    104          1           0        6.275125    1.460747   -0.225387
    105          1           0        6.234325    0.000091    0.696068
    106          1           0        7.055958   -1.623979   -1.019799
    107          1           0        7.440016   -0.202998   -1.995441
    108          1           0        8.685277    0.799619    0.306547
    109          1           0        8.545527   -0.876714    0.836264
    110          1           0       10.216054   -0.507861   -1.866566
    111          1           0        9.057021   -2.703841   -1.284597
    112          1           0       10.809695   -2.807311   -1.372134
    113          1           0        9.821027   -2.911098    0.058474
    114          1           0       11.036506    0.742381   -0.079659
    115          1           0       11.497602   -0.883042    1.023423
    116          1           0       12.660172   -1.766119   -1.033762
    117          1           0       12.541744    0.147637   -1.736061
    118          1           0       13.620687    1.011886    0.509379
    119          1           0       13.629677   -0.741865    1.013175
    120          1           0       15.059072    0.134350   -1.556658
    121          1           0       14.713979   -2.210484   -1.397369
    122          1           0       16.537735   -1.930714   -0.837336
    123          1           0       15.322563   -2.435735    0.375101
    124          1           0       15.798627    1.490579    0.571334
    125          1           0       16.255108   -0.108591    1.369552
    126          1           0       18.231042   -0.333589   -0.165693
    127          1           0       17.527352    1.295100   -1.296780
    128          1           0       18.091035    2.703632    0.649888
    129          1           0       18.510174    1.369077    1.802472
    130          1           0       20.652778    0.887073    0.004036
    131          1           0       19.277289    3.558070   -1.426476
    132          1           0       20.932655    2.899180   -1.446172
    133          1           0       19.521576    1.899273   -2.210155
    134          1           0       20.825286    1.940483    2.065834
    135          1           0       21.872893    2.636063    0.870189
    136          1           0       20.430273    3.623626    1.267583
    137          1           0       -7.169541    1.753506    0.110463
    138          1           0       -7.663879   -0.263272    0.060427
 ---------------------------------------------------------------------

 SCF Done:  E(RB3LYP) =  -2733.01271930     A.U. after   17 cycles

 Excitation energies and oscillator strengths:

 Excited State   1:      Singlet-A      2.0615 eV  601.43 nm  f=0.2132  <S**2>=0.000
     235 -> 238       -0.27317
     236 -> 237        0.65125
 This state for optimization and/or second-order correction.
 Total Energy, E(TD-HF/TD-DFT) =  -2732.93696080
 Copying the excited state density for this state as the 1-particle RhoCI density.

 The electronic state is 1-A.
 Alpha  occ. eigenvalues --  -19.17723 -19.15675 -19.14100 -19.13780 -19.12982
 Alpha  occ. eigenvalues --  -14.37249 -14.36349 -14.31917 -14.31516 -10.31520
 Alpha  occ. eigenvalues --  -10.31167 -10.28479 -10.25813 -10.24546 -10.24000
 Alpha  occ. eigenvalues --  -10.23856 -10.23190 -10.23104 -10.22976 -10.22599
 Alpha  occ. eigenvalues --  -10.22526 -10.22177 -10.22119 -10.21318 -10.21315
 Alpha  occ. eigenvalues --  -10.21272 -10.20864 -10.20639 -10.20590 -10.20558
 Alpha  occ. eigenvalues --  -10.20527 -10.20490 -10.20300 -10.20277 -10.20251
 Alpha  occ. eigenvalues --  -10.20179 -10.20101 -10.20092 -10.19981 -10.19969
 Alpha  occ. eigenvalues --  -10.19946 -10.19939 -10.19930 -10.19875 -10.19848
 Alpha  occ. eigenvalues --  -10.19617 -10.19610 -10.19476 -10.19402 -10.19324
 Alpha  occ. eigenvalues --  -10.19285 -10.19242 -10.19224 -10.19037 -10.18926
 Alpha  occ. eigenvalues --  -10.18895 -10.18736 -10.18735 -10.18712 -10.18590
 Alpha  occ. eigenvalues --  -10.18477 -10.18304 -10.17468 -10.16563  -1.10461
 Alpha  occ. eigenvalues --   -1.09416  -1.03478  -1.01856  -0.99328  -0.98307
 Alpha  occ. eigenvalues --   -0.96711  -0.95088  -0.94344  -0.85400  -0.81959
 Alpha  occ. eigenvalues --   -0.81890  -0.81569  -0.81187  -0.81012  -0.80934
 Alpha  occ. eigenvalues --   -0.80571  -0.79978  -0.78986  -0.78821  -0.77434
 Alpha  occ. eigenvalues --   -0.76519  -0.76030  -0.75709  -0.74490  -0.74131
 Alpha  occ. eigenvalues --   -0.73423  -0.72828  -0.72320  -0.71477  -0.71111
 Alpha  occ. eigenvalues --   -0.70114  -0.68613  -0.68074  -0.67682  -0.67159
 Alpha  occ. eigenvalues --   -0.66447  -0.66410  -0.66309  -0.65523  -0.64664
 Alpha  occ. eigenvalues --   -0.63845  -0.62829  -0.62714  -0.62079  -0.60212
 Alpha  occ. eigenvalues --   -0.59726  -0.58744  -0.58165  -0.57906  -0.56258
 Alpha  occ. eigenvalues --   -0.56194  -0.55704  -0.55177  -0.54942  -0.54810
 Alpha  occ. eigenvalues --   -0.54466  -0.53804  -0.53459  -0.53070  -0.52413
 Alpha  occ. eigenvalues --   -0.52278  -0.51878  -0.51625  -0.51275  -0.50096
 Alpha  occ. eigenvalues --   -0.49474  -0.49174  -0.48843  -0.48344  -0.48183
 Alpha  occ. eigenvalues --   -0.47864  -0.47798  -0.47485  -0.47068  -0.46831
 Alpha  occ. eigenvalues --   -0.46384  -0.46315  -0.46039  -0.45700  -0.45615
 Alpha  occ. eigenvalues --   -0.45565  -0.45445  -0.45076  -0.44818  -0.44632
 Alpha  occ. eigenvalues --   -0.44397  -0.44312  -0.44196  -0.43927  -0.43730
 Alpha  occ. eigenvalues --   -0.43617  -0.43576  -0.43161  -0.42918  -0.42830
 Alpha  occ. eigenvalues --   -0.42293  -0.41975  -0.41715  -0.41512  -0.41315
 Alpha  occ. eigenvalues --   -0.41203  -0.40976  -0.40772  -0.40732  -0.40566
 Alpha  occ. eigenvalues --   -0.40346  -0.40064  -0.40023  -0.39601  -0.39511
 Alpha  occ. eigenvalues --   -0.39308  -0.39100  -0.38975  -0.38938  -0.38638
 Alpha  occ. eigenvalues --   -0.38392  -0.38076  -0.37939  -0.37820  -0.37710
 Alpha  occ. eigenvalues --   -0.37401  -0.37340  -0.37131  -0.36857  -0.36620
 Alpha  occ. eigenvalues --   -0.36554  -0.36348  -0.36136  -0.35937  -0.35824
 Alpha  occ. eigenvalues --   -0.35576  -0.35529  -0.35430  -0.34763  -0.34482
 Alpha  occ. eigenvalues --   -0.34297  -0.34172  -0.33903  -0.33619  -0.33353
 Alpha  occ. eigenvalues --   -0.33097  -0.32844  -0.32514  -0.32246  -0.32172
 Alpha  occ. eigenvalues --   -0.32077  -0.32010  -0.31738  -0.31294  -0.31158
 Alpha  occ. eigenvalues --   -0.31019  -0.30410  -0.30128  -0.29996  -0.29857
 Alpha  occ. eigenvalues --   -0.29641  -0.29270  -0.29047  -0.28741  -0.28536
 Alpha  occ. eigenvalues --   -0.27551  -0.27071  -0.27061  -0.26752  -0.26129
 Alpha  occ. eigenvalues --   -0.25420  -0.24614  -0.23763  -0.23677  -0.20125
 Alpha  occ. eigenvalues --   -0.18987
 Alpha virt. eigenvalues --   -0.10520  -0.07389  -0.04748  -0.01106  -0.00504
 Alpha virt. eigenvalues --    0.00020   0.00503   0.00606   0.02181   0.03625
 Alpha virt. eigenvalues --    0.03733   0.03953   0.04024   0.04409   0.04684

 Mulliken charges:
               1
     1  C   -0.002823
     2  C   -0.013522
     3  C   -0.102090
     4  C   -0.078039
     5  N   -0.115244
     6  C   -0.107473
     7  C   -0.069376
     8  C   -0.110225
     9  C   -0.034415
    10  C    0.135035
    11  C    0.044621
    12  C    0.063231
    13  C    0.190644
    14  O   -0.150192
    15  O   -0.409909
    16  N   -0.153293
    17  C    0.139490
    18  C   -0.176538
    19  C    0.027917
    20  C    0.074933
    21  C    0.057019
    22  C   -0.022508
    23  C   -0.078986
    24  N   -0.209951
    25  C    0.108833
    26  C   -0.097028
    27  C   -0.115209
    28  C    0.004478
    29  C    0.002059
    30  C    0.147951
    31  C   -0.063345
    32  N   -0.096359
    33  C    0.106273
    34  C   -0.170800
    35  C    0.106366
    36  C    0.082089
    37  C    0.117032
    38  C    0.030745
    39  O   -0.186813
    40  C   -0.002228
    41  C    0.195472
    42  O   -0.149210
    43  O   -0.313565
    44  C    0.092671
    45  C    0.274303
    46  C   -0.120005
    47  C   -0.164850
    48  C    0.145148
    49  C   -0.021632
    50  C    0.030861
    51  C   -0.003135
    52  C   -0.084767
    53  C    0.136783
    54  C    0.007688
    55  C   -0.102388
    56  C    0.093936
    57  C   -0.082580
    58  C    0.002787
    59  C    0.012497
    60  C    0.020151
    61  C   -0.053117
    62  C   -0.088979
    63  C   -0.015773
    64  C    0.038976
    65  H   -0.061238
    66  H   -0.038924
    67  H   -0.057521
    68  H    0.024063
    69  H    0.009765
    70  H   -0.011284
    71  H   -0.003415
    72  H    0.026495
    73  H    0.031153
    74  H    0.011879
    75  H   -0.011085
    76  H    0.054173
    77  H    0.077359
    78  H    0.027766
    79  H    0.008327
    80  H    0.021052
    81  H    0.070943
    82  H    0.029983
    83  H    0.031286
    84  H    0.035130
    85  H    0.031439
    86  H    0.022738
    87  H   -0.047705
    88  H    0.050028
    89  H    0.027636
    90  H    0.011469
    91  H    0.037786
    92  H    0.032605
    93  H    0.034545
    94  H    0.028103
    95  H    0.050026
    96  H    0.038934
    97  H    0.036409
    98  H    0.014324
    99  H    0.062741
   100  H   -0.011940
   101  H    0.003939
   102  H    0.012523
   103  H   -0.014020
   104  H    0.033961
   105  H   -0.008669
   106  H    0.030125
   107  H   -0.012116
   108  H    0.019196
   109  H    0.002934
   110  H   -0.000738
   111  H   -0.057318
   112  H    0.007413
   113  H   -0.018142
   114  H    0.013116
   115  H    0.008701
   116  H    0.033582
   117  H    0.010561
   118  H    0.016764
   119  H   -0.043622
   120  H    0.006264
   121  H    0.021892
   122  H   -0.003541
   123  H    0.023194
   124  H   -0.011923
   125  H    0.001814
   126  H    0.021349
   127  H    0.032559
   128  H   -0.006262
   129  H    0.009517
   130  H    0.007736
   131  H    0.012629
   132  H    0.003322
   133  H    0.041316
   134  H    0.026113
   135  H   -0.001399
   136  H   -0.019058
   137  H    0.196188
   138  H    0.181434
 Sum of Mulliken charges =  -0.00000

 Dipole moment (field-independent basis, Debye):
    X=              0.7226    Y=              3.2052    Z=              0.1057  Tot=              3.2874
 Quadrupole moment (field-independent basis, Debye-Ang):
   XX=           -339.6443   YY=           -388.3107   ZZ=           -397.1660
   XY=            -10.5972   XZ=             14.5798   YZ=             -0.2564

 Normal termination of Gaussian 16 at Tue Aug 13 19:10:45 2019.
