 Gaussian 16, Revision A.03,
 Gaussian 16:  ES64L-G16RevA.03 25-Dec-2016

 --------------------------
 # td=(NStates=1) B3LYP/SVP
 --------------------------

 --
 TD
 --
 Symbolic Z-matrix:
 Charge =  0 Multiplicity = 1

                         Standard orientation:
 ---------------------------------------------------------------------
 Center     Atomic      Atomic             Coordinates (Angstroms)
 Number     Number       Type             X           Y           Z
 ---------------------------------------------------------------------
      1          6           0       -5.099057   -1.958248    0.440084
      2          6           0       -4.764337    2.733686    1.382550
      3          6           0       -9.285035    3.413139   -0.249785
      4          6           0       -9.892291   -1.424389   -0.960934
      5          7           0       -5.171181    0.440303    0.747784
      6          6           0       -4.523465   -0.695434    0.738537
      7          6           0       -3.168600   -0.612369    1.302820
      8          6           0       -3.016314    0.964240    1.783598
      9          6           0       -4.402283    1.435662    1.276752
     10          6           0       -2.803569    0.995217    3.318536
     11          6           0       -2.196602   -0.855193    0.066998
     12          6           0       -0.666533   -0.685080    0.442483
     13          6           0        0.278829   -1.118580   -0.683170
     14          8           0       -0.047300   -1.564203   -1.811267
     15          8           0        1.544279   -0.749093   -0.258088
     16          7           0       -7.020099    2.807524    0.545570
     17          6           0       -5.818646    3.492338    0.990109
     18          6           0       -6.156053    4.892360    0.976734
     19          6           0       -7.507563    5.029629    0.581640
     20          6           0       -8.064775    3.709160    0.208465
     21          6           0       -5.098859    5.923689    1.369345
     22          6           0       -8.221687    6.309827    0.343216
     23          6           0       -8.981614    6.714856   -0.593352
     24          7           0       -9.192214    0.914936   -0.574016
     25          6           0       -9.809349    2.083538   -0.519729
     26          6           0      -11.290059    1.968096   -0.894187
     27          6           0      -11.456040    0.631026   -1.135047
     28          6           0      -10.175107   -0.088115   -0.749923
     29          6           0      -12.256267    3.005411   -1.012416
     30          6           0      -12.719854   -0.157485   -1.561873
     31          6           0      -12.762332   -0.668304   -3.028330
     32          7           0       -7.521640   -1.224078   -0.190884
     33          6           0       -8.663104   -1.980160   -0.592904
     34          6           0       -8.271676   -3.432637   -0.561434
     35          6           0       -6.867739   -3.350501   -0.239651
     36          6           0       -6.441799   -2.054123    0.097092
     37          6           0       -9.081228   -4.605443   -0.797182
     38          6           0       -5.780189   -4.236553    0.096985
     39          8           0       -5.772099   -5.476616    0.056617
     40          6           0       -4.571092   -3.379878    0.431925
     41          6           0       -3.811565   -3.774921    1.762491
     42          8           0       -4.239984   -3.401389    2.818709
     43          8           0       -3.005299   -4.827687    1.507475
     44          6           0       -2.453041   -5.622882    2.623529
     45          6           0        2.558431   -1.173323   -1.282416
     46          6           0        3.905909   -0.828795   -0.705567
     47          6           0        5.029545   -0.200290   -1.256005
     48          6           0        4.951273    0.401044   -2.662355
     49          6           0        6.279451    0.092620   -0.523666
     50          6           0        7.537820   -0.690697   -1.084557
     51          6           0        8.814798   -0.296946   -0.186432
     52          6           0       10.134509   -0.788301   -0.667357
     53          6           0       10.271533   -2.298269   -0.768879
     54          6           0       11.346043   -0.185445    0.008712
     55          6           0       12.802651   -0.653018   -0.373782
     56          6           0       13.890569    0.192665    0.344437
     57          6           0       15.222408   -0.014617   -0.236502
     58          6           0       15.613084   -1.538482   -0.236058
     59          6           0       16.230276    0.909628    0.440696
     60          6           0       17.615604    0.768387   -0.090215
     61          6           0       18.680521    1.776661    0.549599
     62          6           0       20.094240    1.616774    0.177930
     63          6           0       20.350629    1.817404   -1.374092
     64          6           0       20.947142    2.635582    1.106853
     65          1           0       -4.091167    3.388230    1.920603
     66          1           0      -10.064286    4.372808   -0.231507
     67          1           0      -10.700260   -2.060598   -1.382046
     68          1           0       -2.968550   -1.379226    2.172542
     69          1           0       -2.080937    1.426607    1.157653
     70          1           0       -1.874464    0.641311    3.471838
     71          1           0       -2.828480    1.943010    3.719226
     72          1           0       -3.628613    0.468490    3.674245
     73          1           0       -2.442999   -1.858755   -0.279195
     74          1           0       -2.509679   -0.105250   -0.687611
     75          1           0       -0.552531    0.319362    0.838055
     76          1           0       -0.410961   -1.217994    1.343554
     77          1           0       -4.421551    6.162661    0.394419
     78          1           0       -5.657464    6.880478    1.649680
     79          1           0       -4.589578    5.421236    2.218625
     80          1           0       -7.928176    6.863469    1.177366
     81          1           0       -9.406038    5.981115   -1.286333
     82          1           0       -9.347934    7.751183   -0.436508
     83          1           0      -12.805088    3.363771   -0.015208
     84          1           0      -11.961986    3.893584   -1.419402
     85          1           0      -13.112872    2.648789   -1.715045
     86          1           0      -12.741227   -1.083253   -0.761811
     87          1           0      -13.680954    0.150587   -1.334669
     88          1           0      -12.587367    0.368884   -3.672522
     89          1           0      -11.914630   -1.489031   -3.378565
     90          1           0      -13.858405   -0.971472   -3.316540
     91          1           0      -10.014645   -4.568159   -0.207683
     92          1           0       -9.369087   -4.558049   -1.781332
     93          1           0       -8.490890   -5.467188   -0.422953
     94          1           0       -4.090078   -3.398122   -0.582378
     95          1           0       -1.984223   -6.579840    2.164410
     96          1           0       -1.797081   -4.898556    3.278202
     97          1           0       -3.437223   -5.896814    3.340814
     98          1           0        2.361394   -2.325534   -1.372443
     99          1           0        2.126580   -0.484560   -2.179845
    100          1           0        4.149938   -1.211606    0.282576
    101          1           0        5.397009    1.498857   -2.926601
    102          1           0        5.746364   -0.251917   -3.114205
    103          1           0        3.976807    0.288053   -3.297085
    104          1           0        6.484422    1.215268   -0.615018
    105          1           0        5.943037   -0.284986    0.565049
    106          1           0        7.426398   -1.738714   -1.223841
    107          1           0        7.980157   -0.270301   -2.002057
    108          1           0        8.784673    0.875816   -0.447712
    109          1           0        8.612557   -0.447618    0.878734
    110          1           0       10.242233   -0.316576   -1.703994
    111          1           0        9.455241   -2.764652   -1.254242
    112          1           0       11.190975   -2.810038   -1.117668
    113          1           0       10.082949   -2.668986    0.270204
    114          1           0       11.242174    0.782920   -0.060627
    115          1           0       11.067383   -0.453876    1.050465
    116          1           0       12.848495   -1.633742   -0.278810
    117          1           0       12.746364   -0.512610   -1.474422
    118          1           0       13.534319    1.287829    0.108357
    119          1           0       14.106362   -0.305092    1.471933
    120          1           0       15.298125    0.467289   -1.383806
    121          1           0       14.846621   -2.147847   -1.101182
    122          1           0       16.657148   -1.827944   -0.674541
    123          1           0       15.583428   -2.001103    0.708740
    124          1           0       15.840046    2.085442    0.365482
    125          1           0       16.141696    0.617344    1.521573
    126          1           0       17.828995   -0.276806   -0.023155
    127          1           0       17.576580    0.863403   -1.182445
    128          1           0       18.479822    2.888347    0.439365
    129          1           0       18.571753    1.514066    1.672650
    130          1           0       20.618886    0.600808    0.636469
    131          1           0       19.926323    2.848881   -1.667883
    132          1           0       21.518086    1.738688   -1.457683
    133          1           0       19.958953    1.108960   -2.015740
    134          1           0       20.864501    2.408099    2.001224
    135          1           0       22.057248    2.473351    0.795739
    136          1           0       20.498352    3.646125    0.833062
    137          1           0       -7.018174    1.882253    0.329979
    138          1           0       -7.770871   -0.154437   -0.179169
 ---------------------------------------------------------------------

 SCF Done:  E(RB3LYP) =  -2733.04921996     A.U. after   17 cycles

 Excitation energies and oscillator strengths:

 Excited State   1:      Singlet-A      2.0419 eV  607.20 nm  f=0.1762  <S**2>=0.000
     235 -> 237       -0.15232
     235 -> 238       -0.29107
     236 -> 237        0.61041
     236 -> 238       -0.13971
 This state for optimization and/or second-order correction.
 Total Energy, E(TD-HF/TD-DFT) =  -2732.97418170
 Copying the excited state density for this state as the 1-particle RhoCI density.

 The electronic state is 1-A.
 Alpha  occ. eigenvalues --  -19.18374 -19.17577 -19.13416 -19.13155 -19.10789
 Alpha  occ. eigenvalues --  -14.35818 -14.35174 -14.31911 -14.30912 -10.32621
 Alpha  occ. eigenvalues --  -10.32082 -10.27740 -10.26669 -10.26568 -10.23732
 Alpha  occ. eigenvalues --  -10.23334 -10.23263 -10.22733 -10.22575 -10.22407
 Alpha  occ. eigenvalues --  -10.22264 -10.21967 -10.21699 -10.21543 -10.21540
 Alpha  occ. eigenvalues --  -10.21508 -10.21482 -10.21456 -10.21402 -10.21226
 Alpha  occ. eigenvalues --  -10.20842 -10.20720 -10.20682 -10.20530 -10.20418
 Alpha  occ. eigenvalues --  -10.20305 -10.20188 -10.20129 -10.20103 -10.20094
 Alpha  occ. eigenvalues --  -10.20017 -10.19917 -10.19787 -10.19736 -10.19623
 Alpha  occ. eigenvalues --  -10.19530 -10.19270 -10.19149 -10.19051 -10.18996
 Alpha  occ. eigenvalues --  -10.18981 -10.18963 -10.18935 -10.18775 -10.18640
 Alpha  occ. eigenvalues --  -10.18484 -10.18468 -10.18007 -10.17723 -10.17703
 Alpha  occ. eigenvalues --  -10.17483 -10.17437 -10.17132 -10.16494  -1.09081
 Alpha  occ. eigenvalues --   -1.06891  -1.01574  -1.00222  -0.98846  -0.95769
 Alpha  occ. eigenvalues --   -0.95095  -0.94497  -0.92661  -0.85094  -0.82915
 Alpha  occ. eigenvalues --   -0.82131  -0.81858  -0.81243  -0.81190  -0.79817
 Alpha  occ. eigenvalues --   -0.79555  -0.79463  -0.79067  -0.78933  -0.77569
 Alpha  occ. eigenvalues --   -0.76791  -0.76137  -0.75430  -0.74791  -0.74323
 Alpha  occ. eigenvalues --   -0.73355  -0.72995  -0.72244  -0.71110  -0.70480
 Alpha  occ. eigenvalues --   -0.69946  -0.69197  -0.68473  -0.67990  -0.67851
 Alpha  occ. eigenvalues --   -0.67261  -0.67009  -0.66497  -0.65561  -0.64838
 Alpha  occ. eigenvalues --   -0.63861  -0.63394  -0.62575  -0.61278  -0.60689
 Alpha  occ. eigenvalues --   -0.60002  -0.59486  -0.58123  -0.57643  -0.57150
 Alpha  occ. eigenvalues --   -0.56856  -0.55380  -0.55096  -0.54728  -0.54217
 Alpha  occ. eigenvalues --   -0.53982  -0.53740  -0.52977  -0.52878  -0.52601
 Alpha  occ. eigenvalues --   -0.52242  -0.51640  -0.51387  -0.50763  -0.50005
 Alpha  occ. eigenvalues --   -0.49696  -0.49079  -0.48977  -0.48604  -0.48277
 Alpha  occ. eigenvalues --   -0.48153  -0.47708  -0.47383  -0.47292  -0.47016
 Alpha  occ. eigenvalues --   -0.46640  -0.46432  -0.45945  -0.45778  -0.45540
 Alpha  occ. eigenvalues --   -0.45377  -0.45282  -0.45000  -0.44776  -0.44583
 Alpha  occ. eigenvalues --   -0.44425  -0.44175  -0.43971  -0.43538  -0.43270
 Alpha  occ. eigenvalues --   -0.43097  -0.42905  -0.42727  -0.42394  -0.42279
 Alpha  occ. eigenvalues --   -0.42093  -0.41803  -0.41586  -0.41483  -0.41011
 Alpha  occ. eigenvalues --   -0.40912  -0.40601  -0.40417  -0.40235  -0.40169
 Alpha  occ. eigenvalues --   -0.40066  -0.39715  -0.39471  -0.39388  -0.39193
 Alpha  occ. eigenvalues --   -0.38966  -0.38925  -0.38788  -0.38559  -0.38494
 Alpha  occ. eigenvalues --   -0.38370  -0.38189  -0.37840  -0.37631  -0.37414
 Alpha  occ. eigenvalues --   -0.37332  -0.37280  -0.37118  -0.36941  -0.36615
 Alpha  occ. eigenvalues --   -0.36469  -0.36043  -0.36032  -0.35906  -0.35679
 Alpha  occ. eigenvalues --   -0.35674  -0.35394  -0.35105  -0.34793  -0.34771
 Alpha  occ. eigenvalues --   -0.34580  -0.34447  -0.34366  -0.34155  -0.34099
 Alpha  occ. eigenvalues --   -0.33723  -0.33589  -0.33293  -0.33003  -0.32208
 Alpha  occ. eigenvalues --   -0.31868  -0.31774  -0.31517  -0.31240  -0.30909
 Alpha  occ. eigenvalues --   -0.30800  -0.30541  -0.30459  -0.30294  -0.30195
 Alpha  occ. eigenvalues --   -0.29804  -0.29057  -0.28822  -0.28348  -0.28181
 Alpha  occ. eigenvalues --   -0.28153  -0.26739  -0.26371  -0.26076  -0.24619
 Alpha  occ. eigenvalues --   -0.24295  -0.24201  -0.24069  -0.22900  -0.20133
 Alpha  occ. eigenvalues --   -0.18405
 Alpha virt. eigenvalues --   -0.09995  -0.07884  -0.03786  -0.01646  -0.01460
 Alpha virt. eigenvalues --   -0.01029  -0.00538   0.01018   0.01983   0.02929
 Alpha virt. eigenvalues --    0.03467   0.03748   0.04292   0.04545   0.04575

 Mulliken charges:
               1
     1  C   -0.076854
     2  C   -0.006386
     3  C   -0.166244
     4  C   -0.074432
     5  N   -0.109928
     6  C   -0.066101
     7  C   -0.157551
     8  C   -0.102976
     9  C   -0.016090
    10  C    0.191473
    11  C    0.026446
    12  C    0.072624
    13  C    0.235500
    14  O   -0.267619
    15  O   -0.355540
    16  N   -0.123162
    17  C    0.095631
    18  C   -0.109964
    19  C   -0.029498
    20  C    0.142578
    21  C    0.049007
    22  C   -0.023973
    23  C    0.011212
    24  N   -0.251903
    25  C    0.069807
    26  C   -0.117423
    27  C   -0.046919
    28  C    0.076333
    29  C    0.072950
    30  C    0.024495
    31  C   -0.090070
    32  N   -0.142708
    33  C    0.080973
    34  C   -0.150968
    35  C   -0.038568
    36  C    0.151783
    37  C    0.161291
    38  C    0.021017
    39  O   -0.212329
    40  C    0.053229
    41  C    0.244579
    42  O   -0.207922
    43  O   -0.304781
    44  C    0.089749
    45  C    0.223137
    46  C   -0.068253
    47  C   -0.141075
    48  C   -0.017471
    49  C    0.055590
    50  C    0.003236
    51  C   -0.036031
    52  C   -0.055907
    53  C    0.059823
    54  C    0.089722
    55  C    0.089876
    56  C    0.047422
    57  C   -0.140755
    58  C   -0.044233
    59  C   -0.006769
    60  C    0.100119
    61  C    0.035767
    62  C   -0.174996
    63  C    0.032995
    64  C    0.094709
    65  H   -0.050509
    66  H    0.041247
    67  H   -0.000188
    68  H    0.049834
    69  H    0.034008
    70  H   -0.018244
    71  H   -0.020319
    72  H    0.017616
    73  H    0.016178
    74  H    0.019534
    75  H    0.012232
    76  H    0.006926
    77  H    0.065829
    78  H    0.027187
    79  H    0.047926
    80  H   -0.018350
    81  H    0.025050
    82  H    0.028461
    83  H    0.031711
    84  H   -0.013323
    85  H    0.019170
    86  H    0.012301
    87  H   -0.020081
    88  H    0.031717
    89  H    0.052207
    90  H    0.033756
    91  H    0.016029
    92  H    0.010393
    93  H    0.050626
    94  H    0.072328
    95  H    0.081605
    96  H    0.059805
    97  H    0.068168
    98  H    0.057247
    99  H    0.064887
   100  H   -0.017978
   101  H    0.036698
   102  H    0.021666
   103  H    0.034978
   104  H    0.029456
   105  H    0.024679
   106  H    0.008333
   107  H    0.007753
   108  H    0.005943
   109  H    0.001318
   110  H   -0.023679
   111  H   -0.020877
   112  H    0.023074
   113  H   -0.014819
   114  H   -0.070627
   115  H   -0.028807
   116  H   -0.038686
   117  H   -0.015497
   118  H    0.020069
   119  H    0.021983
   120  H    0.000889
   121  H    0.037432
   122  H    0.034741
   123  H    0.009048
   124  H    0.007639
   125  H   -0.018519
   126  H   -0.027856
   127  H   -0.024787
   128  H    0.001047
   129  H   -0.000977
   130  H    0.001904
   131  H    0.017121
   132  H    0.019295
   133  H    0.007209
   134  H   -0.053601
   135  H    0.015146
   136  H    0.011097
   137  H    0.088053
   138  H    0.189497
 Sum of Mulliken charges =  -0.00000

 Dipole moment (field-independent basis, Debye):
    X=              3.2657    Y=              3.5331    Z=              1.2602  Tot=              4.9735
 Quadrupole moment (field-independent basis, Debye-Ang):
   XX=           -350.5544   YY=           -380.3063   ZZ=           -396.9076
   XY=            -36.8880   XZ=              3.8039   YZ=             -3.0850

 Normal termination of Gaussian 16 at Sat Aug 17 09:04:26 2019.
