 Gaussian 16, Revision A.03,
 Gaussian 16:  ES64L-G16RevA.03 25-Dec-2016

 --------------------------
 # td=(NStates=1) B3LYP/SVP
 --------------------------

 --
 TD
 --
 Symbolic Z-matrix:
 Charge =  0 Multiplicity = 1

                         Standard orientation:
 ---------------------------------------------------------------------
 Center     Atomic      Atomic             Coordinates (Angstroms)
 Number     Number       Type             X           Y           Z
 ---------------------------------------------------------------------
      1          6           0       -5.195731   -1.926644    0.417493
      2          6           0       -4.655824    2.801450    1.459968
      3          6           0       -9.374533    3.382409   -0.141343
      4          6           0       -9.817476   -1.401525   -0.988480
      5          7           0       -5.181656    0.499063    0.714644
      6          6           0       -4.586928   -0.694588    0.692509
      7          6           0       -3.067183   -0.614537    1.187216
      8          6           0       -3.012292    0.816333    1.740195
      9          6           0       -4.324799    1.440544    1.359843
     10          6           0       -2.816672    1.026164    3.215805
     11          6           0       -2.149328   -0.823671   -0.067736
     12          6           0       -0.739197   -0.930653    0.475699
     13          6           0        0.371431   -1.056414   -0.600352
     14          8           0        0.165892   -1.172649   -1.816369
     15          8           0        1.633445   -0.952230   -0.082207
     16          7           0       -7.008582    2.820651    0.531381
     17          6           0       -5.845249    3.425250    0.984610
     18          6           0       -6.209204    4.881461    1.030715
     19          6           0       -7.465728    4.945791    0.528746
     20          6           0       -8.011652    3.677722    0.188475
     21          6           0       -5.164032    5.889202    1.379372
     22          6           0       -8.072699    6.351505    0.271490
     23          6           0       -9.150653    6.529109   -0.451483
     24          7           0       -9.159833    0.886726   -0.456026
     25          6           0       -9.822584    2.074801   -0.519203
     26          6           0      -11.308575    1.905287   -0.876430
     27          6           0      -11.414058    0.526902   -1.118494
     28          6           0      -10.164928   -0.028527   -0.843191
     29          6           0      -12.300335    2.969491   -1.047905
     30          6           0      -12.650559   -0.191368   -1.601941
     31          6           0      -12.530709   -0.477060   -3.189681
     32          7           0       -7.538313   -1.228302   -0.184247
     33          6           0       -8.577780   -1.992027   -0.668206
     34          6           0       -8.214316   -3.444262   -0.663457
     35          6           0       -6.861732   -3.373776   -0.256051
     36          6           0       -6.503335   -2.044776   -0.036523
     37          6           0       -8.978087   -4.621178   -1.038116
     38          6           0       -5.698237   -4.341457   -0.086461
     39          8           0       -5.670604   -5.517154   -0.135337
     40          6           0       -4.501254   -3.382891    0.332470
     41          6           0       -4.079877   -3.873636    1.698821
     42          8           0       -4.387924   -3.409721    2.772542
     43          8           0       -3.178834   -4.803726    1.615010
     44          6           0       -2.693346   -5.396904    2.867069
     45          6           0        2.703515   -1.040957   -1.110812
     46          6           0        3.993983   -0.744984   -0.323900
     47          6           0        5.005912   -0.041234   -0.939360
     48          6           0        4.895033    0.692973   -2.234209
     49          6           0        6.240796    0.184411   -0.141571
     50          6           0        7.560630   -0.319709   -0.787350
     51          6           0        8.871269   -0.323695    0.005118
     52          6           0       10.079540   -0.771044   -0.725285
     53          6           0        9.956805   -2.187860   -1.029860
     54          6           0       11.307890   -0.348744    0.142121
     55          6           0       12.591876   -0.595688   -0.562600
     56          6           0       13.838318   -0.156550    0.297387
     57          6           0       15.211571   -0.186072   -0.439738
     58          6           0       15.738140   -1.659649   -0.801696
     59          6           0       16.217381    0.508305    0.460412
     60          6           0       17.633597    0.735440   -0.176401
     61          6           0       18.698118    1.558944    0.704940
     62          6           0       20.083570    1.763379   -0.024037
     63          6           0       19.969212    2.509857   -1.322965
     64          6           0       21.086974    2.392383    1.011771
     65          1           0       -3.834679    3.440743    1.667346
     66          1           0      -10.098215    4.142851   -0.196451
     67          1           0      -10.657702   -1.918259   -1.376290
     68          1           0       -2.633171   -1.471943    1.933344
     69          1           0       -2.186693    1.366622    1.239090
     70          1           0       -1.750905    0.710868    3.505354
     71          1           0       -3.088688    2.091993    3.471126
     72          1           0       -3.329456    0.268961    3.816760
     73          1           0       -2.385381   -1.819497   -0.591363
     74          1           0       -2.330374    0.061741   -0.800595
     75          1           0       -0.220876   -0.113909    1.154495
     76          1           0       -0.757684   -1.955184    1.113094
     77          1           0       -4.152322    5.877395    0.891064
     78          1           0       -5.578879    7.041428    1.176524
     79          1           0       -4.913347    5.687762    2.411333
     80          1           0       -7.571955    7.287125    0.689314
     81          1           0       -9.803235    5.794309   -1.007150
     82          1           0       -9.485951    7.551179   -0.414708
     83          1           0      -12.630874    3.196026   -0.009448
     84          1           0      -11.687313    3.903306   -1.480154
     85          1           0      -13.068619    2.700189   -1.967635
     86          1           0      -12.649664   -1.005491   -0.965524
     87          1           0      -13.632057    0.319143   -1.422695
     88          1           0      -12.478010    0.394630   -3.816906
     89          1           0      -11.592221   -1.043883   -3.269236
     90          1           0      -13.294470   -1.163909   -3.466997
     91          1           0       -9.774845   -4.882876   -0.059359
     92          1           0       -9.534091   -4.493887   -2.004739
     93          1           0       -8.362455   -5.484461   -1.251127
     94          1           0       -3.749193   -3.440696   -0.693786
     95          1           0       -1.857543   -6.154332    2.556305
     96          1           0       -2.262137   -5.019286    3.582859
     97          1           0       -3.581920   -6.193280    3.226152
     98          1           0        2.611507   -2.032235   -1.479747
     99          1           0        2.574303   -0.372355   -1.844487
    100          1           0        4.107181   -1.159946    0.718338
    101          1           0        5.055028    1.676378   -2.065700
    102          1           0        5.694992    0.116002   -2.968719
    103          1           0        3.885264    0.464565   -2.694930
    104          1           0        6.277034    1.255218    0.027804
    105          1           0        6.097525   -0.209730    0.915127
    106          1           0        7.338260   -1.597078   -0.959384
    107          1           0        7.873169    0.239872   -1.842757
    108          1           0        9.055208    0.557866    0.341498
    109          1           0        8.850008   -0.905278    1.073786
    110          1           0       10.223730   -0.072798   -1.690311
    111          1           0        9.312232   -2.550591   -1.895358
    112          1           0       10.845579   -2.688306   -1.458885
    113          1           0        9.706416   -2.976578   -0.055703
    114          1           0       11.146532    0.650464    0.357293
    115          1           0       11.209316   -0.776735    1.249048
    116          1           0       12.899387   -1.749591   -0.734205
    117          1           0       12.510519   -0.019956   -1.498759
    118          1           0       13.725433    0.853518    0.566692
    119          1           0       13.740750   -0.734249    1.425530
    120          1           0       15.101700    0.437028   -1.491271
    121          1           0       15.239097   -2.355018   -1.372715
    122          1           0       16.841994   -1.684575   -1.065617
    123          1           0       15.638938   -2.022222    0.181551
    124          1           0       15.926047    1.628044    0.778664
    125          1           0       16.248694   -0.130212    1.268409
    126          1           0       18.382604   -0.378109   -0.275578
    127          1           0       17.504228    1.275486   -1.224232
    128          1           0       18.184912    2.482199    0.836852
    129          1           0       18.813805    1.145183    1.789818
    130          1           0       20.376845    0.945175   -0.298332
    131          1           0       19.388156    3.409243   -1.521464
    132          1           0       20.853543    2.653700   -1.942181
    133          1           0       19.385877    1.769787   -1.971453
    134          1           0       21.244428    1.738532    1.991184
    135          1           0       22.188680    2.291720    0.614475
    136          1           0       20.650918    3.467852    1.287426
    137          1           0       -7.045074    1.853293    0.547859
    138          1           0       -7.586952   -0.156252   -0.153385
 ---------------------------------------------------------------------

 SCF Done:  E(RB3LYP) =  -2733.01489248     A.U. after   17 cycles

 Excitation energies and oscillator strengths:

 Excited State   1:      Singlet-A      2.0241 eV  612.55 nm  f=0.1502  <S**2>=0.000
     235 -> 238       -0.30924
     236 -> 237        0.62357
 This state for optimization and/or second-order correction.
 Total Energy, E(TD-HF/TD-DFT) =  -2732.94050951
 Copying the excited state density for this state as the 1-particle RhoCI density.

 The electronic state is 1-A.
 Alpha  occ. eigenvalues --  -19.18646 -19.17131 -19.13470 -19.11839 -19.11595
 Alpha  occ. eigenvalues --  -14.36820 -14.36774 -14.32402 -14.30118 -10.31529
 Alpha  occ. eigenvalues --  -10.31200 -10.28642 -10.25429 -10.24132 -10.23801
 Alpha  occ. eigenvalues --  -10.23675 -10.23531 -10.23465 -10.23253 -10.22945
 Alpha  occ. eigenvalues --  -10.22570 -10.22265 -10.21914 -10.21625 -10.21541
 Alpha  occ. eigenvalues --  -10.21333 -10.21261 -10.21150 -10.21107 -10.21080
 Alpha  occ. eigenvalues --  -10.20889 -10.20816 -10.20744 -10.20464 -10.20253
 Alpha  occ. eigenvalues --  -10.20189 -10.20074 -10.20022 -10.20002 -10.19995
 Alpha  occ. eigenvalues --  -10.19980 -10.19821 -10.19774 -10.19726 -10.19655
 Alpha  occ. eigenvalues --  -10.19387 -10.19312 -10.19253 -10.19233 -10.19188
 Alpha  occ. eigenvalues --  -10.19083 -10.19071 -10.19065 -10.18807 -10.18805
 Alpha  occ. eigenvalues --  -10.18728 -10.18519 -10.18380 -10.18337 -10.17905
 Alpha  occ. eigenvalues --  -10.17879 -10.17678 -10.17554 -10.17086  -1.11023
 Alpha  occ. eigenvalues --   -1.07336  -1.05665  -0.99998  -0.98876  -0.98436
 Alpha  occ. eigenvalues --   -0.98244  -0.93016  -0.92163  -0.83908  -0.83173
 Alpha  occ. eigenvalues --   -0.82013  -0.81338  -0.80950  -0.80906  -0.80567
 Alpha  occ. eigenvalues --   -0.79794  -0.79673  -0.79331  -0.78635  -0.77366
 Alpha  occ. eigenvalues --   -0.76476  -0.75782  -0.75691  -0.74727  -0.73913
 Alpha  occ. eigenvalues --   -0.73742  -0.72523  -0.71967  -0.71349  -0.70821
 Alpha  occ. eigenvalues --   -0.70105  -0.69463  -0.68784  -0.68586  -0.67668
 Alpha  occ. eigenvalues --   -0.67217  -0.67065  -0.66111  -0.65388  -0.64785
 Alpha  occ. eigenvalues --   -0.63376  -0.62863  -0.62147  -0.61930  -0.61015
 Alpha  occ. eigenvalues --   -0.60402  -0.58394  -0.58339  -0.57805  -0.57364
 Alpha  occ. eigenvalues --   -0.56843  -0.56303  -0.55555  -0.55393  -0.55219
 Alpha  occ. eigenvalues --   -0.55127  -0.54886  -0.54039  -0.53628  -0.52619
 Alpha  occ. eigenvalues --   -0.52002  -0.51474  -0.51206  -0.50572  -0.49968
 Alpha  occ. eigenvalues --   -0.49715  -0.49250  -0.48871  -0.48723  -0.48217
 Alpha  occ. eigenvalues --   -0.47383  -0.47368  -0.46931  -0.46639  -0.46322
 Alpha  occ. eigenvalues --   -0.46136  -0.46044  -0.45809  -0.45517  -0.45289
 Alpha  occ. eigenvalues --   -0.45168  -0.45073  -0.44840  -0.44472  -0.44281
 Alpha  occ. eigenvalues --   -0.44221  -0.44198  -0.44097  -0.43962  -0.43697
 Alpha  occ. eigenvalues --   -0.43621  -0.43537  -0.43014  -0.42812  -0.42563
 Alpha  occ. eigenvalues --   -0.42464  -0.42427  -0.42101  -0.41991  -0.41246
 Alpha  occ. eigenvalues --   -0.40995  -0.40826  -0.40806  -0.40372  -0.40249
 Alpha  occ. eigenvalues --   -0.40047  -0.39844  -0.39717  -0.39511  -0.39357
 Alpha  occ. eigenvalues --   -0.39132  -0.38937  -0.38875  -0.38689  -0.38477
 Alpha  occ. eigenvalues --   -0.38302  -0.38126  -0.37455  -0.37342  -0.37193
 Alpha  occ. eigenvalues --   -0.37139  -0.37081  -0.37023  -0.36822  -0.36642
 Alpha  occ. eigenvalues --   -0.36274  -0.36177  -0.35926  -0.35550  -0.35298
 Alpha  occ. eigenvalues --   -0.35191  -0.35132  -0.35049  -0.34839  -0.34388
 Alpha  occ. eigenvalues --   -0.34072  -0.34035  -0.33826  -0.33708  -0.33625
 Alpha  occ. eigenvalues --   -0.33493  -0.33316  -0.32902  -0.32721  -0.32502
 Alpha  occ. eigenvalues --   -0.32345  -0.31818  -0.31574  -0.31539  -0.31378
 Alpha  occ. eigenvalues --   -0.30948  -0.30764  -0.30546  -0.30436  -0.30131
 Alpha  occ. eigenvalues --   -0.29982  -0.29109  -0.28669  -0.27877  -0.27652
 Alpha  occ. eigenvalues --   -0.27398  -0.27192  -0.26620  -0.26454  -0.25928
 Alpha  occ. eigenvalues --   -0.25340  -0.24300  -0.24024  -0.22161  -0.19675
 Alpha  occ. eigenvalues --   -0.18519
 Alpha virt. eigenvalues --   -0.09922  -0.07708  -0.04070  -0.01511  -0.00565
 Alpha virt. eigenvalues --   -0.00054   0.00275   0.00733   0.02490   0.03426
 Alpha virt. eigenvalues --    0.03638   0.03907   0.04052   0.04383   0.04439

 Mulliken charges:
               1
     1  C   -0.040118
     2  C   -0.027332
     3  C   -0.068627
     4  C   -0.075561
     5  N   -0.201035
     6  C   -0.028911
     7  C   -0.119483
     8  C    0.032702
     9  C   -0.009906
    10  C    0.055594
    11  C    0.030954
    12  C   -0.060306
    13  C    0.198210
    14  O   -0.268336
    15  O   -0.354538
    16  N   -0.018579
    17  C    0.055064
    18  C   -0.100071
    19  C   -0.009566
    20  C    0.119440
    21  C    0.035643
    22  C   -0.032443
    23  C   -0.038025
    24  N   -0.275755
    25  C    0.069024
    26  C   -0.167144
    27  C   -0.089776
    28  C    0.041621
    29  C    0.023767
    30  C    0.068245
    31  C    0.044283
    32  N   -0.022841
    33  C    0.108218
    34  C   -0.116269
    35  C   -0.064377
    36  C    0.134194
    37  C    0.039732
    38  C    0.073320
    39  O   -0.120650
    40  C   -0.134925
    41  C    0.227287
    42  O   -0.232026
    43  O   -0.264900
    44  C    0.213349
    45  C    0.370268
    46  C   -0.118443
    47  C   -0.171628
    48  C    0.093689
    49  C    0.119722
    50  C   -0.083527
    51  C    0.131317
    52  C   -0.099404
    53  C    0.000882
    54  C    0.034308
    55  C    0.052889
    56  C   -0.010991
    57  C   -0.089628
    58  C    0.054767
    59  C    0.064862
    60  C   -0.114972
    61  C    0.022173
    62  C    0.093397
    63  C   -0.004652
    64  C   -0.044581
    65  H   -0.030220
    66  H   -0.043644
    67  H   -0.049818
    68  H    0.035117
    69  H    0.001903
    70  H    0.004679
    71  H    0.027306
    72  H    0.019109
    73  H    0.032072
    74  H    0.035051
    75  H    0.060378
    76  H    0.051439
    77  H    0.040038
    78  H    0.038040
    79  H    0.024657
    80  H    0.013786
    81  H    0.037014
    82  H    0.006751
    83  H    0.049758
    84  H    0.038064
    85  H    0.055107
    86  H   -0.009251
    87  H    0.001804
    88  H    0.019546
    89  H   -0.000154
    90  H    0.004674
    91  H    0.063355
    92  H    0.032755
    93  H    0.032664
    94  H    0.114430
    95  H    0.023777
    96  H   -0.022154
    97  H    0.054888
    98  H    0.013329
    99  H   -0.027499
   100  H    0.010779
   101  H    0.009460
   102  H    0.050981
   103  H    0.016583
   104  H   -0.009789
   105  H   -0.002813
   106  H    0.026083
   107  H    0.025513
   108  H   -0.090839
   109  H   -0.005971
   110  H    0.002721
   111  H    0.016934
   112  H   -0.010608
   113  H    0.020899
   114  H   -0.037063
   115  H   -0.006723
   116  H    0.029687
   117  H   -0.005248
   118  H   -0.029810
   119  H    0.012661
   120  H    0.004437
   121  H   -0.001377
   122  H    0.020110
   123  H   -0.021085
   124  H    0.020193
   125  H   -0.022907
   126  H    0.017309
   127  H    0.033817
   128  H   -0.024012
   129  H    0.011153
   130  H   -0.097656
   131  H    0.001087
   132  H   -0.001433
   133  H   -0.000837
   134  H    0.016379
   135  H    0.019300
   136  H    0.037419
   137  H    0.101268
   138  H    0.185053
 Sum of Mulliken charges =  -0.00000

 Dipole moment (field-independent basis, Debye):
    X=              2.3591    Y=              3.0582    Z=              0.2498  Tot=              3.8704
 Quadrupole moment (field-independent basis, Debye-Ang):
   XX=           -356.4155   YY=           -380.8730   ZZ=           -397.5891
   XY=            -11.8932   XZ=             11.8055   YZ=             -1.5823

 Normal termination of Gaussian 16 at Mon Aug 26 11:27:36 2019.
