 Gaussian 16, Revision A.03,
 Gaussian 16:  ES64L-G16RevA.03 25-Dec-2016

 --------------------------
 # td=(NStates=1) B3LYP/SVP
 --------------------------

 --
 TD
 --
 Symbolic Z-matrix:
 Charge =  0 Multiplicity = 1

                         Standard orientation:
 ---------------------------------------------------------------------
 Center     Atomic      Atomic             Coordinates (Angstroms)
 Number     Number       Type             X           Y           Z
 ---------------------------------------------------------------------
      1          6           0       -5.195563   -1.928642    0.416208
      2          6           0       -4.722497    2.768981    1.383130
      3          6           0       -9.327600    3.383174   -0.248377
      4          6           0       -9.813609   -1.395222   -0.876196
      5          7           0       -5.105875    0.485449    0.711965
      6          6           0       -4.615614   -0.739525    0.748128
      7          6           0       -3.137685   -0.598038    1.213020
      8          6           0       -3.097513    0.908383    1.759463
      9          6           0       -4.383714    1.407328    1.234921
     10          6           0       -2.923422    1.015522    3.337337
     11          6           0       -2.177968   -0.738911   -0.047960
     12          6           0       -0.684977   -0.871162    0.434977
     13          6           0        0.436895   -1.276223   -0.632873
     14          8           0        0.166190   -1.916810   -1.681431
     15          8           0        1.586597   -0.795634   -0.209553
     16          7           0       -7.066060    2.750030    0.500989
     17          6           0       -5.904336    3.411980    0.942323
     18          6           0       -6.254588    4.775326    1.050881
     19          6           0       -7.529801    5.038917    0.465758
     20          6           0       -8.073413    3.683164    0.221576
     21          6           0       -5.241609    5.855722    1.516141
     22          6           0       -8.231571    6.267406    0.442012
     23          6           0       -9.143996    6.702723   -0.393126
     24          7           0       -9.199587    0.820402   -0.452430
     25          6           0       -9.879135    2.066727   -0.422549
     26          6           0      -11.328256    1.899896   -0.928772
     27          6           0      -11.520412    0.516666   -1.059584
     28          6           0      -10.169583   -0.039377   -0.944283
     29          6           0      -12.251413    2.936725   -1.097432
     30          6           0      -12.724328   -0.129769   -1.589249
     31          6           0      -12.755900   -0.314028   -3.146319
     32          7           0       -7.502086   -1.239466   -0.316843
     33          6           0       -8.580446   -1.998824   -0.672654
     34          6           0       -8.252504   -3.344421   -0.685990
     35          6           0       -6.907806   -3.349667   -0.372270
     36          6           0       -6.411641   -2.052994   -0.144312
     37          6           0       -9.236377   -4.555451   -0.785926
     38          6           0       -5.813298   -4.287254   -0.069754
     39          8           0       -5.743327   -5.439633   -0.134294
     40          6           0       -4.550328   -3.335110    0.366096
     41          6           0       -3.805749   -3.718280    1.556345
     42          8           0       -3.813164   -3.328483    2.715174
     43          8           0       -3.175258   -4.999172    1.354714
     44          6           0       -2.593941   -5.496658    2.561483
     45          6           0        2.731303   -1.128156   -1.095500
     46          6           0        3.932558   -0.665232   -0.356333
     47          6           0        4.928785   -0.025489   -1.036558
     48          6           0        4.890482    0.374150   -2.581795
     49          6           0        6.307015    0.303107   -0.399246
     50          6           0        7.536192   -0.495076   -0.752390
     51          6           0        8.805832   -0.090760   -0.018079
     52          6           0       10.126539   -0.825391   -0.391100
     53          6           0        9.990668   -2.366708   -0.174220
     54          6           0       11.313315   -0.098262    0.338235
     55          6           0       12.680997   -0.555344   -0.345767
     56          6           0       13.875263    0.238040    0.211468
     57          6           0       15.305786   -0.201289   -0.228705
     58          6           0       15.607562   -1.661347    0.062600
     59          6           0       16.301643    0.930017    0.281052
     60          6           0       17.695614    0.734789   -0.241122
     61          6           0       18.686091    1.898728    0.281198
     62          6           0       20.117169    1.561309   -0.166151
     63          6           0       20.400726    1.939795   -1.601458
     64          6           0       21.204905    2.379038    0.657324
     65          1           0       -4.155460    3.341168    1.935092
     66          1           0      -10.052307    4.186370   -0.415920
     67          1           0      -10.501133   -2.117383   -1.289391
     68          1           0       -2.894553   -1.306216    1.972763
     69          1           0       -2.159534    1.415997    1.429275
     70          1           0       -1.897002    0.758548    3.582790
     71          1           0       -3.251491    1.983965    3.740854
     72          1           0       -3.447932    0.151041    3.791513
     73          1           0       -2.139388   -1.767510   -0.755716
     74          1           0       -2.375402   -0.119426   -0.909013
     75          1           0       -0.318138    0.024635    0.798187
     76          1           0       -0.396499   -1.735024    1.179364
     77          1           0       -4.516373    6.025079    0.612122
     78          1           0       -5.643045    6.866294    1.838176
     79          1           0       -4.684029    5.343842    2.470372
     80          1           0       -7.899330    6.883385    1.198432
     81          1           0       -9.580359    6.240394   -1.372690
     82          1           0       -9.801935    7.524156   -0.312460
     83          1           0      -12.405585    3.372930    0.002724
     84          1           0      -11.825585    3.863471   -1.621219
     85          1           0      -13.101043    2.502964   -1.527721
     86          1           0      -12.795692   -1.048464   -1.047192
     87          1           0      -13.647833    0.430228   -1.180817
     88          1           0      -12.997351    0.662605   -3.474769
     89          1           0      -11.979283   -0.974890   -3.697049
     90          1           0      -13.549798   -0.990943   -3.530942
     91          1           0      -10.135500   -4.398433   -0.061937
     92          1           0       -9.548414   -4.931445   -1.809592
     93          1           0       -8.767617   -5.421981   -0.306471
     94          1           0       -3.870476   -3.491289   -0.440223
     95          1           0       -2.097740   -6.256594    2.248281
     96          1           0       -1.890988   -4.870777    3.016935
     97          1           0       -3.422570   -5.778703    3.411352
     98          1           0        2.629359   -2.287251   -1.245181
     99          1           0        2.327816   -0.767199   -2.049625
    100          1           0        4.156911   -0.993589    0.658625
    101          1           0        4.774982    1.578919   -2.646105
    102          1           0        5.716769   -0.178509   -3.216459
    103          1           0        3.982002    0.130482   -3.297544
    104          1           0        6.609636    1.360133   -0.391486
    105          1           0        6.229191    0.043099    0.789955
    106          1           0        7.259907   -1.619081   -0.678960
    107          1           0        7.658833   -0.341049   -2.115845
    108          1           0        8.766985    1.107176   -0.031842
    109          1           0        8.594594   -0.093418    1.135337
    110          1           0       10.271846   -0.658759   -1.685462
    111          1           0        9.137363   -2.776765   -0.890666
    112          1           0       10.979852   -3.074760   -0.339606
    113          1           0        9.753365   -2.667884    0.952497
    114          1           0       11.164204    0.966860    0.214734
    115          1           0       11.270199   -0.452049    1.339813
    116          1           0       13.073236   -1.592773   -0.221387
    117          1           0       12.491844   -0.326231   -1.597726
    118          1           0       13.805372    1.413128   -0.062609
    119          1           0       13.937429    0.160227    1.251390
    120          1           0       15.203414    0.168679   -1.444092
    121          1           0       14.658956   -2.170729   -0.009768
    122          1           0       16.602266   -2.056732   -0.447463
    123          1           0       16.098511   -1.855230    1.163942
    124          1           0       16.054058    2.084889   -0.087214
    125          1           0       16.402899    1.069480    1.571979
    126          1           0       18.109522   -0.303416   -0.237541
    127          1           0       17.608981    0.805927   -1.410976
    128          1           0       18.505045    3.039251   -0.233072
    129          1           0       18.688453    1.778890    1.461013
    130          1           0       20.404374    0.519238   -0.034655
    131          1           0       20.359122    3.163606   -1.876452
    132          1           0       21.429933    1.510430   -2.014692
    133          1           0       19.556394    1.403603   -2.086125
    134          1           0       20.876479    2.099976    1.862295
    135          1           0       22.280375    2.068533    0.287781
    136          1           0       21.226430    3.667732    0.648191
    137          1           0       -7.216840    1.755310    0.375137
    138          1           0       -7.552202   -0.215246   -0.151676
 ---------------------------------------------------------------------

 SCF Done:  E(RB3LYP) =  -2732.99072100     A.U. after   17 cycles

 Excitation energies and oscillator strengths:

 Excited State   1:      Singlet-A      2.0793 eV  596.27 nm  f=0.1475  <S**2>=0.000
     235 -> 238       -0.33668
     236 -> 237        0.61840
 This state for optimization and/or second-order correction.
 Total Energy, E(TD-HF/TD-DFT) =  -2732.91430651
 Copying the excited state density for this state as the 1-particle RhoCI density.

 The electronic state is 1-A.
 Alpha  occ. eigenvalues --  -19.18519 -19.15362 -19.12943 -19.12357 -19.11987
 Alpha  occ. eigenvalues --  -14.36663 -14.36022 -14.31188 -14.30771 -10.31370
 Alpha  occ. eigenvalues --  -10.30943 -10.28081 -10.25938 -10.24063 -10.23760
 Alpha  occ. eigenvalues --  -10.22503 -10.22423 -10.22376 -10.22365 -10.22338
 Alpha  occ. eigenvalues --  -10.22294 -10.22253 -10.22149 -10.22146 -10.21719
 Alpha  occ. eigenvalues --  -10.21638 -10.21510 -10.21379 -10.21269 -10.21252
 Alpha  occ. eigenvalues --  -10.21195 -10.21183 -10.21179 -10.21067 -10.20959
 Alpha  occ. eigenvalues --  -10.20923 -10.20911 -10.20854 -10.20778 -10.20704
 Alpha  occ. eigenvalues --  -10.20539 -10.20464 -10.20429 -10.20078 -10.20053
 Alpha  occ. eigenvalues --  -10.19944 -10.19928 -10.19866 -10.19756 -10.19746
 Alpha  occ. eigenvalues --  -10.19726 -10.19621 -10.19560 -10.19516 -10.19361
 Alpha  occ. eigenvalues --  -10.19276 -10.19227 -10.19177 -10.18995 -10.18680
 Alpha  occ. eigenvalues --  -10.18628 -10.18559 -10.18460 -10.18404  -1.09358
 Alpha  occ. eigenvalues --   -1.06827  -1.06169  -0.98701  -0.98567  -0.98053
 Alpha  occ. eigenvalues --   -0.96784  -0.95920  -0.91592  -0.85367  -0.82146
 Alpha  occ. eigenvalues --   -0.82125  -0.81254  -0.81036  -0.80550  -0.80336
 Alpha  occ. eigenvalues --   -0.80201  -0.79450  -0.78892  -0.78776  -0.77208
 Alpha  occ. eigenvalues --   -0.76829  -0.76249  -0.75407  -0.74967  -0.74145
 Alpha  occ. eigenvalues --   -0.73332  -0.72888  -0.72110  -0.70852  -0.69908
 Alpha  occ. eigenvalues --   -0.69212  -0.68995  -0.68210  -0.67627  -0.67008
 Alpha  occ. eigenvalues --   -0.66587  -0.66273  -0.65608  -0.65189  -0.64449
 Alpha  occ. eigenvalues --   -0.64341  -0.63537  -0.62786  -0.62020  -0.61495
 Alpha  occ. eigenvalues --   -0.60777  -0.58511  -0.58191  -0.57594  -0.57289
 Alpha  occ. eigenvalues --   -0.56265  -0.55870  -0.55607  -0.55205  -0.54604
 Alpha  occ. eigenvalues --   -0.54376  -0.54009  -0.53981  -0.52924  -0.52532
 Alpha  occ. eigenvalues --   -0.52378  -0.52131  -0.51187  -0.50433  -0.50398
 Alpha  occ. eigenvalues --   -0.49926  -0.49402  -0.48570  -0.48440  -0.48274
 Alpha  occ. eigenvalues --   -0.48033  -0.47328  -0.46987  -0.46507  -0.46279
 Alpha  occ. eigenvalues --   -0.46182  -0.45968  -0.45748  -0.45431  -0.45400
 Alpha  occ. eigenvalues --   -0.45265  -0.45143  -0.44897  -0.44848  -0.44417
 Alpha  occ. eigenvalues --   -0.44262  -0.44208  -0.43984  -0.43743  -0.43513
 Alpha  occ. eigenvalues --   -0.43134  -0.42927  -0.42613  -0.42495  -0.42348
 Alpha  occ. eigenvalues --   -0.42243  -0.42038  -0.41843  -0.41739  -0.41456
 Alpha  occ. eigenvalues --   -0.41004  -0.40865  -0.40761  -0.40414  -0.40353
 Alpha  occ. eigenvalues --   -0.40274  -0.40005  -0.39919  -0.39874  -0.39739
 Alpha  occ. eigenvalues --   -0.39239  -0.39147  -0.38855  -0.38631  -0.38315
 Alpha  occ. eigenvalues --   -0.37798  -0.37672  -0.37388  -0.37285  -0.37089
 Alpha  occ. eigenvalues --   -0.36945  -0.36794  -0.36576  -0.36471  -0.36402
 Alpha  occ. eigenvalues --   -0.36134  -0.35982  -0.35756  -0.35514  -0.35421
 Alpha  occ. eigenvalues --   -0.35393  -0.35193  -0.35097  -0.34799  -0.34686
 Alpha  occ. eigenvalues --   -0.34386  -0.34173  -0.34084  -0.33906  -0.33683
 Alpha  occ. eigenvalues --   -0.33555  -0.33196  -0.32873  -0.32729  -0.32414
 Alpha  occ. eigenvalues --   -0.32229  -0.32024  -0.31676  -0.31129  -0.30691
 Alpha  occ. eigenvalues --   -0.30617  -0.30381  -0.29897  -0.29660  -0.29230
 Alpha  occ. eigenvalues --   -0.28633  -0.28624  -0.28388  -0.28050  -0.27519
 Alpha  occ. eigenvalues --   -0.27263  -0.27200  -0.26709  -0.26239  -0.25713
 Alpha  occ. eigenvalues --   -0.25177  -0.24784  -0.23921  -0.22284  -0.19753
 Alpha  occ. eigenvalues --   -0.19088
 Alpha virt. eigenvalues --   -0.10204  -0.07865  -0.03981  -0.01835  -0.01650
 Alpha virt. eigenvalues --   -0.01172   0.00792   0.00974   0.02313   0.02882
 Alpha virt. eigenvalues --    0.02906   0.03448   0.03999   0.04091   0.04304

 Mulliken charges:
               1
     1  C    0.058900
     2  C    0.010416
     3  C   -0.079409
     4  C   -0.051189
     5  N   -0.076236
     6  C   -0.094456
     7  C   -0.013636
     8  C   -0.069927
     9  C    0.004373
    10  C    0.048043
    11  C   -0.010851
    12  C    0.038078
    13  C    0.155151
    14  O   -0.289911
    15  O   -0.296474
    16  N   -0.101402
    17  C    0.150321
    18  C   -0.138860
    19  C    0.051369
    20  C    0.123118
    21  C   -0.007864
    22  C    0.007187
    23  C   -0.051883
    24  N   -0.309021
    25  C    0.071547
    26  C   -0.142997
    27  C   -0.089822
    28  C    0.078020
    29  C    0.083347
    30  C    0.058485
    31  C    0.026184
    32  N   -0.053569
    33  C    0.052402
    34  C   -0.120267
    35  C   -0.038587
    36  C    0.063459
    37  C    0.058203
    38  C    0.063227
    39  O   -0.078289
    40  C    0.007564
    41  C    0.202813
    42  O   -0.234118
    43  O   -0.357845
    44  C    0.259536
    45  C    0.221580
    46  C   -0.006624
    47  C   -0.090808
    48  C   -0.056753
    49  C    0.021599
    50  C   -0.060492
    51  C   -0.005732
    52  C   -0.105877
    53  C   -0.069511
    54  C    0.116555
    55  C   -0.020599
    56  C    0.009432
    57  C   -0.107254
    58  C    0.013663
    59  C   -0.047774
    60  C   -0.022496
    61  C   -0.003376
    62  C   -0.073114
    63  C   -0.040398
    64  C   -0.088858
    65  H   -0.115186
    66  H   -0.033398
    67  H   -0.028195
    68  H    0.002386
    69  H    0.011997
    70  H    0.007375
    71  H    0.022386
    72  H    0.024714
    73  H    0.042567
    74  H    0.007680
    75  H   -0.002490
    76  H    0.048529
    77  H    0.062301
    78  H    0.036896
    79  H    0.051595
    80  H   -0.029320
    81  H    0.033267
    82  H    0.007595
    83  H    0.040895
    84  H    0.035841
    85  H    0.002386
    86  H   -0.012243
    87  H    0.011099
    88  H    0.009331
    89  H    0.031578
    90  H   -0.001563
    91  H    0.038027
    92  H    0.048523
    93  H    0.025109
    94  H    0.044979
    95  H   -0.033102
    96  H   -0.003611
    97  H    0.034060
    98  H    0.044567
    99  H    0.032661
   100  H    0.005191
   101  H    0.051874
   102  H    0.061969
   103  H    0.025612
   104  H    0.009340
   105  H    0.003702
   106  H    0.022663
   107  H    0.002819
   108  H    0.004616
   109  H   -0.000053
   110  H    0.019751
   111  H    0.047928
   112  H    0.037517
   113  H    0.023848
   114  H    0.005026
   115  H   -0.006945
   116  H    0.004836
   117  H    0.016584
   118  H    0.007593
   119  H   -0.024124
   120  H    0.015964
   121  H    0.019705
   122  H    0.039090
   123  H    0.020784
   124  H    0.025421
   125  H    0.008786
   126  H   -0.003306
   127  H    0.005235
   128  H    0.041542
   129  H    0.023844
   130  H    0.001444
   131  H    0.034179
   132  H    0.027740
   133  H    0.001732
   134  H    0.017946
   135  H    0.032264
   136  H    0.031450
   137  H    0.137485
   138  H    0.151415
 Sum of Mulliken charges =  -0.00000

 Dipole moment (field-independent basis, Debye):
    X=              1.0054    Y=              4.4413    Z=              0.2927  Tot=              4.5631
 Quadrupole moment (field-independent basis, Debye-Ang):
   XX=           -336.3246   YY=           -388.0644   ZZ=           -398.9867
   XY=            -40.3529   XZ=             11.8165   YZ=             -0.4356

 Normal termination of Gaussian 16 at Sat Aug 24 16:56:50 2019.
