 Gaussian 16, Revision A.03,
 Gaussian 16:  ES64L-G16RevA.03 25-Dec-2016

 --------------------------
 # td=(NStates=1) B3LYP/SVP
 --------------------------

 --
 TD
 --
 Symbolic Z-matrix:
 Charge =  0 Multiplicity = 1

                         Standard orientation:
 ---------------------------------------------------------------------
 Center     Atomic      Atomic             Coordinates (Angstroms)
 Number     Number       Type             X           Y           Z
 ---------------------------------------------------------------------
      1          6           0       -5.158857   -1.955253    0.420245
      2          6           0       -4.869760    2.624599    1.599877
      3          6           0       -9.382500    3.309631   -0.178638
      4          6           0       -9.739664   -1.386096   -1.143721
      5          7           0       -5.321439    0.360824    0.895685
      6          6           0       -4.607281   -0.757657    0.831995
      7          6           0       -3.141941   -0.618186    1.420401
      8          6           0       -3.167068    0.756916    1.994458
      9          6           0       -4.585931    1.258465    1.424772
     10          6           0       -3.154776    0.780238    3.516125
     11          6           0       -2.043022   -0.730167    0.245243
     12          6           0       -0.670763   -0.777044    0.718191
     13          6           0        0.332430   -0.934558   -0.477707
     14          8           0        0.003868   -1.121879   -1.657524
     15          8           0        1.576504   -0.809050   -0.028023
     16          7           0       -7.183663    2.752709    0.715423
     17          6           0       -6.056454    3.326129    1.140026
     18          6           0       -6.322118    4.709473    1.193156
     19          6           0       -7.573646    4.910708    0.709652
     20          6           0       -8.162395    3.670008    0.265682
     21          6           0       -5.319511    5.758291    1.745514
     22          6           0       -8.208552    6.223163    0.478151
     23          6           0       -9.008740    6.600806   -0.527098
     24          7           0       -9.108590    0.933658   -0.553921
     25          6           0       -9.849001    2.114462   -0.671865
     26          6           0      -11.236726    1.932933   -1.101926
     27          6           0      -11.399290    0.544737   -1.392108
     28          6           0      -10.073249    0.016382   -1.066727
     29          6           0      -12.232231    2.969578   -1.312184
     30          6           0      -12.545368   -0.178377   -1.954217
     31          6           0      -12.461776   -0.198582   -3.539494
     32          7           0       -7.387864   -1.254114   -0.396206
     33          6           0       -8.516707   -1.918584   -0.798580
     34          6           0       -8.174090   -3.392021   -0.695528
     35          6           0       -6.858482   -3.504473   -0.384888
     36          6           0       -6.447701   -2.129343   -0.132103
     37          6           0       -9.031974   -4.534275   -1.086609
     38          6           0       -5.754323   -4.336162   -0.116459
     39          8           0       -5.742338   -5.494414   -0.083092
     40          6           0       -4.611859   -3.459266    0.413914
     41          6           0       -3.871675   -3.829669    1.824530
     42          8           0       -4.145183   -3.453012    2.881572
     43          8           0       -3.117403   -4.893546    1.483557
     44          6           0       -2.601954   -5.693200    2.654013
     45          6           0        2.623732   -0.787731   -1.067812
     46          6           0        3.967831   -0.620024   -0.464914
     47          6           0        4.997561    0.075887   -1.003502
     48          6           0        4.967131    0.820719   -2.279591
     49          6           0        6.393387    0.220697   -0.193655
     50          6           0        7.498190   -0.464378   -0.790359
     51          6           0        8.901710   -0.171266   -0.085321
     52          6           0       10.134663   -0.750153   -0.642349
     53          6           0       10.143916   -2.290599   -0.872671
     54          6           0       11.309132   -0.317096    0.133089
     55          6           0       12.736554   -0.531095   -0.541821
     56          6           0       13.862541    0.042589    0.243031
     57          6           0       15.316987   -0.147852   -0.428329
     58          6           0       15.717117   -1.719727   -0.449682
     59          6           0       16.281211    0.660918    0.403610
     60          6           0       17.706881    0.652866   -0.332291
     61          6           0       18.683992    1.700781    0.351697
     62          6           0       20.183555    1.603504   -0.078801
     63          6           0       20.270429    2.186648   -1.473285
     64          6           0       21.004503    2.504439    0.873465
     65          1           0       -4.121145    3.252077    2.124195
     66          1           0      -10.069482    4.141904   -0.272384
     67          1           0      -10.437529   -2.182295   -1.264662
     68          1           0       -2.859717   -1.553175    2.030810
     69          1           0       -2.182329    1.271241    1.650610
     70          1           0       -2.001286    0.471801    4.034202
     71          1           0       -3.364306    1.553925    3.937000
     72          1           0       -3.875738    0.078448    3.923034
     73          1           0       -2.304480   -1.826230   -0.444699
     74          1           0       -2.212706    0.485260   -0.342642
     75          1           0       -0.445362    0.141790    1.412101
     76          1           0       -0.453569   -1.707629    1.334052
     77          1           0       -4.191211    5.389352    1.401532
     78          1           0       -5.617666    6.840281    1.496243
     79          1           0       -5.238355    5.551851    2.916738
     80          1           0       -8.026609    7.014165    1.310090
     81          1           0       -8.995184    6.076330   -1.508795
     82          1           0       -9.483579    7.506675   -0.392046
     83          1           0      -12.221234    3.691600   -0.456629
     84          1           0      -11.888927    3.710191   -2.064801
     85          1           0      -13.260899    2.639532   -1.604046
     86          1           0      -12.665212   -1.348902   -1.745364
     87          1           0      -13.583810    0.072558   -1.617558
     88          1           0      -12.332709    0.768076   -4.131344
     89          1           0      -11.591188   -0.845024   -3.987410
     90          1           0      -13.395848   -0.526322   -3.816142
     91          1           0       -9.970066   -4.748144   -0.490841
     92          1           0       -9.334963   -4.514514   -2.299897
     93          1           0       -8.378342   -5.460773   -1.020112
     94          1           0       -3.941561   -3.419107   -0.481490
     95          1           0       -1.802781   -6.393688    2.188473
     96          1           0       -2.089456   -4.781516    3.223987
     97          1           0       -3.383795   -6.108762    3.222095
     98          1           0        2.456035   -1.714560   -1.553135
     99          1           0        2.256347   -0.130594   -1.833249
    100          1           0        3.995980   -0.957898    0.596495
    101          1           0        5.141652    1.887931   -2.124836
    102          1           0        5.594495    0.356268   -3.140499
    103          1           0        4.018314    0.899237   -2.726662
    104          1           0        6.532429    1.172819    0.199449
    105          1           0        6.175011   -0.350887    0.764308
    106          1           0        7.678811   -1.764151   -0.885363
    107          1           0        7.727145   -0.087119   -1.863556
    108          1           0        8.943618    0.998228   -0.042034
    109          1           0        8.782248   -0.544894    0.964754
    110          1           0       10.242245   -0.443126   -1.669872
    111          1           0        9.324956   -2.668533   -1.522237
    112          1           0       10.989999   -2.774779   -1.211175
    113          1           0        9.956237   -2.686459    0.143052
    114          1           0       11.114458    0.925485    0.390691
    115          1           0       11.416735   -0.706627    1.382905
    116          1           0       12.920113   -1.535729   -0.623571
    117          1           0       12.701987   -0.052790   -1.526304
    118          1           0       13.834569    1.170702    0.257271
    119          1           0       13.829341   -0.496337    1.353993
    120          1           0       15.169442    0.043844   -1.600597
    121          1           0       15.082535   -2.186196   -1.158757
    122          1           0       16.817780   -1.904180   -0.832889
    123          1           0       15.787469   -1.990849    0.681130
    124          1           0       15.814083    1.687306    0.450998
    125          1           0       16.167963    0.271021    1.537462
    126          1           0       18.074977   -0.388772   -0.142744
    127          1           0       17.590121    0.745668   -1.524465
    128          1           0       18.208265    2.758214    0.200098
    129          1           0       18.700507    1.552610    1.435837
    130          1           0       20.402865    0.532162   -0.062375
    131          1           0       19.968261    3.200592   -1.590888
    132          1           0       21.247884    2.074119   -1.849314
    133          1           0       19.631496    1.633999   -2.368234
    134          1           0       20.845248    2.059343    1.891615
    135          1           0       22.134704    2.578298    0.806582
    136          1           0       20.367029    3.565788    0.819611
    137          1           0       -7.283496    1.810628    0.711391
    138          1           0       -7.395895   -0.213495   -0.297602
 ---------------------------------------------------------------------

 SCF Done:  E(RB3LYP) =  -2733.04715672     A.U. after   17 cycles

 Excitation energies and oscillator strengths:

 Excited State   1:      Singlet-A      2.1055 eV  588.86 nm  f=0.1370  <S**2>=0.000
     235 -> 237       -0.14044
     235 -> 238       -0.32401
     236 -> 237        0.59927
     236 -> 238       -0.10950
 This state for optimization and/or second-order correction.
 Total Energy, E(TD-HF/TD-DFT) =  -2732.96978075
 Copying the excited state density for this state as the 1-particle RhoCI density.

 The electronic state is 1-A.
 Alpha  occ. eigenvalues --  -19.18106 -19.17603 -19.14103 -19.12249 -19.11920
 Alpha  occ. eigenvalues --  -14.37049 -14.35654 -14.32028 -14.30296 -10.32199
 Alpha  occ. eigenvalues --  -10.31710 -10.27106 -10.26146 -10.24365 -10.23127
 Alpha  occ. eigenvalues --  -10.23085 -10.22950 -10.22820 -10.22758 -10.22694
 Alpha  occ. eigenvalues --  -10.22606 -10.22273 -10.21979 -10.21567 -10.21295
 Alpha  occ. eigenvalues --  -10.21289 -10.21155 -10.21058 -10.21028 -10.20873
 Alpha  occ. eigenvalues --  -10.20650 -10.20570 -10.20545 -10.20494 -10.20253
 Alpha  occ. eigenvalues --  -10.19981 -10.19943 -10.19719 -10.19716 -10.19694
 Alpha  occ. eigenvalues --  -10.19683 -10.19565 -10.19420 -10.19396 -10.19392
 Alpha  occ. eigenvalues --  -10.19276 -10.19198 -10.19190 -10.19077 -10.19015
 Alpha  occ. eigenvalues --  -10.19009 -10.18983 -10.18896 -10.18843 -10.18817
 Alpha  occ. eigenvalues --  -10.18752 -10.18737 -10.18685 -10.18642 -10.18476
 Alpha  occ. eigenvalues --  -10.17988 -10.17705 -10.17699 -10.17489  -1.10609
 Alpha  occ. eigenvalues --   -1.09151  -1.06020  -1.02413  -0.99428  -0.99381
 Alpha  occ. eigenvalues --   -0.98557  -0.96619  -0.91210  -0.84332  -0.82831
 Alpha  occ. eigenvalues --   -0.81776  -0.81683  -0.81143  -0.80961  -0.80521
 Alpha  occ. eigenvalues --   -0.80172  -0.79431  -0.78924  -0.78317  -0.77770
 Alpha  occ. eigenvalues --   -0.76613  -0.75778  -0.75255  -0.74863  -0.74620
 Alpha  occ. eigenvalues --   -0.73286  -0.72569  -0.72404  -0.70797  -0.70080
 Alpha  occ. eigenvalues --   -0.69531  -0.68966  -0.68495  -0.68239  -0.67136
 Alpha  occ. eigenvalues --   -0.66905  -0.66804  -0.66073  -0.65460  -0.65014
 Alpha  occ. eigenvalues --   -0.64002  -0.62904  -0.61728  -0.61577  -0.61217
 Alpha  occ. eigenvalues --   -0.60301  -0.58097  -0.57924  -0.57466  -0.57266
 Alpha  occ. eigenvalues --   -0.56138  -0.55740  -0.55602  -0.55272  -0.55207
 Alpha  occ. eigenvalues --   -0.55051  -0.54895  -0.53230  -0.53189  -0.52943
 Alpha  occ. eigenvalues --   -0.52898  -0.51716  -0.51512  -0.50658  -0.50158
 Alpha  occ. eigenvalues --   -0.49767  -0.49559  -0.49009  -0.48427  -0.48060
 Alpha  occ. eigenvalues --   -0.47965  -0.47688  -0.47445  -0.47050  -0.46744
 Alpha  occ. eigenvalues --   -0.46627  -0.46509  -0.46379  -0.46101  -0.45701
 Alpha  occ. eigenvalues --   -0.45390  -0.45151  -0.45094  -0.44836  -0.44481
 Alpha  occ. eigenvalues --   -0.44353  -0.44200  -0.43744  -0.43598  -0.43459
 Alpha  occ. eigenvalues --   -0.43434  -0.43037  -0.42816  -0.42612  -0.42445
 Alpha  occ. eigenvalues --   -0.42271  -0.41980  -0.41875  -0.41621  -0.41418
 Alpha  occ. eigenvalues --   -0.41224  -0.41093  -0.40801  -0.40409  -0.40106
 Alpha  occ. eigenvalues --   -0.40099  -0.39694  -0.39503  -0.39390  -0.39165
 Alpha  occ. eigenvalues --   -0.38971  -0.38611  -0.38579  -0.38322  -0.38208
 Alpha  occ. eigenvalues --   -0.38079  -0.37985  -0.37619  -0.37438  -0.37323
 Alpha  occ. eigenvalues --   -0.37222  -0.37019  -0.36959  -0.36629  -0.36376
 Alpha  occ. eigenvalues --   -0.36319  -0.36210  -0.36034  -0.35933  -0.35606
 Alpha  occ. eigenvalues --   -0.35392  -0.35239  -0.35075  -0.35038  -0.34716
 Alpha  occ. eigenvalues --   -0.34458  -0.34293  -0.34164  -0.33740  -0.33385
 Alpha  occ. eigenvalues --   -0.32919  -0.32711  -0.32291  -0.32237  -0.31977
 Alpha  occ. eigenvalues --   -0.31907  -0.31770  -0.31475  -0.31214  -0.30909
 Alpha  occ. eigenvalues --   -0.30808  -0.30399  -0.30226  -0.30128  -0.29928
 Alpha  occ. eigenvalues --   -0.29373  -0.29280  -0.29199  -0.28045  -0.27942
 Alpha  occ. eigenvalues --   -0.27888  -0.27635  -0.27210  -0.26924  -0.25967
 Alpha  occ. eigenvalues --   -0.25308  -0.25119  -0.23627  -0.21575  -0.19359
 Alpha  occ. eigenvalues --   -0.18688
 Alpha virt. eigenvalues --   -0.09641  -0.07484  -0.03949  -0.01461  -0.00661
 Alpha virt. eigenvalues --   -0.00238   0.00347   0.01284   0.02350   0.03130
 Alpha virt. eigenvalues --    0.03896   0.04079   0.04217   0.04513   0.04679

 Mulliken charges:
               1
     1  C    0.019961
     2  C   -0.085215
     3  C   -0.094982
     4  C   -0.050413
     5  N   -0.079040
     6  C   -0.077965
     7  C   -0.044205
     8  C   -0.056553
     9  C   -0.016753
    10  C    0.148392
    11  C   -0.118251
    12  C    0.028617
    13  C    0.192448
    14  O   -0.263099
    15  O   -0.316038
    16  N   -0.005777
    17  C    0.065677
    18  C   -0.114773
    19  C    0.042015
    20  C    0.101364
    21  C    0.009576
    22  C   -0.105134
    23  C    0.000965
    24  N   -0.304909
    25  C    0.116829
    26  C   -0.142605
    27  C   -0.012593
    28  C    0.093061
    29  C    0.101400
    30  C   -0.017709
    31  C   -0.009080
    32  N    0.031320
    33  C    0.039857
    34  C   -0.143828
    35  C    0.065993
    36  C   -0.028653
    37  C   -0.013052
    38  C    0.000158
    39  O   -0.106063
    40  C   -0.029368
    41  C    0.212646
    42  O   -0.152556
    43  O   -0.325043
    44  C    0.141414
    45  C    0.297598
    46  C   -0.056625
    47  C   -0.158218
    48  C    0.105742
    49  C    0.132040
    50  C   -0.061933
    51  C   -0.040723
    52  C    0.048838
    53  C    0.029133
    54  C   -0.115664
    55  C    0.124526
    56  C   -0.021607
    57  C   -0.166870
    58  C   -0.012580
    59  C    0.026606
    60  C   -0.003102
    61  C   -0.000308
    62  C   -0.059745
    63  C    0.040145
    64  C   -0.012630
    65  H   -0.018784
    66  H   -0.040340
    67  H   -0.039552
    68  H    0.023170
    69  H    0.016670
    70  H    0.011266
    71  H   -0.086420
    72  H    0.015750
    73  H    0.059388
    74  H    0.032508
    75  H    0.048110
    76  H    0.030094
    77  H    0.048371
    78  H    0.049374
    79  H    0.044458
    80  H    0.021306
    81  H    0.040763
    82  H    0.002477
    83  H    0.014478
    84  H    0.009887
    85  H    0.024529
    86  H    0.013707
    87  H    0.015727
    88  H    0.016814
    89  H    0.032429
    90  H   -0.010443
    91  H    0.046253
    92  H    0.052197
    93  H    0.045087
    94  H    0.053750
    95  H    0.067388
    96  H    0.051223
    97  H    0.049734
    98  H    0.003943
    99  H    0.008642
   100  H    0.012362
   101  H    0.016503
   102  H    0.045908
   103  H   -0.028701
   104  H   -0.005454
   105  H   -0.010724
   106  H    0.033077
   107  H    0.003720
   108  H    0.006702
   109  H   -0.003609
   110  H   -0.022240
   111  H    0.013850
   112  H   -0.007199
   113  H   -0.006083
   114  H    0.005705
   115  H    0.010451
   116  H   -0.024916
   117  H   -0.010678
   118  H    0.002719
   119  H    0.013291
   120  H    0.010267
   121  H    0.014213
   122  H    0.018418
   123  H    0.019602
   124  H   -0.002375
   125  H    0.020723
   126  H    0.008254
   127  H    0.032014
   128  H    0.006791
   129  H   -0.013190
   130  H   -0.005344
   131  H   -0.004485
   132  H   -0.012855
   133  H    0.003670
   134  H    0.007895
   135  H    0.029260
   136  H    0.029768
   137  H    0.084827
   138  H    0.161252
 Sum of Mulliken charges =  -0.00000

 Dipole moment (field-independent basis, Debye):
    X=              2.5239    Y=              2.1195    Z=              0.7138  Tot=              3.3722
 Quadrupole moment (field-independent basis, Debye-Ang):
   XX=           -346.2717   YY=           -379.8710   ZZ=           -394.0244
   XY=            -18.2108   XZ=              5.5874   YZ=             -2.8940

 Normal termination of Gaussian 16 at Sun Aug 25 01:14:09 2019.
