 Gaussian 16, Revision A.03,
 Gaussian 16:  ES64L-G16RevA.03 25-Dec-2016

 --------------------------
 # td=(NStates=1) B3LYP/SVP
 --------------------------

 --
 TD
 --
 Symbolic Z-matrix:
 Charge =  0 Multiplicity = 1

                         Standard orientation:
 ---------------------------------------------------------------------
 Center     Atomic      Atomic             Coordinates (Angstroms)
 Number     Number       Type             X           Y           Z
 ---------------------------------------------------------------------
      1          6           0       -5.106661   -2.016085    0.519672
      2          6           0       -4.750017    2.802791    1.547162
      3          6           0       -9.311015    3.368727   -0.207776
      4          6           0       -9.718079   -1.351103   -1.174551
      5          7           0       -5.212368    0.432483    0.765091
      6          6           0       -4.564599   -0.850092    0.847770
      7          6           0       -3.117730   -0.600990    1.247923
      8          6           0       -3.136024    0.834066    1.977645
      9          6           0       -4.385920    1.394551    1.375872
     10          6           0       -3.119530    0.741040    3.378036
     11          6           0       -2.056056   -0.672025    0.139338
     12          6           0       -0.713114   -0.662901    0.596287
     13          6           0        0.331306   -0.939631   -0.461846
     14          8           0        0.041782   -1.290540   -1.524077
     15          8           0        1.712035   -0.735819   -0.042303
     16          7           0       -7.052571    2.735021    0.557449
     17          6           0       -5.951945    3.292160    1.061002
     18          6           0       -6.283770    4.694941    1.083701
     19          6           0       -7.514369    5.008223    0.541219
     20          6           0       -8.061913    3.689293    0.201409
     21          6           0       -5.269199    5.725394    1.633172
     22          6           0       -8.057364    6.285674    0.287379
     23          6           0       -9.107681    6.691446   -0.520702
     24          7           0       -9.099236    0.862744   -0.529450
     25          6           0       -9.860717    2.055062   -0.516937
     26          6           0      -11.266341    1.853372   -0.895625
     27          6           0      -11.408926    0.582316   -1.260971
     28          6           0      -10.068776   -0.022416   -1.005494
     29          6           0      -12.208890    2.994371   -1.065992
     30          6           0      -12.513305   -0.113043   -1.854484
     31          6           0      -12.437031   -0.401549   -3.429953
     32          7           0       -7.478736   -1.234614   -0.227682
     33          6           0       -8.576649   -2.007343   -0.752710
     34          6           0       -8.174769   -3.382466   -0.770889
     35          6           0       -6.805325   -3.356399   -0.387964
     36          6           0       -6.491591   -2.133092   -0.020269
     37          6           0       -9.098938   -4.524183   -1.200825
     38          6           0       -5.706475   -4.287234   -0.053567
     39          8           0       -5.693029   -5.465370   -0.242033
     40          6           0       -4.528281   -3.424045    0.463753
     41          6           0       -4.029359   -3.882387    1.711449
     42          8           0       -4.255248   -3.483867    2.850168
     43          8           0       -3.255009   -4.897579    1.553417
     44          6           0       -2.778977   -5.565707    2.773244
     45          6           0        2.728174   -1.064964   -0.902284
     46          6           0        4.013539   -0.788950   -0.319060
     47          6           0        4.965945   -0.012022   -0.906855
     48          6           0        4.904608    0.737270   -2.251922
     49          6           0        6.341431    0.222971   -0.083398
     50          6           0        7.593751   -0.295266   -0.823341
     51          6           0        8.882526   -0.260746    0.115201
     52          6           0       10.132963   -0.721790   -0.728471
     53          6           0        9.986362   -2.238643   -0.900702
     54          6           0       11.303347   -0.244789   -0.065975
     55          6           0       12.690200   -0.344252   -0.695393
     56          6           0       13.839730    0.180059    0.159329
     57          6           0       15.239777   -0.065083   -0.587298
     58          6           0       15.531650   -1.588181   -0.789215
     59          6           0       16.295996    0.570691    0.391440
     60          6           0       17.751602    0.573426   -0.172812
     61          6           0       18.709115    1.429818    0.560810
     62          6           0       20.114004    1.561603   -0.044992
     63          6           0       20.138296    2.380793   -1.364609
     64          6           0       20.901352    2.140450    1.021401
     65          1           0       -3.985580    3.454010    1.993464
     66          1           0      -10.138174    3.993481   -0.390350
     67          1           0      -10.302358   -1.989901   -1.672234
     68          1           0       -2.778803   -1.306540    1.940914
     69          1           0       -2.242408    1.317328    1.565995
     70          1           0       -2.266440    0.198204    3.774270
     71          1           0       -3.027037    1.759270    3.886824
     72          1           0       -3.901707    0.081027    3.730013
     73          1           0       -2.175142   -1.766147   -0.326429
     74          1           0       -2.302529    0.066775   -0.542405
     75          1           0       -0.339635    0.128843    1.135967
     76          1           0       -0.305843   -1.498663    1.300118
     77          1           0       -4.197640    5.576534    1.262704
     78          1           0       -5.712013    6.780527    1.520416
     79          1           0       -5.233128    5.567553    2.857805
     80          1           0       -7.385557    7.195655    0.825117
     81          1           0       -9.752169    6.017024   -1.189821
     82          1           0       -9.238150    7.857187   -0.682139
     83          1           0      -12.049710    3.633788   -0.177630
     84          1           0      -12.086852    3.545939   -1.913372
     85          1           0      -13.104553    2.526031   -1.209740
     86          1           0      -12.471648   -1.136556   -1.271981
     87          1           0      -13.391565    0.589029   -1.764733
     88          1           0      -12.033767    0.435159   -4.031541
     89          1           0      -11.873243   -1.241036   -3.809479
     90          1           0      -13.372744   -0.819754   -3.817831
     91          1           0      -10.223099   -4.732073   -0.605591
     92          1           0       -9.688627   -4.200667   -2.119553
     93          1           0       -8.494615   -5.435650   -1.342423
     94          1           0       -3.742377   -3.547946   -0.391691
     95          1           0       -1.968803   -6.378333    2.518379
     96          1           0       -2.581401   -4.823331    3.510830
     97          1           0       -3.770955   -6.109973    3.104131
     98          1           0        2.705282   -1.983089   -1.276280
     99          1           0        2.716593   -0.546683   -1.879192
    100          1           0        3.985683   -1.136390    0.755981
    101          1           0        5.414964    1.812748   -1.938126
    102          1           0        5.399556    0.364327   -2.939399
    103          1           0        4.014592    0.808891   -2.616392
    104          1           0        6.555532    1.408801    0.005636
    105          1           0        6.079681   -0.263241    0.892117
    106          1           0        7.246196   -1.271745   -1.269016
    107          1           0        7.674757    0.128001   -1.572661
    108          1           0        9.091926    0.823769    0.556687
    109          1           0        8.706820   -1.237249    0.823101
    110          1           0        9.969736   -0.102453   -1.708325
    111          1           0        9.117965   -2.453228   -1.693557
    112          1           0       10.858896   -2.711629   -1.510818
    113          1           0       10.005275   -2.839156    0.039938
    114          1           0       11.093431    0.710227    0.411743
    115          1           0       11.269564   -0.999886    0.980725
    116          1           0       12.745157   -1.364270   -0.937744
    117          1           0       12.533144    0.226607   -1.588572
    118          1           0       13.572607    1.240897    0.665441
    119          1           0       13.918598   -0.665552    0.970149
    120          1           0       15.409084    0.456764   -1.603566
    121          1           0       14.874655   -1.978689   -1.447930
    122          1           0       16.609014   -1.583010   -1.202743
    123          1           0       15.486261   -2.146202    0.243964
    124          1           0       16.017309    1.699490    0.602226
    125          1           0       16.425064   -0.061765    1.417731
    126          1           0       18.142853   -0.287009   -0.404806
    127          1           0       17.619842    1.113078   -1.135738
    128          1           0       18.270585    2.441145    0.722153
    129          1           0       18.879734    0.898369    1.572248
    130          1           0       20.491381    0.551951   -0.238973
    131          1           0       19.711233    3.319293   -1.224762
    132          1           0       21.230600    2.405658   -1.736223
    133          1           0       19.500352    2.027119   -2.191105
    134          1           0       20.965604    1.679913    2.125047
    135          1           0       22.059646    2.259697    1.002250
    136          1           0       20.674575    3.358283    0.894557
    137          1           0       -7.303122    1.671686    0.607216
    138          1           0       -7.404231   -0.055068   -0.064217
 ---------------------------------------------------------------------

 SCF Done:  E(RB3LYP) =  -2732.95111312     A.U. after   16 cycles

 Excitation energies and oscillator strengths:

 Excited State   1:      Singlet-A      2.0806 eV  595.90 nm  f=0.1746  <S**2>=0.000
     235 -> 237       -0.17669
     235 -> 238        0.24825
     236 -> 237        0.61708
     236 -> 238        0.14854
 This state for optimization and/or second-order correction.
 Total Energy, E(TD-HF/TD-DFT) =  -2732.87465187
 Copying the excited state density for this state as the 1-particle RhoCI density.

 The electronic state is 1-A.
 Alpha  occ. eigenvalues --  -19.17443 -19.16190 -19.13601 -19.12285 -19.10699
 Alpha  occ. eigenvalues --  -14.37586 -14.36259 -14.32726 -14.31308 -10.31625
 Alpha  occ. eigenvalues --  -10.30444 -10.27831 -10.25574 -10.24407 -10.24216
 Alpha  occ. eigenvalues --  -10.23901 -10.22620 -10.22518 -10.22209 -10.22147
 Alpha  occ. eigenvalues --  -10.22080 -10.21954 -10.21841 -10.21735 -10.21666
 Alpha  occ. eigenvalues --  -10.21636 -10.21606 -10.21461 -10.21228 -10.20943
 Alpha  occ. eigenvalues --  -10.20899 -10.20534 -10.20359 -10.20246 -10.20164
 Alpha  occ. eigenvalues --  -10.20112 -10.20016 -10.19944 -10.19859 -10.19649
 Alpha  occ. eigenvalues --  -10.19631 -10.19597 -10.19564 -10.19541 -10.19462
 Alpha  occ. eigenvalues --  -10.19322 -10.19135 -10.19119 -10.19091 -10.18725
 Alpha  occ. eigenvalues --  -10.18695 -10.18605 -10.18557 -10.18279 -10.18268
 Alpha  occ. eigenvalues --  -10.18139 -10.18135 -10.18050 -10.17761 -10.17699
 Alpha  occ. eigenvalues --  -10.17582 -10.17124 -10.16489 -10.16121  -1.10918
 Alpha  occ. eigenvalues --   -1.09688  -1.03995  -1.02294  -0.98580  -0.98123
 Alpha  occ. eigenvalues --   -0.96695  -0.92597  -0.91634  -0.85057  -0.82781
 Alpha  occ. eigenvalues --   -0.82386  -0.82121  -0.81847  -0.81247  -0.80908
 Alpha  occ. eigenvalues --   -0.80773  -0.79799  -0.79358  -0.79232  -0.78594
 Alpha  occ. eigenvalues --   -0.77010  -0.76769  -0.75878  -0.75052  -0.74701
 Alpha  occ. eigenvalues --   -0.74010  -0.73679  -0.72869  -0.72152  -0.70819
 Alpha  occ. eigenvalues --   -0.70371  -0.69429  -0.69011  -0.67686  -0.67601
 Alpha  occ. eigenvalues --   -0.67326  -0.66698  -0.65872  -0.65723  -0.64904
 Alpha  occ. eigenvalues --   -0.64233  -0.63232  -0.63126  -0.62136  -0.61666
 Alpha  occ. eigenvalues --   -0.60491  -0.58987  -0.58559  -0.57708  -0.57246
 Alpha  occ. eigenvalues --   -0.56914  -0.56756  -0.55602  -0.55565  -0.54596
 Alpha  occ. eigenvalues --   -0.54311  -0.54128  -0.53643  -0.53618  -0.53333
 Alpha  occ. eigenvalues --   -0.52722  -0.52278  -0.51705  -0.51270  -0.51035
 Alpha  occ. eigenvalues --   -0.50178  -0.49466  -0.49109  -0.48824  -0.48366
 Alpha  occ. eigenvalues --   -0.48253  -0.47749  -0.47515  -0.47389  -0.47219
 Alpha  occ. eigenvalues --   -0.47112  -0.46650  -0.46539  -0.46367  -0.46139
 Alpha  occ. eigenvalues --   -0.45780  -0.45316  -0.45103  -0.44820  -0.44685
 Alpha  occ. eigenvalues --   -0.44462  -0.44268  -0.44196  -0.43990  -0.43898
 Alpha  occ. eigenvalues --   -0.43634  -0.43417  -0.43214  -0.43097  -0.42778
 Alpha  occ. eigenvalues --   -0.42767  -0.42572  -0.42560  -0.42493  -0.42338
 Alpha  occ. eigenvalues --   -0.41767  -0.41275  -0.41069  -0.40939  -0.40639
 Alpha  occ. eigenvalues --   -0.40045  -0.39982  -0.39715  -0.39495  -0.39449
 Alpha  occ. eigenvalues --   -0.39196  -0.39136  -0.38693  -0.38488  -0.38392
 Alpha  occ. eigenvalues --   -0.38056  -0.37937  -0.37718  -0.37520  -0.37291
 Alpha  occ. eigenvalues --   -0.37183  -0.36994  -0.36821  -0.36652  -0.36448
 Alpha  occ. eigenvalues --   -0.36414  -0.36024  -0.35794  -0.35747  -0.35701
 Alpha  occ. eigenvalues --   -0.35541  -0.35394  -0.35296  -0.35027  -0.34950
 Alpha  occ. eigenvalues --   -0.34683  -0.34228  -0.34035  -0.33843  -0.33676
 Alpha  occ. eigenvalues --   -0.33609  -0.33503  -0.33420  -0.32770  -0.32661
 Alpha  occ. eigenvalues --   -0.32077  -0.31844  -0.31426  -0.31271  -0.31213
 Alpha  occ. eigenvalues --   -0.30602  -0.30458  -0.29719  -0.29710  -0.29438
 Alpha  occ. eigenvalues --   -0.29292  -0.28892  -0.28558  -0.28456  -0.28043
 Alpha  occ. eigenvalues --   -0.27881  -0.27077  -0.27053  -0.25998  -0.25309
 Alpha  occ. eigenvalues --   -0.25081  -0.24083  -0.23738  -0.23612  -0.20188
 Alpha  occ. eigenvalues --   -0.19203
 Alpha virt. eigenvalues --   -0.10525  -0.07950  -0.03703  -0.02533  -0.00281
 Alpha virt. eigenvalues --    0.00622   0.00857   0.01158   0.01908   0.03186
 Alpha virt. eigenvalues --    0.03537   0.03990   0.04151   0.04493   0.04625

 Mulliken charges:
               1
     1  C    0.020019
     2  C   -0.122033
     3  C   -0.054143
     4  C   -0.043569
     5  N   -0.263107
     6  C   -0.043662
     7  C   -0.035350
     8  C   -0.026152
     9  C    0.010237
    10  C    0.128361
    11  C    0.137726
    12  C    0.057738
    13  C    0.139361
    14  O   -0.154976
    15  O   -0.370985
    16  N   -0.113034
    17  C    0.198434
    18  C   -0.165652
    19  C    0.106221
    20  C    0.176825
    21  C    0.018647
    22  C   -0.092613
    23  C   -0.097171
    24  N   -0.292600
    25  C   -0.000625
    26  C   -0.179764
    27  C   -0.037027
    28  C    0.121575
    29  C    0.211628
    30  C    0.024972
    31  C    0.004201
    32  N   -0.162400
    33  C    0.083600
    34  C   -0.096041
    35  C   -0.032367
    36  C    0.091227
    37  C    0.017439
    38  C    0.031860
    39  O   -0.139854
    40  C    0.004458
    41  C    0.165479
    42  O   -0.264681
    43  O   -0.269448
    44  C    0.151130
    45  C    0.374901
    46  C   -0.125246
    47  C   -0.173525
    48  C    0.227648
    49  C    0.018280
    50  C    0.157762
    51  C   -0.019447
    52  C   -0.079745
    53  C   -0.008491
    54  C   -0.034827
    55  C    0.150651
    56  C   -0.000459
    57  C   -0.110171
    58  C    0.033819
    59  C   -0.018362
    60  C    0.116223
    61  C   -0.011364
    62  C   -0.024803
    63  C    0.039468
    64  C   -0.058797
    65  H   -0.011316
    66  H   -0.078513
    67  H   -0.103749
    68  H   -0.047922
    69  H   -0.018148
    70  H   -0.008419
    71  H    0.014707
    72  H    0.018091
    73  H    0.026845
    74  H   -0.012217
    75  H   -0.010871
    76  H    0.034249
    77  H    0.053708
    78  H    0.025557
    79  H    0.042267
    80  H    0.034758
    81  H    0.052711
    82  H    0.049366
    83  H    0.035059
    84  H   -0.001353
    85  H   -0.034517
    86  H    0.036900
    87  H    0.013748
    88  H    0.023990
    89  H   -0.004042
    90  H    0.007158
    91  H    0.041648
    92  H    0.026962
    93  H    0.053911
    94  H    0.088555
    95  H    0.064136
    96  H    0.043669
    97  H    0.047033
    98  H   -0.044069
    99  H   -0.044334
   100  H    0.002111
   101  H    0.028728
   102  H   -0.046426
   103  H   -0.042104
   104  H    0.009019
   105  H    0.006321
   106  H   -0.003739
   107  H   -0.145968
   108  H    0.028386
   109  H    0.025951
   110  H   -0.007656
   111  H    0.028684
   112  H    0.008394
   113  H    0.029298
   114  H   -0.024180
   115  H   -0.031307
   116  H   -0.023433
   117  H   -0.026414
   118  H    0.029977
   119  H    0.005395
   120  H    0.007673
   121  H   -0.003499
   122  H    0.022861
   123  H    0.025829
   124  H    0.011799
   125  H    0.008385
   126  H   -0.054729
   127  H   -0.035774
   128  H   -0.010685
   129  H   -0.008350
   130  H   -0.015838
   131  H   -0.013196
   132  H    0.026864
   133  H    0.008466
   134  H    0.032893
   135  H   -0.002063
   136  H    0.009453
   137  H    0.181448
   138  H    0.244472
 Sum of Mulliken charges =  -0.00000

 Dipole moment (field-independent basis, Debye):
    X=              0.2436    Y=              3.5761    Z=             -0.9733  Tot=              3.7141
 Quadrupole moment (field-independent basis, Debye-Ang):
   XX=           -344.7082   YY=           -382.5215   ZZ=           -393.8329
   XY=            -29.7807   XZ=              7.5020   YZ=             -2.5811

 Normal termination of Gaussian 16 at Sat Aug 31 09:05:19 2019.
