 Gaussian 16, Revision A.03,
 Gaussian 16:  ES64L-G16RevA.03 25-Dec-2016

 --------------------------
 # td=(NStates=1) B3LYP/SVP
 --------------------------

 --
 TD
 --
 Symbolic Z-matrix:
 Charge =  0 Multiplicity = 1

                         Standard orientation:
 ---------------------------------------------------------------------
 Center     Atomic      Atomic             Coordinates (Angstroms)
 Number     Number       Type             X           Y           Z
 ---------------------------------------------------------------------
      1          6           0       -5.085308   -2.034709    0.432953
      2          6           0       -4.580019    2.745128    1.100244
      3          6           0       -9.325099    3.423363   -0.239788
      4          6           0       -9.867274   -1.375133   -0.950925
      5          7           0       -5.189879    0.398068    0.742416
      6          6           0       -4.460205   -0.766944    0.801037
      7          6           0       -2.996253   -0.675959    1.297478
      8          6           0       -3.017383    0.762546    1.897211
      9          6           0       -4.325070    1.406489    1.330418
     10          6           0       -3.053877    0.970440    3.381007
     11          6           0       -1.938960   -0.929676    0.102498
     12          6           0       -0.545151   -0.898655    0.566779
     13          6           0        0.376343   -1.253725   -0.599082
     14          8           0        0.106346   -1.562944   -1.765303
     15          8           0        1.697707   -1.172447   -0.247335
     16          7           0       -6.963885    2.744253    0.377155
     17          6           0       -5.814599    3.392806    0.841927
     18          6           0       -6.063080    4.829183    0.887557
     19          6           0       -7.408730    4.988579    0.522550
     20          6           0       -8.004792    3.672231    0.135701
     21          6           0       -5.133291    5.879129    1.436640
     22          6           0       -7.996087    6.304598    0.385597
     23          6           0       -8.968148    6.801124   -0.436454
     24          7           0       -9.229119    0.991961   -0.489333
     25          6           0       -9.793708    2.186475   -0.565902
     26          6           0      -11.278536    1.985880   -0.914483
     27          6           0      -11.359855    0.615994   -1.118379
     28          6           0      -10.068434    0.001899   -0.900266
     29          6           0      -12.362967    3.041525   -0.952829
     30          6           0      -12.660749   -0.118310   -1.470848
     31          6           0      -12.655474   -0.418057   -2.977709
     32          7           0       -7.535601   -1.239967   -0.245299
     33          6           0       -8.549175   -1.920052   -0.756434
     34          6           0       -8.218932   -3.392736   -0.559678
     35          6           0       -6.881906   -3.362840   -0.206328
     36          6           0       -6.435148   -2.048003    0.040044
     37          6           0       -8.969389   -4.604736   -0.924286
     38          6           0       -5.747462   -4.312214   -0.035827
     39          8           0       -5.754808   -5.502852   -0.240077
     40          6           0       -4.550628   -3.395190    0.495600
     41          6           0       -4.037369   -3.880165    1.841954
     42          8           0       -4.269436   -3.397932    2.913373
     43          8           0       -3.147997   -4.851622    1.631900
     44          6           0       -2.510203   -5.279033    2.831649
     45          6           0        2.681776   -1.222387   -1.212718
     46          6           0        3.962707   -0.872040   -0.663912
     47          6           0        4.911495   -0.001750   -1.010983
     48          6           0        4.807265    0.653806   -2.349900
     49          6           0        6.265184    0.202266   -0.318945
     50          6           0        7.456203   -0.458963   -0.962889
     51          6           0        8.764893   -0.345158   -0.199932
     52          6           0       10.127373   -0.791319   -0.936846
     53          6           0       10.187563   -2.211156   -1.235240
     54          6           0       11.263502   -0.285830   -0.041083
     55          6           0       12.654870   -0.596311   -0.599891
     56          6           0       13.876298    0.007834    0.197871
     57          6           0       15.162989   -0.248994   -0.313695
     58          6           0       15.571268   -1.748861   -0.488996
     59          6           0       16.256004    0.565099    0.412741
     60          6           0       17.622552    0.862200   -0.057782
     61          6           0       18.527000    1.671153    0.827686
     62          6           0       19.961594    1.744494    0.218007
     63          6           0       19.965555    2.395000   -1.263724
     64          6           0       20.816538    2.581212    1.181249
     65          1           0       -3.796815    3.486148    1.427314
     66          1           0       -9.939933    4.301720   -0.276185
     67          1           0      -10.712109   -1.997530   -1.135631
     68          1           0       -2.890807   -1.327568    1.940819
     69          1           0       -2.155664    1.357887    1.375829
     70          1           0       -2.088780    0.593443    3.890372
     71          1           0       -3.199550    2.114372    3.459472
     72          1           0       -4.000580    0.487180    3.850942
     73          1           0       -2.204730   -2.018697   -0.358694
     74          1           0       -2.031026   -0.186040   -0.792660
     75          1           0       -0.472370   -0.004467    1.116550
     76          1           0       -0.155037   -1.656294    1.185426
     77          1           0       -4.175433    5.934985    0.793389
     78          1           0       -5.639018    6.817772    1.373413
     79          1           0       -4.931200    5.672527    2.484467
     80          1           0       -7.502740    7.029191    1.066409
     81          1           0       -9.379909    6.310159   -1.247464
     82          1           0       -9.209170    7.878529   -0.200474
     83          1           0      -12.388404    3.651275    0.076746
     84          1           0      -12.230662    3.774397   -1.698556
     85          1           0      -13.429133    2.732564   -1.065673
     86          1           0      -12.768514   -1.045805   -1.156721
     87          1           0      -13.602008    0.496151   -1.328765
     88          1           0      -12.489778    0.404059   -3.677135
     89          1           0      -12.003132   -1.192941   -3.295737
     90          1           0      -13.663083   -0.888357   -3.238690
     91          1           0       -9.879586   -4.555542   -0.347256
     92          1           0       -9.480768   -4.483176   -1.929941
     93          1           0       -8.491346   -5.521684   -1.038463
     94          1           0       -3.953119   -3.844155   -0.284884
     95          1           0       -1.909387   -6.169547    2.377909
     96          1           0       -1.833655   -4.445705    3.354872
     97          1           0       -3.227760   -5.705134    3.635088
     98          1           0        2.811669   -2.387901   -1.678358
     99          1           0        2.235224   -0.593455   -1.970808
    100          1           0        4.189281   -1.378215    0.265739
    101          1           0        5.164589    1.684245   -2.217062
    102          1           0        5.488954    0.267510   -3.221393
    103          1           0        3.815186    0.937209   -3.042278
    104          1           0        6.297291    1.298502   -0.141114
    105          1           0        6.188267   -0.309200    0.597410
    106          1           0        6.999697   -1.423422   -1.080534
    107          1           0        7.620922    0.021741   -2.034723
    108          1           0        8.974213    0.750782    0.050410
    109          1           0        8.554346   -0.640147    0.778555
    110          1           0       10.301217   -0.239621   -1.757417
    111          1           0        9.227686   -2.618796   -1.748754
    112          1           0       11.081229   -2.570957   -1.605679
    113          1           0       10.111471   -2.701453   -0.071173
    114          1           0       11.122309    0.665589   -0.100628
    115          1           0       11.222401   -0.872120    0.944225
    116          1           0       12.708274   -1.839073   -0.761103
    117          1           0       12.325020   -0.024518   -1.519189
    118          1           0       13.645742    1.066158    0.502492
    119          1           0       13.681488   -0.553781    1.203581
    120          1           0       15.289560    0.145680   -1.385921
    121          1           0       14.621135   -2.040151   -1.091471
    122          1           0       16.582022   -1.879867   -1.084603
    123          1           0       15.550144   -2.187040    0.491647
    124          1           0       15.722977    1.578231    0.736425
    125          1           0       16.559225    0.121267    1.392478
    126          1           0       18.108984   -0.299130   -0.404676
    127          1           0       17.611464    1.465009   -1.223988
    128          1           0       17.873142    2.711785    1.051803
    129          1           0       18.794011    1.393909    1.850202
    130          1           0       20.436178    0.670977   -0.005758
    131          1           0       19.643021    3.558678   -1.282016
    132          1           0       21.057623    2.725120   -1.412059
    133          1           0       19.531590    1.842816   -2.141237
    134          1           0       21.223096    2.021444    2.113969
    135          1           0       21.844555    2.845145    0.746493
    136          1           0       20.382374    3.477392    1.405673
    137          1           0       -7.065629    1.672208    0.253997
    138          1           0       -7.656124   -0.169376   -0.178142
 ---------------------------------------------------------------------

 SCF Done:  E(RB3LYP) =  -2733.05917704     A.U. after   17 cycles

 Excitation energies and oscillator strengths:

 Excited State   1:      Singlet-A      1.9845 eV  624.77 nm  f=0.2089  <S**2>=0.000
     235 -> 237       -0.12632
     235 -> 238       -0.26823
     236 -> 237        0.63480
     236 -> 238       -0.10199
 This state for optimization and/or second-order correction.
 Total Energy, E(TD-HF/TD-DFT) =  -2732.98624941
 Copying the excited state density for this state as the 1-particle RhoCI density.

 The electronic state is 1-A.
 Alpha  occ. eigenvalues --  -19.18840 -19.17330 -19.13266 -19.13066 -19.12996
 Alpha  occ. eigenvalues --  -14.37577 -14.37464 -14.33321 -14.30016 -10.32494
 Alpha  occ. eigenvalues --  -10.31981 -10.28632 -10.26545 -10.25200 -10.24221
 Alpha  occ. eigenvalues --  -10.24196 -10.23930 -10.23835 -10.23504 -10.23449
 Alpha  occ. eigenvalues --  -10.21668 -10.21603 -10.21582 -10.21431 -10.21348
 Alpha  occ. eigenvalues --  -10.21338 -10.21225 -10.21061 -10.21022 -10.20720
 Alpha  occ. eigenvalues --  -10.20623 -10.20614 -10.20520 -10.20456 -10.20452
 Alpha  occ. eigenvalues --  -10.20356 -10.20217 -10.20148 -10.20014 -10.19967
 Alpha  occ. eigenvalues --  -10.19749 -10.19647 -10.19637 -10.19600 -10.19355
 Alpha  occ. eigenvalues --  -10.19343 -10.19336 -10.19248 -10.19113 -10.19041
 Alpha  occ. eigenvalues --  -10.18970 -10.18871 -10.18855 -10.18817 -10.18651
 Alpha  occ. eigenvalues --  -10.18427 -10.18396 -10.18390 -10.18297 -10.18291
 Alpha  occ. eigenvalues --  -10.18254 -10.18017 -10.17426 -10.17314  -1.11309
 Alpha  occ. eigenvalues --   -1.09834  -1.03845  -1.01964  -1.00118  -0.98752
 Alpha  occ. eigenvalues --   -0.95950  -0.93731  -0.92117  -0.85785  -0.83631
 Alpha  occ. eigenvalues --   -0.82863  -0.82163  -0.81647  -0.81402  -0.80917
 Alpha  occ. eigenvalues --   -0.79903  -0.79674  -0.79154  -0.78803  -0.78434
 Alpha  occ. eigenvalues --   -0.77648  -0.76545  -0.75703  -0.75134  -0.74400
 Alpha  occ. eigenvalues --   -0.73912  -0.73748  -0.72647  -0.72077  -0.70830
 Alpha  occ. eigenvalues --   -0.70561  -0.69514  -0.68504  -0.68025  -0.67416
 Alpha  occ. eigenvalues --   -0.67350  -0.66770  -0.66362  -0.66241  -0.65542
 Alpha  occ. eigenvalues --   -0.63831  -0.62601  -0.62183  -0.61919  -0.61220
 Alpha  occ. eigenvalues --   -0.61115  -0.58884  -0.58518  -0.58108  -0.57200
 Alpha  occ. eigenvalues --   -0.57055  -0.56189  -0.55937  -0.55304  -0.55248
 Alpha  occ. eigenvalues --   -0.55038  -0.54372  -0.54263  -0.53737  -0.53681
 Alpha  occ. eigenvalues --   -0.53124  -0.52788  -0.52290  -0.51362  -0.50778
 Alpha  occ. eigenvalues --   -0.49933  -0.49758  -0.49686  -0.49341  -0.48762
 Alpha  occ. eigenvalues --   -0.48548  -0.48275  -0.47593  -0.47455  -0.47068
 Alpha  occ. eigenvalues --   -0.47041  -0.46288  -0.46131  -0.46035  -0.45971
 Alpha  occ. eigenvalues --   -0.45616  -0.45507  -0.45096  -0.44875  -0.44825
 Alpha  occ. eigenvalues --   -0.44761  -0.44545  -0.44526  -0.44351  -0.44188
 Alpha  occ. eigenvalues --   -0.43885  -0.43585  -0.43147  -0.42930  -0.42717
 Alpha  occ. eigenvalues --   -0.42593  -0.42323  -0.41993  -0.41712  -0.41439
 Alpha  occ. eigenvalues --   -0.41397  -0.41255  -0.41161  -0.40791  -0.40480
 Alpha  occ. eigenvalues --   -0.40446  -0.40170  -0.39864  -0.39662  -0.39569
 Alpha  occ. eigenvalues --   -0.39465  -0.39128  -0.38775  -0.38673  -0.38518
 Alpha  occ. eigenvalues --   -0.38360  -0.38279  -0.38091  -0.37700  -0.37624
 Alpha  occ. eigenvalues --   -0.37595  -0.37279  -0.37152  -0.36887  -0.36765
 Alpha  occ. eigenvalues --   -0.36586  -0.36515  -0.36367  -0.36225  -0.36114
 Alpha  occ. eigenvalues --   -0.35682  -0.35474  -0.35343  -0.35081  -0.34738
 Alpha  occ. eigenvalues --   -0.34657  -0.34287  -0.34065  -0.33977  -0.33864
 Alpha  occ. eigenvalues --   -0.33809  -0.33072  -0.32727  -0.32689  -0.32329
 Alpha  occ. eigenvalues --   -0.32088  -0.32015  -0.31912  -0.31467  -0.31404
 Alpha  occ. eigenvalues --   -0.30893  -0.30761  -0.30269  -0.29938  -0.29896
 Alpha  occ. eigenvalues --   -0.29365  -0.29067  -0.28689  -0.28574  -0.28259
 Alpha  occ. eigenvalues --   -0.28061  -0.28027  -0.26892  -0.25744  -0.25523
 Alpha  occ. eigenvalues --   -0.25263  -0.24870  -0.23522  -0.22145  -0.20179
 Alpha  occ. eigenvalues --   -0.18448
 Alpha virt. eigenvalues --   -0.10313  -0.07695  -0.04387  -0.02273  -0.01152
 Alpha virt. eigenvalues --   -0.00297   0.00092   0.00216   0.01556   0.03493
 Alpha virt. eigenvalues --    0.03719   0.04172   0.04251   0.04537   0.04639

 Mulliken charges:
               1
     1  C   -0.022767
     2  C   -0.036246
     3  C   -0.087481
     4  C   -0.067449
     5  N   -0.232290
     6  C   -0.084255
     7  C    0.219766
     8  C   -0.097129
     9  C    0.005997
    10  C    0.058234
    11  C   -0.048513
    12  C    0.109645
    13  C    0.191356
    14  O   -0.248933
    15  O   -0.308899
    16  N   -0.143093
    17  C    0.074447
    18  C   -0.144070
    19  C    0.029621
    20  C    0.101047
    21  C    0.118776
    22  C   -0.087127
    23  C   -0.007800
    24  N   -0.234265
    25  C    0.101817
    26  C   -0.138243
    27  C   -0.109152
    28  C    0.093982
    29  C    0.078720
    30  C    0.177199
    31  C   -0.036409
    32  N   -0.064402
    33  C    0.064718
    34  C   -0.188963
    35  C   -0.021021
    36  C    0.163904
    37  C    0.154289
    38  C    0.032430
    39  O   -0.153477
    40  C   -0.025149
    41  C    0.202342
    42  O   -0.209230
    43  O   -0.274755
    44  C    0.102342
    45  C    0.280024
    46  C   -0.068701
    47  C   -0.138849
    48  C   -0.041886
    49  C    0.103256
    50  C    0.027439
    51  C    0.058895
    52  C   -0.006802
    53  C    0.023644
    54  C    0.090837
    55  C   -0.091414
    56  C    0.045515
    57  C   -0.013289
    58  C   -0.003496
    59  C    0.025536
    60  C   -0.082982
    61  C    0.024570
    62  C   -0.114238
    63  C   -0.046411
    64  C    0.032664
    65  H   -0.014140
    66  H   -0.034392
    67  H   -0.026550
    68  H   -0.137087
    69  H    0.017557
    70  H    0.031199
    71  H    0.023020
    72  H    0.044564
    73  H    0.044058
    74  H    0.042423
    75  H    0.014138
    76  H    0.011168
    77  H    0.042788
    78  H   -0.003684
    79  H    0.035651
    80  H    0.005643
    81  H    0.006514
    82  H    0.031408
    83  H    0.029242
    84  H    0.007674
    85  H    0.011252
    86  H   -0.052764
    87  H    0.008439
    88  H    0.011211
    89  H   -0.006141
    90  H   -0.003186
    91  H    0.007966
    92  H    0.010054
    93  H    0.025733
    94  H    0.048546
    95  H    0.050752
    96  H    0.053271
    97  H    0.054468
    98  H    0.035499
    99  H   -0.001573
   100  H   -0.026793
   101  H   -0.005414
   102  H    0.041522
   103  H    0.035043
   104  H    0.007543
   105  H   -0.030136
   106  H   -0.000744
   107  H    0.005830
   108  H   -0.019010
   109  H   -0.034917
   110  H   -0.052433
   111  H    0.029116
   112  H    0.005285
   113  H   -0.003666
   114  H   -0.063533
   115  H   -0.002801
   116  H    0.048126
   117  H   -0.009686
   118  H    0.001647
   119  H   -0.006815
   120  H   -0.009026
   121  H    0.023731
   122  H    0.042787
   123  H    0.004264
   124  H   -0.011428
   125  H   -0.014013
   126  H    0.005487
   127  H    0.014514
   128  H    0.019622
   129  H    0.000368
   130  H    0.028304
   131  H    0.004825
   132  H    0.001713
   133  H    0.049982
   134  H    0.023627
   135  H    0.001392
   136  H   -0.003492
   137  H    0.183822
   138  H    0.176805
 Sum of Mulliken charges =  -0.00000

 Dipole moment (field-independent basis, Debye):
    X=              2.4371    Y=              3.7169    Z=              1.9249  Tot=              4.8435
 Quadrupole moment (field-independent basis, Debye-Ang):
   XX=           -364.6483   YY=           -383.2273   ZZ=           -399.3011
   XY=            -11.7314   XZ=             12.7862   YZ=             -1.0038

 Normal termination of Gaussian 16 at Wed Aug 21 06:17:39 2019.
