 Gaussian 16, Revision A.03,
 Gaussian 16:  ES64L-G16RevA.03 25-Dec-2016

 --------------------------
 # td=(NStates=1) B3LYP/SVP
 --------------------------

 --
 TD
 --
 Symbolic Z-matrix:
 Charge =  0 Multiplicity = 1

                         Standard orientation:
 ---------------------------------------------------------------------
 Center     Atomic      Atomic             Coordinates (Angstroms)
 Number     Number       Type             X           Y           Z
 ---------------------------------------------------------------------
      1          6           0       -5.138964   -1.914324    0.490829
      2          6           0       -4.682315    2.745013    1.517180
      3          6           0       -9.216565    3.398660   -0.328537
      4          6           0       -9.864092   -1.407904   -1.035551
      5          7           0       -5.187510    0.434602    1.005579
      6          6           0       -4.481905   -0.684831    0.937017
      7          6           0       -3.063150   -0.655077    1.314324
      8          6           0       -3.071850    0.796086    1.894285
      9          6           0       -4.288610    1.358062    1.433397
     10          6           0       -2.899128    0.736292    3.415502
     11          6           0       -2.097309   -0.631770    0.086200
     12          6           0       -0.631129   -0.627715    0.416171
     13          6           0        0.333787   -1.043444   -0.693278
     14          8           0        0.014064   -1.430040   -1.794374
     15          8           0        1.686853   -0.991337   -0.258574
     16          7           0       -6.927010    2.743191    0.580934
     17          6           0       -5.861942    3.389243    1.145578
     18          6           0       -6.140898    4.768172    1.223279
     19          6           0       -7.479118    4.995564    0.678583
     20          6           0       -7.906903    3.596856    0.245942
     21          6           0       -5.113734    5.784953    1.641625
     22          6           0       -8.047672    6.353392    0.518919
     23          6           0       -8.955637    6.832704   -0.364101
     24          7           0       -9.101883    0.931910   -0.673363
     25          6           0       -9.761529    2.120198   -0.659912
     26          6           0      -11.094819    2.005906   -1.122078
     27          6           0      -11.338919    0.624401   -1.305618
     28          6           0      -10.095780    0.032892   -0.992214
     29          6           0      -12.105541    3.125728   -1.154281
     30          6           0      -12.500355    0.063383   -1.940290
     31          6           0      -12.446372   -0.288756   -3.397768
     32          7           0       -7.592077   -1.271610   -0.206430
     33          6           0       -8.660626   -2.028366   -0.666282
     34          6           0       -8.267977   -3.372310   -0.669003
     35          6           0       -6.869084   -3.432256   -0.318252
     36          6           0       -6.590489   -2.115754    0.113216
     37          6           0       -9.161775   -4.484314   -1.340752
     38          6           0       -5.794066   -4.275542    0.007546
     39          8           0       -5.835704   -5.524330   -0.003963
     40          6           0       -4.541397   -3.354527    0.493957
     41          6           0       -3.987738   -3.869990    1.878855
     42          8           0       -4.339401   -3.355483    2.966263
     43          8           0       -3.283703   -4.965067    1.724953
     44          6           0       -2.930872   -5.555296    2.944919
     45          6           0        2.698729   -1.280145   -1.220484
     46          6           0        4.004092   -0.975075   -0.627943
     47          6           0        4.926569   -0.090615   -0.998888
     48          6           0        4.768219    0.798126   -2.257894
     49          6           0        6.239020    0.012924   -0.253041
     50          6           0        7.431750   -0.488440   -1.089680
     51          6           0        8.710739   -0.319101   -0.311146
     52          6           0       10.024680   -0.979309   -0.817110
     53          6           0       10.129165   -2.486066   -0.855500
     54          6           0       11.243921   -0.429349   -0.078368
     55          6           0       12.658685   -0.678962   -0.604198
     56          6           0       13.703074    0.128902    0.165101
     57          6           0       15.192372    0.037291   -0.482436
     58          6           0       15.655471   -1.452356   -0.547502
     59          6           0       16.305132    0.793007    0.335491
     60          6           0       17.657210    0.939509   -0.225575
     61          6           0       18.627303    1.547716    0.759650
     62          6           0       20.003762    1.661567    0.096765
     63          6           0       20.199389    2.394138   -1.303254
     64          6           0       21.110523    2.127911    1.134382
     65          1           0       -3.930049    3.346529    1.937034
     66          1           0       -9.672255    4.383995   -0.431249
     67          1           0      -10.780400   -2.064123   -1.267718
     68          1           0       -2.668863   -1.353418    2.176380
     69          1           0       -2.299463    1.208675    1.568022
     70          1           0       -1.921672    0.207641    3.755601
     71          1           0       -3.081289    1.781449    3.994422
     72          1           0       -3.834851    0.161962    3.973900
     73          1           0       -2.328316   -1.574574   -0.482515
     74          1           0       -2.591775    0.243356   -0.746282
     75          1           0       -0.345398    0.400460    0.766018
     76          1           0       -0.354102   -1.385678    1.144369
     77          1           0       -4.307689    5.901715    0.851004
     78          1           0       -5.511889    6.753705    1.890114
     79          1           0       -4.408721    5.491503    2.518779
     80          1           0       -7.531698    7.085618    1.217731
     81          1           0       -9.299741    6.033764   -1.063748
     82          1           0       -9.155850    7.981089   -0.442358
     83          1           0      -12.167150    3.621022   -0.141944
     84          1           0      -11.820758    3.955681   -1.919129
     85          1           0      -13.085234    2.737735   -1.328899
     86          1           0      -12.793723   -0.989411   -1.428720
     87          1           0      -13.445175    0.678230   -1.713234
     88          1           0      -12.174699    0.675624   -3.849228
     89          1           0      -11.582709   -1.062462   -3.574527
     90          1           0      -13.311857   -0.838970   -3.509741
     91          1           0      -10.286339   -4.623888   -0.943953
     92          1           0       -9.310137   -4.603065   -2.536206
     93          1           0       -8.695664   -5.384706   -0.996704
     94          1           0       -3.673759   -3.547400   -0.152841
     95          1           0       -2.064205   -6.394461    2.677969
     96          1           0       -2.502245   -4.993310    3.777618
     97          1           0       -3.651151   -5.945456    3.472149
     98          1           0        2.529619   -2.302433   -1.573998
     99          1           0        2.586114   -0.754027   -2.188518
    100          1           0        4.220724   -1.555764    0.221454
    101          1           0        4.782881    1.962026   -2.010430
    102          1           0        5.783785    0.615544   -2.831674
    103          1           0        3.736341    0.657306   -2.862006
    104          1           0        6.476993    1.085071    0.004745
    105          1           0        6.137694   -0.713431    0.652972
    106          1           0        7.396039   -1.582406   -1.130346
    107          1           0        7.397841   -0.114900   -2.090795
    108          1           0        8.823924    0.769370   -0.297789
    109          1           0        8.541342   -0.717017    0.563805
    110          1           0       10.085143   -0.452767   -1.739097
    111          1           0        9.229569   -2.852159   -1.364899
    112          1           0       11.127679   -2.857252   -1.354300
    113          1           0        9.927360   -3.278067   -0.026299
    114          1           0       11.088870    0.612505    0.104119
    115          1           0       11.104010   -0.876050    0.897317
    116          1           0       12.830688   -1.747805   -0.452644
    117          1           0       12.444053   -0.344796   -1.686033
    118          1           0       13.334553    1.173949    0.292496
    119          1           0       13.698516   -0.115343    1.192117
    120          1           0       14.937343    0.527264   -1.475323
    121          1           0       14.963270   -1.905759   -1.186700
    122          1           0       16.533584   -1.554572   -0.972230
    123          1           0       15.792068   -1.957713    0.405092
    124          1           0       15.885844    1.949167    0.656626
    125          1           0       16.406935    0.431796    1.362187
    126          1           0       18.166520    0.028276   -0.661883
    127          1           0       17.531401    1.723944   -1.083412
    128          1           0       18.217553    2.609927    1.296539
    129          1           0       18.789394    0.998461    1.692190
    130          1           0       20.415264    0.563296   -0.122186
    131          1           0       19.652680    3.569000   -1.030797
    132          1           0       21.072435    2.720818   -1.578940
    133          1           0       19.402536    1.976486   -2.145979
    134          1           0       21.063561    1.628466    2.150148
    135          1           0       22.327013    1.990009    0.741655
    136          1           0       21.058307    3.389392    1.003826
    137          1           0       -6.841205    1.801482    0.406417
    138          1           0       -7.558911   -0.208739   -0.357688
 ---------------------------------------------------------------------

 SCF Done:  E(RB3LYP) =  -2733.05608194     A.U. after   17 cycles

 Excitation energies and oscillator strengths:

 Excited State   1:      Singlet-A      1.9824 eV  625.42 nm  f=0.0935  <S**2>=0.000
     235 -> 237        0.54408
     235 -> 238        0.13014
     236 -> 237       -0.24307
     236 -> 238        0.34812
 This state for optimization and/or second-order correction.
 Total Energy, E(TD-HF/TD-DFT) =  -2732.98323010
 Copying the excited state density for this state as the 1-particle RhoCI density.

 The electronic state is 1-A.
 Alpha  occ. eigenvalues --  -19.20167 -19.17258 -19.13711 -19.12241 -19.11655
 Alpha  occ. eigenvalues --  -14.37359 -14.36723 -14.33113 -14.29932 -10.32558
 Alpha  occ. eigenvalues --  -10.32184 -10.27737 -10.24966 -10.24539 -10.24110
 Alpha  occ. eigenvalues --  -10.24105 -10.23885 -10.23556 -10.23292 -10.23032
 Alpha  occ. eigenvalues --  -10.22296 -10.22224 -10.22203 -10.22186 -10.22110
 Alpha  occ. eigenvalues --  -10.21813 -10.21742 -10.21711 -10.21600 -10.21545
 Alpha  occ. eigenvalues --  -10.21375 -10.21337 -10.21325 -10.21323 -10.21208
 Alpha  occ. eigenvalues --  -10.20978 -10.20973 -10.20936 -10.20816 -10.20741
 Alpha  occ. eigenvalues --  -10.20531 -10.20370 -10.20333 -10.20132 -10.19794
 Alpha  occ. eigenvalues --  -10.19746 -10.19676 -10.19387 -10.19331 -10.19295
 Alpha  occ. eigenvalues --  -10.19158 -10.18963 -10.18830 -10.18700 -10.18620
 Alpha  occ. eigenvalues --  -10.18379 -10.18260 -10.18247 -10.18083 -10.17923
 Alpha  occ. eigenvalues --  -10.17910 -10.17173 -10.16676 -10.16138  -1.11929
 Alpha  occ. eigenvalues --   -1.08045  -1.00872  -1.00391  -0.99531  -0.99338
 Alpha  occ. eigenvalues --   -0.98276  -0.97001  -0.93696  -0.83424  -0.83284
 Alpha  occ. eigenvalues --   -0.82629  -0.81733  -0.81664  -0.81132  -0.81005
 Alpha  occ. eigenvalues --   -0.80129  -0.79403  -0.79095  -0.78920  -0.78166
 Alpha  occ. eigenvalues --   -0.77218  -0.76365  -0.76034  -0.75054  -0.74747
 Alpha  occ. eigenvalues --   -0.73670  -0.73350  -0.72749  -0.71811  -0.70721
 Alpha  occ. eigenvalues --   -0.69764  -0.69189  -0.68271  -0.67661  -0.67483
 Alpha  occ. eigenvalues --   -0.67300  -0.66848  -0.65954  -0.65653  -0.65120
 Alpha  occ. eigenvalues --   -0.64211  -0.63547  -0.62775  -0.62394  -0.61513
 Alpha  occ. eigenvalues --   -0.61172  -0.59652  -0.59239  -0.58733  -0.57557
 Alpha  occ. eigenvalues --   -0.57326  -0.57283  -0.56231  -0.56138  -0.55960
 Alpha  occ. eigenvalues --   -0.55530  -0.54739  -0.54043  -0.53895  -0.53652
 Alpha  occ. eigenvalues --   -0.52909  -0.52439  -0.51496  -0.50651  -0.50075
 Alpha  occ. eigenvalues --   -0.50056  -0.49902  -0.49484  -0.49333  -0.49122
 Alpha  occ. eigenvalues --   -0.48288  -0.48245  -0.48145  -0.47851  -0.47582
 Alpha  occ. eigenvalues --   -0.47100  -0.46935  -0.46236  -0.46030  -0.45753
 Alpha  occ. eigenvalues --   -0.45517  -0.45292  -0.45056  -0.44740  -0.44536
 Alpha  occ. eigenvalues --   -0.44415  -0.44372  -0.44204  -0.43770  -0.43579
 Alpha  occ. eigenvalues --   -0.43309  -0.43248  -0.42906  -0.42418  -0.42083
 Alpha  occ. eigenvalues --   -0.42029  -0.41739  -0.41639  -0.41386  -0.41007
 Alpha  occ. eigenvalues --   -0.40858  -0.40796  -0.40634  -0.40370  -0.40306
 Alpha  occ. eigenvalues --   -0.39944  -0.39820  -0.39781  -0.39573  -0.39377
 Alpha  occ. eigenvalues --   -0.39294  -0.38827  -0.38602  -0.38401  -0.38340
 Alpha  occ. eigenvalues --   -0.38221  -0.38067  -0.37869  -0.37645  -0.37568
 Alpha  occ. eigenvalues --   -0.37451  -0.37305  -0.37164  -0.37027  -0.36814
 Alpha  occ. eigenvalues --   -0.36615  -0.36536  -0.36399  -0.36350  -0.35934
 Alpha  occ. eigenvalues --   -0.35783  -0.35719  -0.35541  -0.35419  -0.35263
 Alpha  occ. eigenvalues --   -0.35191  -0.34615  -0.34398  -0.34213  -0.33846
 Alpha  occ. eigenvalues --   -0.33787  -0.33325  -0.32813  -0.32639  -0.32270
 Alpha  occ. eigenvalues --   -0.32254  -0.32098  -0.31919  -0.31560  -0.31320
 Alpha  occ. eigenvalues --   -0.30886  -0.30839  -0.30736  -0.29903  -0.29724
 Alpha  occ. eigenvalues --   -0.29658  -0.29374  -0.28682  -0.28382  -0.28362
 Alpha  occ. eigenvalues --   -0.28323  -0.27436  -0.27344  -0.26146  -0.25963
 Alpha  occ. eigenvalues --   -0.25271  -0.24624  -0.23914  -0.22052  -0.19600
 Alpha  occ. eigenvalues --   -0.19418
 Alpha virt. eigenvalues --   -0.10871  -0.08659  -0.05018  -0.02476  -0.00776
 Alpha virt. eigenvalues --   -0.00709  -0.00076   0.00133   0.01569   0.03553
 Alpha virt. eigenvalues --    0.03660   0.03821   0.03956   0.04543   0.04592

 Mulliken charges:
               1
     1  C    0.005641
     2  C   -0.042542
     3  C   -0.077599
     4  C   -0.091781
     5  N   -0.140374
     6  C   -0.003958
     7  C   -0.144789
     8  C    0.227430
     9  C   -0.052663
    10  C   -0.051360
    11  C   -0.025648
    12  C    0.084055
    13  C    0.176319
    14  O   -0.212874
    15  O   -0.361677
    16  N    0.044825
    17  C    0.095133
    18  C   -0.112551
    19  C   -0.018648
    20  C    0.036738
    21  C    0.064857
    22  C   -0.057804
    23  C   -0.048999
    24  N   -0.251703
    25  C    0.133302
    26  C   -0.166023
    27  C   -0.046911
    28  C    0.055452
    29  C    0.104668
    30  C   -0.054746
    31  C    0.080600
    32  N   -0.065361
    33  C    0.104805
    34  C   -0.096683
    35  C    0.010394
    36  C    0.046805
    37  C    0.001466
    38  C    0.070407
    39  O   -0.211210
    40  C   -0.033316
    41  C    0.178119
    42  O   -0.274876
    43  O   -0.225698
    44  C    0.218394
    45  C    0.309322
    46  C   -0.072303
    47  C   -0.095385
    48  C   -0.030393
    49  C    0.047203
    50  C    0.026956
    51  C    0.063272
    52  C    0.029552
    53  C   -0.017511
    54  C   -0.012467
    55  C    0.057342
    56  C    0.038754
    57  C   -0.054344
    58  C    0.140010
    59  C   -0.000974
    60  C    0.028134
    61  C    0.005756
    62  C   -0.112824
    63  C    0.002795
    64  C   -0.084159
    65  H   -0.067215
    66  H   -0.033806
    67  H    0.012203
    68  H    0.047369
    69  H   -0.114722
    70  H    0.042459
    71  H    0.027877
    72  H    0.045381
    73  H    0.020036
    74  H    0.048288
    75  H    0.049263
    76  H    0.033124
    77  H    0.034310
    78  H    0.012869
    79  H    0.028731
    80  H    0.010798
    81  H    0.038378
    82  H    0.056173
    83  H    0.028572
    84  H    0.029659
    85  H   -0.006562
    86  H   -0.005804
    87  H    0.010962
    88  H    0.022890
    89  H    0.011250
    90  H    0.001250
    91  H    0.032045
    92  H    0.059134
    93  H    0.027847
    94  H    0.041728
    95  H    0.044390
    96  H    0.014171
    97  H   -0.017086
    98  H    0.003472
    99  H   -0.013890
   100  H   -0.038996
   101  H    0.034020
   102  H    0.038569
   103  H    0.050412
   104  H    0.009766
   105  H    0.017083
   106  H   -0.018793
   107  H   -0.007551
   108  H   -0.014335
   109  H   -0.056432
   110  H   -0.035149
   111  H   -0.007026
   112  H    0.036583
   113  H    0.015774
   114  H   -0.035743
   115  H   -0.033930
   116  H    0.015016
   117  H    0.003110
   118  H   -0.017442
   119  H   -0.031593
   120  H    0.004271
   121  H   -0.009297
   122  H   -0.050511
   123  H    0.000786
   124  H   -0.007488
   125  H   -0.019596
   126  H    0.015777
   127  H    0.017765
   128  H    0.010216
   129  H   -0.008823
   130  H    0.015166
   131  H   -0.002854
   132  H   -0.016954
   133  H    0.051656
   134  H    0.040310
   135  H    0.022553
   136  H    0.024594
   137  H    0.092911
   138  H    0.182278
 Sum of Mulliken charges =  -0.00000

 Dipole moment (field-independent basis, Debye):
    X=              3.1129    Y=              4.2644    Z=              0.7100  Tot=              5.3272
 Quadrupole moment (field-independent basis, Debye-Ang):
   XX=           -375.9812   YY=           -385.6273   ZZ=           -398.6863
   XY=            -39.8399   XZ=             10.8061   YZ=             -3.8930

 Normal termination of Gaussian 16 at Mon Aug 19 08:31:42 2019.
