 Gaussian 16, Revision A.03,
 Gaussian 16:  ES64L-G16RevA.03 25-Dec-2016

 --------------------------
 # td=(NStates=1) B3LYP/SVP
 --------------------------

 --
 TD
 --
 Symbolic Z-matrix:
 Charge =  0 Multiplicity = 1

                         Standard orientation:
 ---------------------------------------------------------------------
 Center     Atomic      Atomic             Coordinates (Angstroms)
 Number     Number       Type             X           Y           Z
 ---------------------------------------------------------------------
      1          6           0       -5.159242   -2.057897    0.580006
      2          6           0       -4.646539    2.645301    1.610153
      3          6           0       -9.052165    3.403496   -0.234610
      4          6           0       -9.862807   -1.405264   -1.040813
      5          7           0       -5.145724    0.277705    0.940803
      6          6           0       -4.483676   -0.859296    0.977241
      7          6           0       -3.108020   -0.786370    1.426635
      8          6           0       -3.106197    0.696695    2.043335
      9          6           0       -4.357777    1.268426    1.543779
     10          6           0       -3.138189    0.630204    3.650366
     11          6           0       -2.078488   -0.882792    0.209110
     12          6           0       -0.589691   -0.860959    0.697582
     13          6           0        0.376521   -1.085848   -0.524679
     14          8           0       -0.041742   -1.433993   -1.632660
     15          8           0        1.606486   -0.852608   -0.153841
     16          7           0       -6.923357    2.762903    0.651042
     17          6           0       -5.867066    3.246410    1.212543
     18          6           0       -6.060061    4.734387    1.193244
     19          6           0       -7.311291    5.015780    0.654978
     20          6           0       -7.798958    3.730084    0.416493
     21          6           0       -5.122890    5.783839    1.804667
     22          6           0       -7.758387    6.346871    0.362390
     23          6           0       -8.881831    6.715328   -0.406201
     24          7           0       -9.107555    0.947164   -0.682902
     25          6           0       -9.710307    2.208148   -0.642021
     26          6           0      -11.101178    2.033755   -1.114727
     27          6           0      -11.271119    0.680041   -1.432087
     28          6           0       -9.997681    0.023856   -1.043343
     29          6           0      -12.052401    3.191679   -1.246605
     30          6           0      -12.543986    0.086159   -1.847383
     31          6           0      -12.473424   -0.169805   -3.366400
     32          7           0       -7.544208   -1.257197   -0.213053
     33          6           0       -8.660808   -2.010565   -0.679379
     34          6           0       -8.267026   -3.350152   -0.778252
     35          6           0       -6.938675   -3.392384   -0.240765
     36          6           0       -6.487796   -2.068303    0.059859
     37          6           0       -9.228815   -4.481868   -1.216811
     38          6           0       -5.807012   -4.283584   -0.078284
     39          8           0       -5.705629   -5.475838   -0.192435
     40          6           0       -4.510261   -3.435031    0.389794
     41          6           0       -4.056735   -3.961680    1.709309
     42          8           0       -4.227527   -3.634617    2.815118
     43          8           0       -3.189595   -4.932719    1.385725
     44          6           0       -2.562451   -5.647768    2.545714
     45          6           0        2.653068   -1.117240   -1.120729
     46          6           0        3.925962   -0.704294   -0.530100
     47          6           0        4.814893    0.036642   -1.141009
     48          6           0        4.640088    0.686419   -2.543498
     49          6           0        6.200492    0.378597   -0.438087
     50          6           0        7.407990   -0.222424   -1.142175
     51          6           0        8.707436   -0.102310   -0.206784
     52          6           0       10.062924   -0.638875   -0.863251
     53          6           0       10.008036   -2.272033   -0.785742
     54          6           0       11.227308   -0.086370    0.100696
     55          6           0       12.586387   -0.423534   -0.412885
     56          6           0       13.792160    0.296458    0.240109
     57          6           0       15.164336   -0.090857   -0.330025
     58          6           0       15.484232   -1.714809   -0.161648
     59          6           0       16.305472    0.695781    0.455183
     60          6           0       17.644138    0.620784   -0.231058
     61          6           0       18.623862    1.640471    0.498708
     62          6           0       19.969238    1.593271   -0.008145
     63          6           0       20.091430    1.883879   -1.431935
     64          6           0       20.931744    2.322647    0.838320
     65          1           0       -4.189834    3.535553    2.135649
     66          1           0       -9.626717    4.227055   -0.346761
     67          1           0      -10.581414   -2.079506   -1.418083
     68          1           0       -2.870333   -1.432898    2.183353
     69          1           0       -2.173271    1.144752    1.787020
     70          1           0       -2.315883   -0.120712    3.978023
     71          1           0       -3.325994    1.697704    4.041725
     72          1           0       -4.220146    0.145141    3.998022
     73          1           0       -2.472024   -1.694632   -0.406443
     74          1           0       -2.322119   -0.044480   -0.606087
     75          1           0       -0.182025    0.075966    1.245269
     76          1           0       -0.173981   -1.605442    1.350958
     77          1           0       -4.206074    5.740100    0.925813
     78          1           0       -5.479066    6.835107    1.671010
     79          1           0       -4.940861    5.591252    2.805890
     80          1           0       -7.065460    7.083923    0.856276
     81          1           0       -9.378782    5.979472   -1.098009
     82          1           0       -9.125765    7.867698   -0.490591
     83          1           0      -12.029650    3.838447   -0.422348
     84          1           0      -11.769396    3.855666   -1.980601
     85          1           0      -13.119449    2.779475   -1.450201
     86          1           0      -12.865767   -0.919307   -1.167895
     87          1           0      -13.533368    0.849625   -1.719171
     88          1           0      -12.055978    0.782084   -4.014368
     89          1           0      -11.654560   -0.989020   -3.503157
     90          1           0      -13.502776   -0.480635   -3.620042
     91          1           0      -10.109124   -4.717583   -0.505442
     92          1           0       -9.533708   -4.110099   -2.273888
     93          1           0       -8.628694   -5.296877   -1.582337
     94          1           0       -3.981511   -3.755628   -0.340897
     95          1           0       -1.793662   -6.166614    2.181094
     96          1           0       -2.201897   -4.852319    3.187507
     97          1           0       -3.358077   -6.213662    3.004895
     98          1           0        2.531114   -2.174985   -1.249805
     99          1           0        2.418481   -0.613461   -1.950268
    100          1           0        4.140671   -1.222785    0.377336
    101          1           0        4.930038    1.689310   -2.525396
    102          1           0        5.330983    0.213156   -3.321409
    103          1           0        3.653562    0.321223   -2.979732
    104          1           0        6.226912    1.395188   -0.335574
    105          1           0        6.221487    0.012005    0.603671
    106          1           0        7.139318   -1.382702   -0.908383
    107          1           0        7.268917    0.179721   -2.117932
    108          1           0        8.912585    1.164050   -0.170864
    109          1           0        8.334432   -0.549653    0.662936
    110          1           0       10.115999   -0.278652   -1.798419
    111          1           0        9.336386   -2.658635   -1.740288
    112          1           0       10.921840   -2.713766   -0.917170
    113          1           0        9.719877   -2.636419    0.297060
    114          1           0       11.164092    0.992286    0.182575
    115          1           0       11.099404   -0.571254    1.209444
    116          1           0       12.793037   -1.543913   -0.428175
    117          1           0       12.371932   -0.054430   -1.563396
    118          1           0       13.609843    1.432729    0.168700
    119          1           0       13.796214   -0.026154    1.162114
    120          1           0       15.212648    0.314910   -1.351159
    121          1           0       14.866271   -2.540361   -0.760893
    122          1           0       16.533814   -1.885827   -0.567011
    123          1           0       15.462774   -1.809985    0.974201
    124          1           0       15.954023    1.784678    0.298437
    125          1           0       16.578424    0.380588    1.392833
    126          1           0       18.211491   -0.270085   -0.213817
    127          1           0       17.676974    0.832771   -1.297010
    128          1           0       18.211023    2.661720    0.182196
    129          1           0       18.514052    1.500252    1.770272
    130          1           0       20.257190    0.431905    0.099927
    131          1           0       19.735753    2.997374   -1.705952
    132          1           0       21.124733    1.846860   -1.923077
    133          1           0       19.542888    0.964643   -1.944371
    134          1           0       20.928948    1.899271    1.962116
    135          1           0       22.017809    2.065044    0.498260
    136          1           0       20.635616    3.453617    0.599152
    137          1           0       -6.940280    1.714184    0.618911
    138          1           0       -7.652534   -0.238448   -0.227401
 ---------------------------------------------------------------------

 SCF Done:  E(RB3LYP) =  -2733.03010989     A.U. after   17 cycles

 Excitation energies and oscillator strengths:

 Excited State   1:      Singlet-A      2.0173 eV  614.61 nm  f=0.1599  <S**2>=0.000
     235 -> 238        0.31657
     236 -> 237        0.62809
 This state for optimization and/or second-order correction.
 Total Energy, E(TD-HF/TD-DFT) =  -2732.95597618
 Copying the excited state density for this state as the 1-particle RhoCI density.

 The electronic state is 1-A.
 Alpha  occ. eigenvalues --  -19.18114 -19.15393 -19.11610 -19.11581 -19.11494
 Alpha  occ. eigenvalues --  -14.37872 -14.36033 -14.32350 -14.29610 -10.31166
 Alpha  occ. eigenvalues --  -10.29720 -10.27090 -10.23730 -10.23682 -10.23589
 Alpha  occ. eigenvalues --  -10.23366 -10.23247 -10.22771 -10.22697 -10.22418
 Alpha  occ. eigenvalues --  -10.21771 -10.21654 -10.21648 -10.21636 -10.21532
 Alpha  occ. eigenvalues --  -10.21421 -10.21309 -10.21072 -10.21044 -10.20832
 Alpha  occ. eigenvalues --  -10.20788 -10.20729 -10.20723 -10.20533 -10.20423
 Alpha  occ. eigenvalues --  -10.20359 -10.20257 -10.20144 -10.20101 -10.20000
 Alpha  occ. eigenvalues --  -10.19955 -10.19882 -10.19822 -10.19804 -10.19742
 Alpha  occ. eigenvalues --  -10.19703 -10.19692 -10.19550 -10.19540 -10.19476
 Alpha  occ. eigenvalues --  -10.19210 -10.19116 -10.19034 -10.19026 -10.18946
 Alpha  occ. eigenvalues --  -10.18561 -10.18560 -10.18441 -10.18305 -10.18262
 Alpha  occ. eigenvalues --  -10.18059 -10.17937 -10.17552 -10.17359  -1.10214
 Alpha  occ. eigenvalues --   -1.09135  -1.02853  -1.01894  -0.99867  -0.99575
 Alpha  occ. eigenvalues --   -0.97035  -0.94811  -0.92492  -0.84062  -0.83102
 Alpha  occ. eigenvalues --   -0.83055  -0.82981  -0.80962  -0.80620  -0.79893
 Alpha  occ. eigenvalues --   -0.79635  -0.79283  -0.78809  -0.78662  -0.77892
 Alpha  occ. eigenvalues --   -0.76615  -0.75813  -0.75371  -0.74657  -0.74152
 Alpha  occ. eigenvalues --   -0.73241  -0.73019  -0.72226  -0.71091  -0.70914
 Alpha  occ. eigenvalues --   -0.69862  -0.68930  -0.68413  -0.67794  -0.67299
 Alpha  occ. eigenvalues --   -0.66968  -0.66452  -0.65910  -0.65752  -0.65613
 Alpha  occ. eigenvalues --   -0.64397  -0.63161  -0.62240  -0.61937  -0.61065
 Alpha  occ. eigenvalues --   -0.59651  -0.59153  -0.58861  -0.57786  -0.57666
 Alpha  occ. eigenvalues --   -0.57274  -0.57213  -0.56347  -0.55650  -0.55336
 Alpha  occ. eigenvalues --   -0.55319  -0.54776  -0.54006  -0.53662  -0.53211
 Alpha  occ. eigenvalues --   -0.52366  -0.52142  -0.51822  -0.51282  -0.50771
 Alpha  occ. eigenvalues --   -0.50201  -0.48729  -0.48523  -0.48421  -0.48201
 Alpha  occ. eigenvalues --   -0.47705  -0.47568  -0.47309  -0.47230  -0.46949
 Alpha  occ. eigenvalues --   -0.46893  -0.46406  -0.46243  -0.45957  -0.45529
 Alpha  occ. eigenvalues --   -0.45484  -0.45255  -0.45050  -0.44732  -0.44536
 Alpha  occ. eigenvalues --   -0.44288  -0.44267  -0.43915  -0.43656  -0.43567
 Alpha  occ. eigenvalues --   -0.43518  -0.43360  -0.43015  -0.42661  -0.42427
 Alpha  occ. eigenvalues --   -0.42322  -0.42149  -0.41808  -0.41732  -0.41338
 Alpha  occ. eigenvalues --   -0.41148  -0.41036  -0.40687  -0.40446  -0.40425
 Alpha  occ. eigenvalues --   -0.40185  -0.39932  -0.39751  -0.39348  -0.39010
 Alpha  occ. eigenvalues --   -0.38955  -0.38727  -0.38515  -0.38442  -0.38350
 Alpha  occ. eigenvalues --   -0.38313  -0.38302  -0.38112  -0.37884  -0.37543
 Alpha  occ. eigenvalues --   -0.37400  -0.37320  -0.37065  -0.36658  -0.36456
 Alpha  occ. eigenvalues --   -0.36308  -0.36274  -0.36133  -0.36102  -0.35939
 Alpha  occ. eigenvalues --   -0.35372  -0.35105  -0.35036  -0.34818  -0.34806
 Alpha  occ. eigenvalues --   -0.34416  -0.34241  -0.34041  -0.33978  -0.33803
 Alpha  occ. eigenvalues --   -0.33628  -0.33434  -0.33282  -0.33060  -0.32589
 Alpha  occ. eigenvalues --   -0.32075  -0.31762  -0.31256  -0.31103  -0.30930
 Alpha  occ. eigenvalues --   -0.30659  -0.30539  -0.30363  -0.30116  -0.29767
 Alpha  occ. eigenvalues --   -0.29639  -0.29091  -0.28359  -0.27874  -0.27680
 Alpha  occ. eigenvalues --   -0.27486  -0.27300  -0.26357  -0.25852  -0.25757
 Alpha  occ. eigenvalues --   -0.25409  -0.23979  -0.23510  -0.21864  -0.19485
 Alpha  occ. eigenvalues --   -0.18917
 Alpha virt. eigenvalues --   -0.10401  -0.07793  -0.04200  -0.02419   0.00055
 Alpha virt. eigenvalues --    0.00271   0.01438   0.02122   0.02825   0.03511
 Alpha virt. eigenvalues --    0.03658   0.03959   0.04119   0.04510   0.04874

 Mulliken charges:
               1
     1  C   -0.025854
     2  C   -0.030702
     3  C   -0.004844
     4  C   -0.059728
     5  N   -0.174065
     6  C   -0.070817
     7  C    0.033620
     8  C   -0.022832
     9  C    0.069383
    10  C   -0.022683
    11  C    0.061187
    12  C    0.034599
    13  C    0.151587
    14  O   -0.268532
    15  O   -0.301867
    16  N    0.068287
    17  C   -0.074269
    18  C   -0.182833
    19  C    0.075171
    20  C    0.025247
    21  C    0.048309
    22  C   -0.038034
    23  C   -0.074980
    24  N   -0.248428
    25  C    0.050357
    26  C   -0.136266
    27  C   -0.066478
    28  C    0.089389
    29  C    0.172214
    30  C   -0.081202
    31  C   -0.028468
    32  N   -0.072772
    33  C    0.076186
    34  C   -0.154906
    35  C   -0.015748
    36  C    0.129878
    37  C    0.099771
    38  C   -0.016146
    39  O   -0.156185
    40  C    0.073920
    41  C    0.184393
    42  O   -0.184510
    43  O   -0.345529
    44  C    0.254254
    45  C    0.383708
    46  C   -0.082302
    47  C   -0.136602
    48  C    0.075975
    49  C    0.085028
    50  C   -0.013776
    51  C    0.004330
    52  C    0.004683
    53  C   -0.006273
    54  C    0.021235
    55  C   -0.043086
    56  C    0.142118
    57  C   -0.071945
    58  C   -0.054157
    59  C    0.093219
    60  C    0.008839
    61  C   -0.040241
    62  C   -0.095472
    63  C   -0.032996
    64  C    0.005851
    65  H   -0.010769
    66  H   -0.103649
    67  H   -0.037665
    68  H   -0.031196
    69  H   -0.012199
    70  H    0.047783
    71  H    0.031757
    72  H    0.033917
    73  H    0.019915
    74  H    0.025225
    75  H    0.038332
    76  H    0.013634
    77  H    0.059246
    78  H    0.021784
    79  H    0.042247
    80  H   -0.002574
    81  H    0.057240
    82  H    0.048024
    83  H   -0.004321
    84  H   -0.013389
    85  H    0.016723
    86  H    0.037704
    87  H    0.025012
    88  H    0.044572
    89  H    0.024651
    90  H    0.021642
    91  H    0.073690
    92  H    0.021925
    93  H    0.019014
    94  H   -0.035878
    95  H   -0.000947
    96  H    0.021185
    97  H    0.035599
    98  H    0.005273
    99  H   -0.041410
   100  H   -0.025083
   101  H    0.015921
   102  H    0.030907
   103  H    0.021922
   104  H   -0.023393
   105  H   -0.020909
   106  H    0.016054
   107  H   -0.003667
   108  H    0.007457
   109  H   -0.006529
   110  H   -0.034803
   111  H    0.037405
   112  H   -0.011906
   113  H    0.024896
   114  H   -0.009918
   115  H   -0.000209
   116  H    0.015037
   117  H   -0.009448
   118  H    0.000987
   119  H   -0.061580
   120  H   -0.012603
   121  H    0.044115
   122  H    0.022174
   123  H    0.027133
   124  H    0.007701
   125  H   -0.023736
   126  H   -0.025743
   127  H   -0.011248
   128  H   -0.010391
   129  H    0.019609
   130  H   -0.012520
   131  H    0.020962
   132  H    0.015465
   133  H    0.031027
   134  H    0.026637
   135  H    0.015824
   136  H    0.019713
   137  H    0.171167
   138  H    0.132264
 Sum of Mulliken charges =  -0.00000

 Dipole moment (field-independent basis, Debye):
    X=              4.9678    Y=              4.0088    Z=              0.4822  Tot=              6.4017
 Quadrupole moment (field-independent basis, Debye-Ang):
   XX=           -354.2862   YY=           -383.2233   ZZ=           -395.4834
   XY=            -28.8489   XZ=              1.1263   YZ=             -2.4529

 Normal termination of Gaussian 16 at Sun Aug 25 13:36:19 2019.
