 Gaussian 16, Revision A.03,
 Gaussian 16:  ES64L-G16RevA.03 25-Dec-2016

 --------------------------
 # td=(NStates=1) B3LYP/SVP
 --------------------------

 --
 TD
 --
 Symbolic Z-matrix:
 Charge =  0 Multiplicity = 1

                         Standard orientation:
 ---------------------------------------------------------------------
 Center     Atomic      Atomic             Coordinates (Angstroms)
 Number     Number       Type             X           Y           Z
 ---------------------------------------------------------------------
      1          6           0       -5.272810   -1.919109    0.499869
      2          6           0       -4.568466    2.750169    1.558259
      3          6           0       -9.227843    3.285601   -0.254974
      4          6           0       -9.890935   -1.484455   -0.926464
      5          7           0       -5.165587    0.391800    0.899743
      6          6           0       -4.528776   -0.798429    0.844472
      7          6           0       -3.041675   -0.637064    1.334083
      8          6           0       -2.999861    0.783243    1.973777
      9          6           0       -4.361403    1.342738    1.418022
     10          6           0       -2.982729    0.727810    3.459405
     11          6           0       -2.032938   -0.721499    0.142349
     12          6           0       -0.618578   -0.894578    0.652768
     13          6           0        0.442093   -0.976249   -0.511953
     14          8           0        0.100749   -1.354900   -1.599951
     15          8           0        1.704668   -0.721681   -0.161269
     16          7           0       -7.032773    2.689134    0.526042
     17          6           0       -5.845066    3.294290    1.117906
     18          6           0       -6.267706    4.715767    1.072718
     19          6           0       -7.490070    4.880882    0.446786
     20          6           0       -7.955775    3.592245    0.155267
     21          6           0       -5.269220    5.726920    1.550549
     22          6           0       -8.123814    6.207430    0.291879
     23          6           0       -9.120858    6.581177   -0.470473
     24          7           0       -9.273714    0.788211   -0.507590
     25          6           0       -9.862531    2.114528   -0.619530
     26          6           0      -11.225044    1.904393   -1.061446
     27          6           0      -11.455335    0.549807   -1.275343
     28          6           0      -10.252298   -0.124781   -1.037247
     29          6           0      -12.313713    3.035675   -1.160710
     30          6           0      -12.583364   -0.054371   -1.862234
     31          6           0      -12.542342   -0.421897   -3.384662
     32          7           0       -7.635541   -1.207735   -0.168228
     33          6           0       -8.674508   -2.018775   -0.587630
     34          6           0       -8.186029   -3.312438   -0.755463
     35          6           0       -6.862076   -3.309402   -0.260277
     36          6           0       -6.601476   -1.955430    0.149612
     37          6           0       -8.921561   -4.461845   -1.273573
     38          6           0       -5.819231   -4.183719   -0.012729
     39          8           0       -5.796796   -5.413579   -0.085502
     40          6           0       -4.687200   -3.227933    0.438480
     41          6           0       -4.064237   -3.768421    1.792703
     42          8           0       -4.436938   -3.408560    2.909416
     43          8           0       -3.288883   -4.762639    1.533382
     44          6           0       -2.537063   -5.429736    2.656183
     45          6           0        2.742707   -0.933692   -1.084503
     46          6           0        4.026345   -0.707786   -0.456593
     47          6           0        4.981590   -0.027540   -0.951447
     48          6           0        4.900522    0.860073   -2.263580
     49          6           0        6.318961    0.101932   -0.244357
     50          6           0        7.560234   -0.436921   -0.863263
     51          6           0        8.861397   -0.318455   -0.074362
     52          6           0       10.060817   -0.749811   -0.737249
     53          6           0       10.045531   -2.241742   -1.105532
     54          6           0       11.334483   -0.292302    0.034448
     55          6           0       12.619666   -0.601247   -0.592989
     56          6           0       13.878028   -0.007998    0.224742
     57          6           0       15.172418   -0.176965   -0.496664
     58          6           0       15.705463   -1.629308   -0.640407
     59          6           0       16.286561    0.688184    0.326051
     60          6           0       17.752257    0.719432   -0.307552
     61          6           0       18.653235    1.671357    0.461016
     62          6           0       20.239008    1.675949    0.117643
     63          6           0       20.446119    2.149129   -1.319585
     64          6           0       20.949727    2.401116    1.134820
     65          1           0       -3.981404    3.342422    2.072878
     66          1           0       -9.661537    4.133793   -0.559599
     67          1           0      -10.643477   -2.170922   -1.234185
     68          1           0       -2.832094   -1.365924    2.072985
     69          1           0       -2.371740    1.508420    1.683526
     70          1           0       -2.159206    0.312727    3.832722
     71          1           0       -3.298974    1.674222    4.036376
     72          1           0       -3.763354   -0.173380    3.777590
     73          1           0       -2.278708   -1.536853   -0.558584
     74          1           0       -2.204736    0.066988   -0.482032
     75          1           0       -0.462754   -0.078435    1.390117
     76          1           0       -0.651555   -1.889452    1.207811
     77          1           0       -4.375200    5.882492    1.092689
     78          1           0       -5.851800    6.633629    1.637199
     79          1           0       -5.139381    5.408529    2.550750
     80          1           0       -7.822118    6.977472    0.971830
     81          1           0       -9.564357    5.825928   -1.216841
     82          1           0       -9.637136    7.561558   -0.420964
     83          1           0      -12.527908    3.345468    0.020499
     84          1           0      -11.809821    3.923728   -1.750695
     85          1           0      -13.288166    2.928680   -1.581373
     86          1           0      -12.729019   -0.902712   -1.216936
     87          1           0      -13.539622    0.505120   -1.679731
     88          1           0      -12.220969    0.650596   -4.041162
     89          1           0      -11.605205   -0.965162   -3.593316
     90          1           0      -13.293289   -0.963724   -3.853384
     91          1           0      -10.094737   -4.402232   -0.804897
     92          1           0       -9.418405   -4.256950   -2.257918
     93          1           0       -8.405464   -5.482958   -1.479511
     94          1           0       -3.880495   -3.317456   -0.406759
     95          1           0       -1.846162   -6.154225    2.273554
     96          1           0       -1.968946   -4.583271    3.191281
     97          1           0       -3.305024   -6.081199    3.388364
     98          1           0        2.539838   -2.010289   -1.399550
     99          1           0        2.672336   -0.202507   -1.924052
    100          1           0        4.205929   -1.274654    0.428429
    101          1           0        5.152688    1.932433   -1.973678
    102          1           0        5.543764    0.343904   -2.901765
    103          1           0        3.752842    0.830403   -2.667710
    104          1           0        6.410876    1.086275   -0.017092
    105          1           0        6.245903   -0.187531    0.886014
    106          1           0        7.369783   -1.538333   -0.904128
    107          1           0        7.791941   -0.008859   -1.845354
    108          1           0        8.699135    0.795878    0.292545
    109          1           0        8.794975   -0.959884    0.707005
    110          1           0        9.992907   -0.223992   -1.655343
    111          1           0        9.287301   -2.644923   -1.833867
    112          1           0       10.969379   -2.529974   -1.705676
    113          1           0       10.261631   -2.790457   -0.194089
    114          1           0       11.182428    0.879841    0.088558
    115          1           0       11.169352   -0.842897    0.844660
    116          1           0       12.698363   -1.650207   -0.786526
    117          1           0       12.732374   -0.062736   -1.500590
    118          1           0       13.692345    1.145888    0.426542
    119          1           0       14.183813   -0.465742    1.128437
    120          1           0       15.313226    0.270075   -1.597690
    121          1           0       14.641971   -2.287644   -0.846276
    122          1           0       16.450572   -1.771232   -1.319677
    123          1           0       16.061935   -2.098263    0.351126
    124          1           0       15.927031    1.622839    0.470214
    125          1           0       16.549634    0.447333    1.408014
    126          1           0       18.124950   -0.256753   -0.122517
    127          1           0       17.798210    0.874511   -1.530162
    128          1           0       18.293640    2.399941    0.392945
    129          1           0       18.624194    1.332552    1.651378
    130          1           0       20.356423    0.473830    0.213372
    131          1           0       19.951394    3.220244   -1.623639
    132          1           0       21.449128    2.163593   -1.422573
    133          1           0       20.095185    1.392149   -2.068102
    134          1           0       20.752082    2.202248    2.437413
    135          1           0       22.010798    2.210515    1.108160
    136          1           0       20.843574    3.508503    0.940888
    137          1           0       -7.207398    1.540471    0.616678
    138          1           0       -8.006554   -0.178170   -0.199075
 ---------------------------------------------------------------------

 SCF Done:  E(RB3LYP) =  -2732.94245365     A.U. after   17 cycles

 Excitation energies and oscillator strengths:

 Excited State   1:      Singlet-A      2.0607 eV  601.65 nm  f=0.1147  <S**2>=0.000
     235 -> 237       -0.16257
     235 -> 238        0.34054
     236 -> 237        0.58370
     236 -> 238        0.10534
 This state for optimization and/or second-order correction.
 Total Energy, E(TD-HF/TD-DFT) =  -2732.86672313
 Copying the excited state density for this state as the 1-particle RhoCI density.

 The electronic state is 1-A.
 Alpha  occ. eigenvalues --  -19.18678 -19.17744 -19.12228 -19.11337 -19.10789
 Alpha  occ. eigenvalues --  -14.37266 -14.35429 -14.32169 -14.30299 -10.31696
 Alpha  occ. eigenvalues --  -10.31282 -10.27301 -10.26040 -10.24596 -10.24547
 Alpha  occ. eigenvalues --  -10.23140 -10.22958 -10.22939 -10.22921 -10.22192
 Alpha  occ. eigenvalues --  -10.21788 -10.21231 -10.21188 -10.21082 -10.20971
 Alpha  occ. eigenvalues --  -10.20958 -10.20649 -10.20591 -10.20378 -10.20212
 Alpha  occ. eigenvalues --  -10.20138 -10.20122 -10.20045 -10.20014 -10.19984
 Alpha  occ. eigenvalues --  -10.19900 -10.19833 -10.19666 -10.19578 -10.19543
 Alpha  occ. eigenvalues --  -10.19426 -10.19223 -10.19050 -10.18953 -10.18882
 Alpha  occ. eigenvalues --  -10.18822 -10.18821 -10.18778 -10.18621 -10.18615
 Alpha  occ. eigenvalues --  -10.18534 -10.18532 -10.18423 -10.18375 -10.18168
 Alpha  occ. eigenvalues --  -10.17968 -10.17861 -10.17801 -10.17766 -10.17734
 Alpha  occ. eigenvalues --  -10.17644 -10.17422 -10.17343 -10.16260  -1.10335
 Alpha  occ. eigenvalues --   -1.09872  -1.01396  -1.00639  -0.99053  -0.98754
 Alpha  occ. eigenvalues --   -0.96516  -0.94085  -0.91017  -0.86264  -0.84128
 Alpha  occ. eigenvalues --   -0.82917  -0.81518  -0.81416  -0.81289  -0.81203
 Alpha  occ. eigenvalues --   -0.80395  -0.80157  -0.79568  -0.79325  -0.78147
 Alpha  occ. eigenvalues --   -0.77432  -0.76118  -0.75706  -0.75330  -0.74245
 Alpha  occ. eigenvalues --   -0.73933  -0.73363  -0.72463  -0.72120  -0.71243
 Alpha  occ. eigenvalues --   -0.69706  -0.69542  -0.68514  -0.68400  -0.67805
 Alpha  occ. eigenvalues --   -0.67499  -0.67272  -0.66849  -0.66571  -0.65908
 Alpha  occ. eigenvalues --   -0.64663  -0.63119  -0.62892  -0.62485  -0.61770
 Alpha  occ. eigenvalues --   -0.60864  -0.59493  -0.59156  -0.58838  -0.57687
 Alpha  occ. eigenvalues --   -0.57413  -0.56654  -0.56308  -0.56085  -0.55739
 Alpha  occ. eigenvalues --   -0.55259  -0.54212  -0.53917  -0.53571  -0.53379
 Alpha  occ. eigenvalues --   -0.52687  -0.52407  -0.51523  -0.51043  -0.50671
 Alpha  occ. eigenvalues --   -0.50405  -0.49754  -0.49213  -0.48625  -0.48351
 Alpha  occ. eigenvalues --   -0.48318  -0.47742  -0.47493  -0.47331  -0.47188
 Alpha  occ. eigenvalues --   -0.46556  -0.46448  -0.46342  -0.46241  -0.45842
 Alpha  occ. eigenvalues --   -0.45535  -0.45420  -0.45176  -0.45096  -0.44825
 Alpha  occ. eigenvalues --   -0.44788  -0.44621  -0.44392  -0.44254  -0.43976
 Alpha  occ. eigenvalues --   -0.43805  -0.43604  -0.43383  -0.43204  -0.43077
 Alpha  occ. eigenvalues --   -0.42612  -0.42371  -0.42235  -0.42061  -0.41581
 Alpha  occ. eigenvalues --   -0.41346  -0.41088  -0.40784  -0.40502  -0.40461
 Alpha  occ. eigenvalues --   -0.40396  -0.40304  -0.40016  -0.39585  -0.39474
 Alpha  occ. eigenvalues --   -0.39279  -0.39218  -0.38988  -0.38715  -0.38447
 Alpha  occ. eigenvalues --   -0.38205  -0.37978  -0.37836  -0.37673  -0.37495
 Alpha  occ. eigenvalues --   -0.37427  -0.36877  -0.36757  -0.36636  -0.36440
 Alpha  occ. eigenvalues --   -0.36393  -0.36138  -0.35816  -0.35671  -0.35536
 Alpha  occ. eigenvalues --   -0.35228  -0.35048  -0.34928  -0.34672  -0.34629
 Alpha  occ. eigenvalues --   -0.34562  -0.34454  -0.34299  -0.34081  -0.33634
 Alpha  occ. eigenvalues --   -0.33301  -0.32800  -0.32741  -0.32585  -0.32260
 Alpha  occ. eigenvalues --   -0.31933  -0.31853  -0.31722  -0.31701  -0.31556
 Alpha  occ. eigenvalues --   -0.31213  -0.31092  -0.30896  -0.30538  -0.30424
 Alpha  occ. eigenvalues --   -0.30117  -0.29304  -0.28283  -0.28012  -0.27450
 Alpha  occ. eigenvalues --   -0.27398  -0.27162  -0.26716  -0.26304  -0.25844
 Alpha  occ. eigenvalues --   -0.24943  -0.23990  -0.23906  -0.21972  -0.19669
 Alpha  occ. eigenvalues --   -0.19221
 Alpha virt. eigenvalues --   -0.10312  -0.08235  -0.04369  -0.01054   0.00115
 Alpha virt. eigenvalues --    0.00451   0.01175   0.01296   0.02152   0.03703
 Alpha virt. eigenvalues --    0.03768   0.04006   0.04159   0.04621   0.05040

 Mulliken charges:
               1
     1  C   -0.033103
     2  C    0.018699
     3  C    0.012215
     4  C   -0.060584
     5  N   -0.161155
     6  C   -0.075967
     7  C    0.013514
     8  C    0.019907
     9  C   -0.002330
    10  C    0.058796
    11  C    0.082601
    12  C    0.038963
    13  C    0.178704
    14  O   -0.229996
    15  O   -0.293264
    16  N   -0.180111
    17  C    0.107965
    18  C   -0.210857
    19  C    0.090040
    20  C    0.076021
    21  C    0.200839
    22  C   -0.022160
    23  C   -0.071728
    24  N   -0.391107
    25  C    0.124673
    26  C   -0.093551
    27  C   -0.063223
    28  C    0.075766
    29  C    0.020047
    30  C    0.084156
    31  C    0.001624
    32  N   -0.031385
    33  C    0.072839
    34  C   -0.079386
    35  C   -0.017592
    36  C    0.197105
    37  C    0.042990
    38  C    0.023928
    39  O   -0.193684
    40  C   -0.084587
    41  C    0.188780
    42  O   -0.258179
    43  O   -0.263333
    44  C    0.133173
    45  C    0.297993
    46  C   -0.083520
    47  C   -0.134581
    48  C    0.049198
    49  C    0.099286
    50  C    0.020418
    51  C    0.050101
    52  C   -0.040283
    53  C    0.005443
    54  C    0.085523
    55  C    0.105884
    56  C    0.028141
    57  C   -0.091619
    58  C    0.007000
    59  C    0.018969
    60  C    0.014927
    61  C    0.149786
    62  C   -0.113850
    63  C    0.056252
    64  C    0.001833
    65  H   -0.080244
    66  H   -0.131452
    67  H   -0.049707
    68  H   -0.020021
    69  H   -0.047646
    70  H   -0.023274
    71  H    0.027634
    72  H    0.032581
    73  H    0.007030
    74  H   -0.031153
    75  H    0.019445
    76  H    0.034734
    77  H    0.017721
    78  H   -0.017689
    79  H    0.001133
    80  H   -0.010382
    81  H    0.041758
    82  H    0.029626
    83  H    0.045441
    84  H    0.035991
    85  H    0.016482
    86  H   -0.010142
    87  H   -0.007399
    88  H    0.019589
    89  H    0.004175
    90  H    0.012919
    91  H    0.029244
    92  H    0.008540
    93  H    0.072748
    94  H    0.072614
    95  H    0.042914
    96  H    0.056913
    97  H    0.078284
    98  H    0.024965
    99  H   -0.000620
   100  H   -0.034650
   101  H    0.043044
   102  H    0.026939
   103  H    0.032457
   104  H   -0.045721
   105  H   -0.014345
   106  H   -0.001880
   107  H   -0.006547
   108  H   -0.000699
   109  H   -0.053506
   110  H   -0.049891
   111  H    0.031475
   112  H    0.005669
   113  H   -0.003912
   114  H    0.011135
   115  H   -0.050120
   116  H   -0.008066
   117  H   -0.025014
   118  H    0.012783
   119  H   -0.013584
   120  H    0.006330
   121  H    0.011327
   122  H    0.006964
   123  H    0.012555
   124  H   -0.044855
   125  H   -0.010992
   126  H   -0.019175
   127  H    0.012361
   128  H   -0.176753
   129  H    0.000492
   130  H    0.008036
   131  H    0.031341
   132  H   -0.021148
   133  H    0.016748
   134  H    0.026042
   135  H    0.003781
   136  H    0.013809
   137  H    0.222222
   138  H    0.169628
 Sum of Mulliken charges =  -0.00000

 Dipole moment (field-independent basis, Debye):
    X=              4.0552    Y=              3.7072    Z=              0.4198  Tot=              5.5104
 Quadrupole moment (field-independent basis, Debye-Ang):
   XX=           -345.7481   YY=           -380.4210   ZZ=           -395.9081
   XY=            -23.5784   XZ=              7.8859   YZ=              1.1023

 Normal termination of Gaussian 16 at Tue Aug 20 17:46:54 2019.
