 Gaussian 16, Revision A.03,
 Gaussian 16:  ES64L-G16RevA.03 25-Dec-2016

 --------------------------
 # td=(NStates=1) B3LYP/SVP
 --------------------------

 --
 TD
 --
 Symbolic Z-matrix:
 Charge =  0 Multiplicity = 1

                         Standard orientation:
 ---------------------------------------------------------------------
 Center     Atomic      Atomic             Coordinates (Angstroms)
 Number     Number       Type             X           Y           Z
 ---------------------------------------------------------------------
      1          6           0       -5.067831   -1.895497    0.356104
      2          6           0       -4.796624    2.700782    1.530633
      3          6           0       -9.283407    3.343642   -0.284646
      4          6           0       -9.855002   -1.433763   -1.021896
      5          7           0       -5.344484    0.315365    1.070954
      6          6           0       -4.542262   -0.719665    0.794139
      7          6           0       -3.078639   -0.534527    1.211125
      8          6           0       -3.153744    0.873150    1.975423
      9          6           0       -4.449549    1.347740    1.432754
     10          6           0       -3.235687    0.789798    3.488875
     11          6           0       -2.082659   -0.600133    0.144312
     12          6           0       -0.592778   -0.655156    0.669415
     13          6           0        0.318976   -0.920437   -0.495620
     14          8           0        0.019312   -1.169842   -1.627480
     15          8           0        1.608818   -0.811545   -0.116806
     16          7           0       -7.079776    2.702609    0.578761
     17          6           0       -5.992759    3.357215    1.183182
     18          6           0       -6.331095    4.762719    1.200779
     19          6           0       -7.545045    4.954376    0.572137
     20          6           0       -8.048781    3.586267    0.195829
     21          6           0       -5.278442    5.838507    1.566301
     22          6           0       -8.241469    6.261609    0.285441
     23          6           0       -9.078620    6.409541   -0.670583
     24          7           0       -9.179190    0.801574   -0.590235
     25          6           0       -9.904304    2.051532   -0.536611
     26          6           0      -11.203185    1.965621   -1.043278
     27          6           0      -11.368311    0.523320   -1.200374
     28          6           0      -10.061713   -0.050126   -0.931395
     29          6           0      -12.196785    2.929020   -1.093326
     30          6           0      -12.458649   -0.196714   -1.763016
     31          6           0      -12.721277   -0.520678   -3.235978
     32          7           0       -7.476790   -1.257566   -0.362670
     33          6           0       -8.663260   -2.022484   -0.619495
     34          6           0       -8.176521   -3.355623   -0.543591
     35          6           0       -6.870239   -3.333295   -0.189224
     36          6           0       -6.428335   -1.991679   -0.137802
     37          6           0       -9.081685   -4.516023   -1.003575
     38          6           0       -5.844142   -4.264057    0.033378
     39          8           0       -5.715179   -5.451038   -0.121277
     40          6           0       -4.522138   -3.409826    0.388419
     41          6           0       -3.928294   -3.831019    1.699533
     42          8           0       -4.146836   -3.407212    2.808853
     43          8           0       -3.197138   -4.940850    1.462584
     44          6           0       -2.600709   -5.703705    2.519220
     45          6           0        2.687782   -1.014958   -1.043507
     46          6           0        4.024793   -0.624204   -0.453714
     47          6           0        4.916814    0.151841   -1.081186
     48          6           0        4.801533    0.803720   -2.492585
     49          6           0        6.293129    0.443075   -0.303150
     50          6           0        7.515418   -0.294391   -0.975805
     51          6           0        8.825518   -0.195706   -0.189984
     52          6           0       10.177568   -0.695793   -0.796357
     53          6           0       10.064372   -2.176011   -1.167034
     54          6           0       11.402605   -0.363146    0.005362
     55          6           0       12.799122   -0.522793   -0.668975
     56          6           0       13.946760   -0.038379    0.371058
     57          6           0       15.295650   -0.151898   -0.314029
     58          6           0       15.676634   -1.682567   -0.392347
     59          6           0       16.351468    0.662163    0.429523
     60          6           0       17.770605    0.672187   -0.155883
     61          6           0       18.715835    1.659047    0.628458
     62          6           0       20.183084    1.549148    0.120927
     63          6           0       20.369213    2.030312   -1.315626
     64          6           0       21.255416    2.254255    0.980396
     65          1           0       -4.052811    3.363626    1.899408
     66          1           0       -9.961668    4.082724   -0.360417
     67          1           0      -10.830663   -2.171393   -1.340382
     68          1           0       -2.909554   -1.480464    1.937811
     69          1           0       -2.511680    1.569339    1.631735
     70          1           0       -2.156644    0.490509    4.131335
     71          1           0       -3.702277    1.868717    3.900816
     72          1           0       -3.998006   -0.071556    3.895547
     73          1           0       -2.196390   -1.623916   -0.508585
     74          1           0       -2.439822    0.195222   -0.738955
     75          1           0       -0.361025    0.341363    1.093354
     76          1           0       -0.558263   -1.474145    1.625896
     77          1           0       -4.526082    6.094188    0.663739
     78          1           0       -5.965825    6.665960    1.848959
     79          1           0       -4.889413    5.480622    2.687697
     80          1           0       -7.752109    7.028752    0.911766
     81          1           0       -9.438833    5.757030   -1.443423
     82          1           0       -9.436284    7.535092   -0.993351
     83          1           0      -12.177346    3.489168   -0.221919
     84          1           0      -12.069184    3.689525   -1.940331
     85          1           0      -13.230932    2.515344   -1.309238
     86          1           0      -12.847348   -1.100962   -1.230012
     87          1           0      -13.495702    0.384334   -1.670420
     88          1           0      -12.791861    0.470831   -3.630239
     89          1           0      -11.924957   -1.205011   -3.672996
     90          1           0      -13.952113   -0.811965   -3.352890
     91          1           0      -10.066173   -4.512175   -0.264246
     92          1           0       -9.258484   -4.569540   -2.051123
     93          1           0       -8.563549   -5.387097   -0.865595
     94          1           0       -3.910624   -3.331647   -0.528572
     95          1           0       -2.066005   -6.642072    2.126769
     96          1           0       -2.131150   -4.967461    3.390798
     97          1           0       -3.539137   -6.059829    3.012984
     98          1           0        2.718773   -2.044066   -1.299835
     99          1           0        2.506708   -0.472506   -1.801993
    100          1           0        4.023548   -0.903104    0.525365
    101          1           0        4.826005    1.861498   -2.330984
    102          1           0        5.539406    0.547976   -3.149205
    103          1           0        3.799444    0.491669   -2.849142
    104          1           0        6.373478    1.518381   -0.317452
    105          1           0        6.100419    0.057379    0.830578
    106          1           0        7.138812   -1.446846   -0.782870
    107          1           0        7.573869   -0.072367   -2.088498
    108          1           0        8.916655    0.915261    0.045260
    109          1           0        8.791268   -0.635497    0.790816
    110          1           0       10.261703   -0.073769   -1.823780
    111          1           0        9.326263   -2.394697   -2.055815
    112          1           0       10.817719   -2.457429   -1.849509
    113          1           0        9.802777   -2.764175   -0.200138
    114          1           0       11.222411    0.685682    0.240225
    115          1           0       11.479430   -0.976649    0.889123
    116          1           0       13.026796   -1.711531   -0.908097
    117          1           0       12.677881   -0.054323   -1.532899
    118          1           0       13.709562    1.036691    0.620423
    119          1           0       13.996887   -0.567321    1.279977
    120          1           0       15.246424    0.223594   -1.615756
    121          1           0       14.722341   -2.294455   -0.584267
    122          1           0       16.622182   -1.842745   -1.088511
    123          1           0       15.798992   -1.910422    0.661069
    124          1           0       16.083736    1.721655    0.688567
    125          1           0       16.527111    0.187686    1.509993
    126          1           0       18.369915   -0.297382   -0.084671
    127          1           0       17.569068    0.939363   -1.274337
    128          1           0       18.297558    2.635714    0.532256
    129          1           0       18.693391    1.348513    1.796463
    130          1           0       20.801253    0.588784   -0.221098
    131          1           0       20.102166    3.107856   -1.291089
    132          1           0       21.520495    1.928940   -1.913560
    133          1           0       19.711868    1.355765   -1.943017
    134          1           0       21.239310    2.237099    2.086114
    135          1           0       22.237222    2.073876    0.706330
    136          1           0       21.104730    3.390043    0.860323
    137          1           0       -7.213272    1.707800    0.483798
    138          1           0       -7.592663   -0.183031   -0.273485
 ---------------------------------------------------------------------

 SCF Done:  E(RB3LYP) =  -2732.99040046     A.U. after   17 cycles

 Excitation energies and oscillator strengths:

 Excited State   1:      Singlet-A      1.9694 eV  629.56 nm  f=0.1004  <S**2>=0.000
     235 -> 238       -0.32486
     236 -> 237        0.62130
 This state for optimization and/or second-order correction.
 Total Energy, E(TD-HF/TD-DFT) =  -2732.91802671
 Copying the excited state density for this state as the 1-particle RhoCI density.

 The electronic state is 1-A.
 Alpha  occ. eigenvalues --  -19.16901 -19.16616 -19.12380 -19.12242 -19.12112
 Alpha  occ. eigenvalues --  -14.37082 -14.36513 -14.32292 -14.29608 -10.31596
 Alpha  occ. eigenvalues --  -10.31466 -10.27412 -10.25913 -10.24479 -10.23409
 Alpha  occ. eigenvalues --  -10.23218 -10.23021 -10.22991 -10.22737 -10.22641
 Alpha  occ. eigenvalues --  -10.22397 -10.22394 -10.22294 -10.21658 -10.21364
 Alpha  occ. eigenvalues --  -10.21213 -10.21195 -10.21146 -10.21109 -10.21107
 Alpha  occ. eigenvalues --  -10.21070 -10.20802 -10.20762 -10.20600 -10.20598
 Alpha  occ. eigenvalues --  -10.20467 -10.20399 -10.20274 -10.20157 -10.19971
 Alpha  occ. eigenvalues --  -10.19868 -10.19842 -10.19787 -10.19709 -10.19545
 Alpha  occ. eigenvalues --  -10.19511 -10.19381 -10.19333 -10.19297 -10.19169
 Alpha  occ. eigenvalues --  -10.19110 -10.19039 -10.19029 -10.18930 -10.18916
 Alpha  occ. eigenvalues --  -10.18667 -10.18576 -10.18439 -10.18228 -10.18146
 Alpha  occ. eigenvalues --  -10.18124 -10.18077 -10.17644 -10.17287  -1.09268
 Alpha  occ. eigenvalues --   -1.08886  -1.03151  -1.00613  -1.00366  -0.98763
 Alpha  occ. eigenvalues --   -0.97588  -0.94218  -0.93930  -0.83808  -0.82110
 Alpha  occ. eigenvalues --   -0.81931  -0.81583  -0.81501  -0.81007  -0.80780
 Alpha  occ. eigenvalues --   -0.80504  -0.80138  -0.79551  -0.79319  -0.77797
 Alpha  occ. eigenvalues --   -0.76943  -0.76287  -0.76007  -0.75400  -0.74432
 Alpha  occ. eigenvalues --   -0.73523  -0.73380  -0.72469  -0.71414  -0.70349
 Alpha  occ. eigenvalues --   -0.69887  -0.69281  -0.68577  -0.67948  -0.67801
 Alpha  occ. eigenvalues --   -0.67006  -0.66710  -0.66192  -0.66145  -0.65337
 Alpha  occ. eigenvalues --   -0.64350  -0.62653  -0.62103  -0.61656  -0.60786
 Alpha  occ. eigenvalues --   -0.60277  -0.58517  -0.58102  -0.57739  -0.57332
 Alpha  occ. eigenvalues --   -0.57107  -0.56351  -0.55382  -0.55138  -0.54597
 Alpha  occ. eigenvalues --   -0.54319  -0.54026  -0.53879  -0.53674  -0.53251
 Alpha  occ. eigenvalues --   -0.53088  -0.52071  -0.51558  -0.51260  -0.50420
 Alpha  occ. eigenvalues --   -0.49984  -0.49462  -0.48681  -0.48438  -0.48198
 Alpha  occ. eigenvalues --   -0.47574  -0.47249  -0.46982  -0.46905  -0.46708
 Alpha  occ. eigenvalues --   -0.46589  -0.46289  -0.46135  -0.46091  -0.45740
 Alpha  occ. eigenvalues --   -0.45457  -0.45104  -0.44974  -0.44645  -0.44602
 Alpha  occ. eigenvalues --   -0.44529  -0.44110  -0.43958  -0.43807  -0.43738
 Alpha  occ. eigenvalues --   -0.43584  -0.43479  -0.43368  -0.43239  -0.43030
 Alpha  occ. eigenvalues --   -0.42964  -0.42411  -0.42237  -0.41738  -0.41666
 Alpha  occ. eigenvalues --   -0.41523  -0.41107  -0.40959  -0.40702  -0.40281
 Alpha  occ. eigenvalues --   -0.40146  -0.39958  -0.39800  -0.39705  -0.39413
 Alpha  occ. eigenvalues --   -0.39087  -0.38804  -0.38737  -0.38709  -0.38362
 Alpha  occ. eigenvalues --   -0.38317  -0.38236  -0.37779  -0.37613  -0.37382
 Alpha  occ. eigenvalues --   -0.37222  -0.37040  -0.36732  -0.36555  -0.36318
 Alpha  occ. eigenvalues --   -0.36231  -0.36081  -0.35828  -0.35717  -0.35345
 Alpha  occ. eigenvalues --   -0.35216  -0.35033  -0.34949  -0.34647  -0.34207
 Alpha  occ. eigenvalues --   -0.33989  -0.33804  -0.33617  -0.33336  -0.33219
 Alpha  occ. eigenvalues --   -0.33023  -0.32549  -0.32395  -0.32183  -0.32066
 Alpha  occ. eigenvalues --   -0.31774  -0.31585  -0.31500  -0.31435  -0.30992
 Alpha  occ. eigenvalues --   -0.30649  -0.30358  -0.30102  -0.29945  -0.29709
 Alpha  occ. eigenvalues --   -0.29149  -0.28919  -0.28380  -0.28182  -0.28096
 Alpha  occ. eigenvalues --   -0.27759  -0.27692  -0.26760  -0.26666  -0.26008
 Alpha  occ. eigenvalues --   -0.25458  -0.24944  -0.24722  -0.21827  -0.19665
 Alpha  occ. eigenvalues --   -0.18955
 Alpha virt. eigenvalues --   -0.10313  -0.08549  -0.03926  -0.01694  -0.00296
 Alpha virt. eigenvalues --    0.00114   0.00483   0.00754   0.01921   0.03149
 Alpha virt. eigenvalues --    0.03279   0.03793   0.03969   0.04008   0.04395

 Mulliken charges:
               1
     1  C   -0.093240
     2  C   -0.054659
     3  C   -0.054926
     4  C   -0.136884
     5  N   -0.190588
     6  C   -0.043632
     7  C   -0.081946
     8  C    0.117217
     9  C   -0.020880
    10  C   -0.060883
    11  C   -0.042993
    12  C   -0.012852
    13  C    0.193960
    14  O   -0.219855
    15  O   -0.342931
    16  N   -0.066322
    17  C    0.120488
    18  C   -0.157111
    19  C   -0.036868
    20  C    0.138860
    21  C    0.025115
    22  C    0.058232
    23  C   -0.064961
    24  N   -0.241724
    25  C    0.047966
    26  C   -0.116954
    27  C   -0.013108
    28  C    0.049532
    29  C    0.109301
    30  C   -0.065508
    31  C    0.002923
    32  N   -0.058149
    33  C    0.091956
    34  C   -0.151415
    35  C   -0.001708
    36  C    0.092145
    37  C    0.130208
    38  C    0.032332
    39  O   -0.151945
    40  C   -0.006639
    41  C    0.232844
    42  O   -0.222724
    43  O   -0.302441
    44  C    0.126517
    45  C    0.426783
    46  C   -0.092170
    47  C   -0.157023
    48  C    0.139802
    49  C    0.025610
    50  C   -0.020278
    51  C    0.049690
    52  C   -0.108484
    53  C    0.041097
    54  C    0.068980
    55  C    0.030052
    56  C    0.063325
    57  C   -0.137564
    58  C    0.021067
    59  C    0.025062
    60  C   -0.047939
    61  C    0.054727
    62  C   -0.113586
    63  C   -0.067782
    64  C    0.059983
    65  H   -0.045341
    66  H   -0.084253
    67  H    0.055559
    68  H    0.042177
    69  H   -0.048356
    70  H    0.040606
    71  H    0.034810
    72  H    0.063717
    73  H    0.040452
    74  H    0.035166
    75  H    0.039336
    76  H    0.075413
    77  H    0.084696
    78  H    0.017923
    79  H    0.048026
    80  H   -0.001713
    81  H    0.035687
    82  H    0.035435
    83  H    0.011690
    84  H    0.012932
    85  H    0.015230
    86  H    0.003087
    87  H   -0.016899
    88  H   -0.002326
    89  H    0.033304
    90  H    0.020315
    91  H    0.049302
    92  H    0.025930
    93  H   -0.009613
    94  H    0.064856
    95  H    0.066328
    96  H    0.056858
    97  H    0.028719
    98  H    0.005458
    99  H   -0.084098
   100  H   -0.039255
   101  H    0.015726
   102  H    0.007197
   103  H    0.009935
   104  H   -0.002208
   105  H    0.021344
   106  H    0.018400
   107  H    0.019629
   108  H   -0.012164
   109  H   -0.017575
   110  H   -0.016641
   111  H   -0.001048
   112  H   -0.010894
   113  H    0.030226
   114  H   -0.010333
   115  H   -0.020157
   116  H    0.021379
   117  H   -0.040771
   118  H    0.001203
   119  H   -0.014629
   120  H    0.004518
   121  H    0.011767
   122  H    0.051650
   123  H   -0.012397
   124  H    0.000785
   125  H   -0.006433
   126  H    0.022101
   127  H    0.022021
   128  H   -0.002120
   129  H    0.024298
   130  H    0.015462
   131  H    0.004970
   132  H    0.029716
   133  H    0.027638
   134  H   -0.002787
   135  H   -0.014006
   136  H   -0.017944
   137  H    0.133383
   138  H    0.180490
 Sum of Mulliken charges =  -0.00000

 Dipole moment (field-independent basis, Debye):
    X=              1.9878    Y=              4.6185    Z=              0.2569  Tot=              5.0346
 Quadrupole moment (field-independent basis, Debye-Ang):
   XX=           -371.4936   YY=           -379.4688   ZZ=           -397.5383
   XY=            -29.0385   XZ=             12.6509   YZ=             -2.5207

 Normal termination of Gaussian 16 at Sun Aug 18 07:30:33 2019.
