 Gaussian 16, Revision A.03,
 Gaussian 16:  ES64L-G16RevA.03 25-Dec-2016

 --------------------------
 # td=(NStates=1) B3LYP/SVP
 --------------------------

 --
 TD
 --
 Symbolic Z-matrix:
 Charge =  0 Multiplicity = 1

                         Standard orientation:
 ---------------------------------------------------------------------
 Center     Atomic      Atomic             Coordinates (Angstroms)
 Number     Number       Type             X           Y           Z
 ---------------------------------------------------------------------
      1          6           0       -5.216930   -2.035799    0.558848
      2          6           0       -4.680865    2.681808    1.487149
      3          6           0       -9.228199    3.440344   -0.158894
      4          6           0       -9.809981   -1.382761   -0.888637
      5          7           0       -5.207229    0.335200    0.826912
      6          6           0       -4.530452   -0.796618    0.861040
      7          6           0       -3.077835   -0.640517    1.255900
      8          6           0       -3.105522    0.717892    1.903672
      9          6           0       -4.424581    1.307562    1.422903
     10          6           0       -2.900408    0.788199    3.432998
     11          6           0       -2.126282   -0.800532    0.007321
     12          6           0       -0.692559   -0.746495    0.475973
     13          6           0        0.357615   -1.004957   -0.649202
     14          8           0        0.127948   -1.601088   -1.729366
     15          8           0        1.598764   -0.606928   -0.355845
     16          7           0       -7.028700    2.760001    0.695119
     17          6           0       -5.844991    3.416964    1.038829
     18          6           0       -6.067151    4.795266    1.065361
     19          6           0       -7.337153    4.972907    0.540748
     20          6           0       -7.932223    3.713233    0.325180
     21          6           0       -5.096430    5.677480    1.631718
     22          6           0       -7.982296    6.262855    0.537619
     23          6           0       -8.903993    6.758485   -0.402480
     24          7           0       -9.111738    0.972270   -0.506365
     25          6           0       -9.711715    2.138586   -0.450985
     26          6           0      -11.086608    2.021807   -1.100602
     27          6           0      -11.385349    0.688816   -1.266328
     28          6           0      -10.077215    0.035439   -0.937948
     29          6           0      -12.056868    3.113215   -1.153685
     30          6           0      -12.550081   -0.043180   -1.815183
     31          6           0      -12.544457   -0.198575   -3.349977
     32          7           0       -7.531570   -1.235437   -0.213726
     33          6           0       -8.620104   -2.032359   -0.565620
     34          6           0       -8.273921   -3.353056   -0.695371
     35          6           0       -6.882720   -3.434208   -0.329738
     36          6           0       -6.483960   -2.088903    0.067647
     37          6           0       -9.155152   -4.422879   -1.200137
     38          6           0       -5.776882   -4.301001    0.048709
     39          8           0       -5.665147   -5.538616   -0.089869
     40          6           0       -4.617498   -3.435383    0.500351
     41          6           0       -3.988785   -3.943108    1.654499
     42          8           0       -4.008395   -3.552353    2.913554
     43          8           0       -3.335562   -5.123374    1.475599
     44          6           0       -2.708194   -5.847952    2.570295
     45          6           0        2.685838   -1.002524   -1.215300
     46          6           0        3.948731   -0.611747   -0.505134
     47          6           0        4.978554    0.131979   -1.028849
     48          6           0        4.768904    1.112049   -2.161707
     49          6           0        6.223651    0.255971   -0.205942
     50          6           0        7.464613   -0.329784   -0.991764
     51          6           0        8.758559   -0.320281   -0.179375
     52          6           0        9.974285   -0.795126   -0.773002
     53          6           0        9.925946   -2.278556   -1.082595
     54          6           0       11.179892   -0.280192   -0.038737
     55          6           0       12.579543   -0.500541   -0.525618
     56          6           0       13.797624   -0.091681    0.243679
     57          6           0       15.229643   -0.306836   -0.374182
     58          6           0       15.597466   -1.785164   -0.534905
     59          6           0       16.285193    0.514114    0.481651
     60          6           0       17.664660    0.574809   -0.193771
     61          6           0       18.523125    1.527036    0.629668
     62          6           0       20.044239    1.777501    0.003873
     63          6           0       19.926735    2.503340   -1.323251
     64          6           0       20.896303    2.320994    1.126582
     65          1           0       -3.835421    3.159440    2.007027
     66          1           0       -9.741861    4.305442   -0.505731
     67          1           0      -10.575824   -1.719662   -1.515752
     68          1           0       -3.021026   -1.577075    2.040692
     69          1           0       -2.278589    1.224641    1.430969
     70          1           0       -1.872445    0.562187    3.575668
     71          1           0       -3.056735    1.844877    3.857004
     72          1           0       -3.676031    0.097077    4.016159
     73          1           0       -2.263602   -1.746992   -0.657074
     74          1           0       -2.365075    0.236793   -0.509014
     75          1           0       -0.592592    0.451979    0.770284
     76          1           0       -0.338347   -1.259035    1.258550
     77          1           0       -4.256180    5.729073    0.820704
     78          1           0       -5.416722    6.695703    1.713234
     79          1           0       -4.460448    5.555143    2.508946
     80          1           0       -7.498591    6.970130    1.216688
     81          1           0       -9.405309    5.955602   -1.043113
     82          1           0       -9.083546    7.765036   -0.182074
     83          1           0      -12.231189    3.450776    0.006708
     84          1           0      -11.818390    4.053714   -1.868624
     85          1           0      -12.954710    2.670447   -1.527776
     86          1           0      -12.429069   -1.142869   -1.493282
     87          1           0      -13.474450    0.485196   -1.449319
     88          1           0      -12.750821    0.788854   -3.851493
     89          1           0      -11.539597   -0.757724   -3.642798
     90          1           0      -13.260312   -0.861956   -3.674644
     91          1           0      -10.031668   -4.608953   -0.614531
     92          1           0       -9.286189   -4.563941   -2.315260
     93          1           0       -8.606709   -5.535028   -1.015366
     94          1           0       -3.776835   -3.330297   -0.402487
     95          1           0       -2.289510   -6.769586    1.905163
     96          1           0       -2.065997   -5.358212    3.154333
     97          1           0       -3.486673   -6.180920    3.513947
     98          1           0        2.909411   -2.163825   -1.358668
     99          1           0        2.484068   -0.534996   -2.173886
    100          1           0        4.064934   -1.312706    0.387818
    101          1           0        4.907045    2.047203   -1.808242
    102          1           0        5.594036    0.946532   -2.997013
    103          1           0        3.921804    0.947503   -2.829631
    104          1           0        6.578470    1.405262    0.293530
    105          1           0        5.931390   -0.261589    0.768377
    106          1           0        7.262811   -1.382691   -1.390853
    107          1           0        7.446514    0.369231   -1.978815
    108          1           0        8.752316    0.833191   -0.188577
    109          1           0        8.604399   -0.835997    0.643746
    110          1           0       10.023927   -0.341075   -1.682666
    111          1           0        8.818195   -2.734875   -1.480571
    112          1           0       10.922633   -2.439253   -1.469118
    113          1           0       10.032831   -2.893814    0.036734
    114          1           0       11.073934    0.656678    0.183745
    115          1           0       11.265547   -0.716203    1.104831
    116          1           0       12.935825   -1.655801   -0.944859
    117          1           0       12.594103    0.246552   -1.588856
    118          1           0       13.863889    0.934308    0.323930
    119          1           0       13.834459   -0.460289    1.293350
    120          1           0       15.377349    0.113944   -1.319288
    121          1           0       14.896990   -2.163731   -1.261901
    122          1           0       16.701831   -1.859075   -0.915681
    123          1           0       15.642913   -2.439364    0.270815
    124          1           0       16.005027    1.604218    0.466392
    125          1           0       16.219897    0.031314    1.400654
    126          1           0       18.139124   -0.473494   -0.395189
    127          1           0       17.706797    0.895336   -1.339859
    128          1           0       18.362978    2.392659    1.090482
    129          1           0       18.840706    1.196153    1.826061
    130          1           0       20.456889    0.679382   -0.353798
    131          1           0       19.404675    3.582921   -0.769139
    132          1           0       20.997523    3.031447   -1.828103
    133          1           0       19.348322    2.057071   -2.109622
    134          1           0       21.030815    1.670755    1.894323
    135          1           0       21.884152    2.396054    0.748384
    136          1           0       20.490280    3.458706    1.444573
    137          1           0       -7.321662    1.760557    0.567271
    138          1           0       -7.455448   -0.251044   -0.054362
 ---------------------------------------------------------------------

 SCF Done:  E(RB3LYP) =  -2732.90832579     A.U. after   17 cycles

 Excitation energies and oscillator strengths:

 Excited State   1:      Singlet-A      1.9372 eV  640.03 nm  f=0.2463  <S**2>=0.000
     235 -> 237       -0.19614
     235 -> 238        0.24475
     236 -> 237        0.62188
     236 -> 238        0.11863
 This state for optimization and/or second-order correction.
 Total Energy, E(TD-HF/TD-DFT) =  -2732.83713664
 Copying the excited state density for this state as the 1-particle RhoCI density.

 The electronic state is 1-A.
 Alpha  occ. eigenvalues --  -19.18421 -19.17252 -19.12085 -19.11443 -19.11304
 Alpha  occ. eigenvalues --  -14.37163 -14.36475 -14.32511 -14.30531 -10.32108
 Alpha  occ. eigenvalues --  -10.31908 -10.27802 -10.25783 -10.25573 -10.24388
 Alpha  occ. eigenvalues --  -10.23546 -10.23283 -10.23281 -10.23140 -10.23095
 Alpha  occ. eigenvalues --  -10.23002 -10.22280 -10.22125 -10.21801 -10.21765
 Alpha  occ. eigenvalues --  -10.21733 -10.21528 -10.21319 -10.21216 -10.20918
 Alpha  occ. eigenvalues --  -10.20913 -10.20694 -10.20608 -10.20572 -10.20546
 Alpha  occ. eigenvalues --  -10.20501 -10.20439 -10.20418 -10.20408 -10.20392
 Alpha  occ. eigenvalues --  -10.20386 -10.20355 -10.20325 -10.20253 -10.20207
 Alpha  occ. eigenvalues --  -10.20146 -10.20133 -10.20030 -10.19804 -10.19731
 Alpha  occ. eigenvalues --  -10.19696 -10.19368 -10.19156 -10.19129 -10.18975
 Alpha  occ. eigenvalues --  -10.18775 -10.18514 -10.18471 -10.18330 -10.18247
 Alpha  occ. eigenvalues --  -10.17891 -10.17627 -10.17454 -10.17211  -1.09493
 Alpha  occ. eigenvalues --   -1.07076  -1.00389  -0.98598  -0.98562  -0.97867
 Alpha  occ. eigenvalues --   -0.95296  -0.94806  -0.93273  -0.85986  -0.84081
 Alpha  occ. eigenvalues --   -0.83078  -0.82192  -0.81689  -0.81409  -0.81332
 Alpha  occ. eigenvalues --   -0.80641  -0.80213  -0.79489  -0.78902  -0.78223
 Alpha  occ. eigenvalues --   -0.77236  -0.76521  -0.76201  -0.75149  -0.74785
 Alpha  occ. eigenvalues --   -0.73945  -0.73683  -0.72615  -0.72103  -0.71720
 Alpha  occ. eigenvalues --   -0.70370  -0.69530  -0.69040  -0.68672  -0.68010
 Alpha  occ. eigenvalues --   -0.67812  -0.67552  -0.66773  -0.66445  -0.65543
 Alpha  occ. eigenvalues --   -0.63915  -0.63143  -0.62588  -0.62173  -0.62052
 Alpha  occ. eigenvalues --   -0.61265  -0.59333  -0.58820  -0.57849  -0.57542
 Alpha  occ. eigenvalues --   -0.57205  -0.57060  -0.56132  -0.55978  -0.55772
 Alpha  occ. eigenvalues --   -0.55726  -0.55343  -0.53711  -0.53639  -0.53502
 Alpha  occ. eigenvalues --   -0.53133  -0.52183  -0.51972  -0.51246  -0.50392
 Alpha  occ. eigenvalues --   -0.49786  -0.49451  -0.49092  -0.48679  -0.48526
 Alpha  occ. eigenvalues --   -0.47993  -0.47857  -0.47427  -0.47118  -0.46808
 Alpha  occ. eigenvalues --   -0.46662  -0.46480  -0.46359  -0.46207  -0.46038
 Alpha  occ. eigenvalues --   -0.45811  -0.45295  -0.45152  -0.44966  -0.44783
 Alpha  occ. eigenvalues --   -0.44689  -0.44397  -0.44265  -0.44219  -0.44183
 Alpha  occ. eigenvalues --   -0.43817  -0.43317  -0.43154  -0.42930  -0.42685
 Alpha  occ. eigenvalues --   -0.42473  -0.42369  -0.41851  -0.41641  -0.41528
 Alpha  occ. eigenvalues --   -0.41192  -0.41071  -0.40885  -0.40748  -0.40655
 Alpha  occ. eigenvalues --   -0.40267  -0.40213  -0.39651  -0.39578  -0.39503
 Alpha  occ. eigenvalues --   -0.39417  -0.38970  -0.38848  -0.38733  -0.38546
 Alpha  occ. eigenvalues --   -0.38238  -0.38059  -0.37787  -0.37601  -0.37480
 Alpha  occ. eigenvalues --   -0.37343  -0.37277  -0.37095  -0.36985  -0.36811
 Alpha  occ. eigenvalues --   -0.36563  -0.36377  -0.36303  -0.36232  -0.36133
 Alpha  occ. eigenvalues --   -0.35847  -0.35292  -0.35143  -0.35000  -0.34537
 Alpha  occ. eigenvalues --   -0.34481  -0.34279  -0.34214  -0.34122  -0.33821
 Alpha  occ. eigenvalues --   -0.33491  -0.33356  -0.33158  -0.32955  -0.32505
 Alpha  occ. eigenvalues --   -0.32304  -0.32008  -0.31662  -0.31460  -0.30564
 Alpha  occ. eigenvalues --   -0.30409  -0.30034  -0.29435  -0.29105  -0.28936
 Alpha  occ. eigenvalues --   -0.28687  -0.28552  -0.28232  -0.27833  -0.27405
 Alpha  occ. eigenvalues --   -0.27345  -0.26614  -0.26281  -0.26128  -0.25898
 Alpha  occ. eigenvalues --   -0.24693  -0.24646  -0.23660  -0.22979  -0.20266
 Alpha  occ. eigenvalues --   -0.18857
 Alpha virt. eigenvalues --   -0.11164  -0.07922  -0.05004  -0.03176  -0.02028
 Alpha virt. eigenvalues --   -0.01472  -0.00837  -0.00117   0.01504   0.03096
 Alpha virt. eigenvalues --    0.03265   0.03547   0.03747   0.04093   0.04214

 Mulliken charges:
               1
     1  C   -0.025766
     2  C   -0.066745
     3  C   -0.047898
     4  C   -0.046188
     5  N   -0.157996
     6  C   -0.085846
     7  C   -0.110546
     8  C   -0.013251
     9  C   -0.020127
    10  C    0.058390
    11  C    0.015103
    12  C    0.039391
    13  C    0.191168
    14  O   -0.280694
    15  O   -0.295139
    16  N   -0.083763
    17  C    0.135281
    18  C   -0.077411
    19  C    0.036711
    20  C    0.058576
    21  C    0.086664
    22  C   -0.103819
    23  C    0.002705
    24  N   -0.235824
    25  C    0.085250
    26  C   -0.174362
    27  C   -0.035017
    28  C   -0.043655
    29  C    0.039885
    30  C    0.018084
    31  C    0.020183
    32  N   -0.044360
    33  C    0.176487
    34  C   -0.103824
    35  C    0.012567
    36  C    0.067179
    37  C    0.028913
    38  C    0.053134
    39  O   -0.199691
    40  C    0.010265
    41  C    0.216249
    42  O   -0.326376
    43  O   -0.292972
    44  C    0.168471
    45  C    0.232405
    46  C   -0.106544
    47  C   -0.114647
    48  C    0.111089
    49  C   -0.012636
    50  C   -0.063649
    51  C    0.098061
    52  C    0.071677
    53  C   -0.041509
    54  C    0.115413
    55  C   -0.070898
    56  C    0.111335
    57  C   -0.076922
    58  C    0.037332
    59  C    0.046537
    60  C    0.029545
    61  C    0.031897
    62  C   -0.149613
    63  C   -0.054175
    64  C    0.086838
    65  H   -0.026047
    66  H   -0.057592
    67  H   -0.032951
    68  H    0.060198
    69  H   -0.022294
    70  H    0.007213
    71  H    0.014763
    72  H    0.056488
    73  H    0.058376
    74  H    0.033526
    75  H    0.046833
    76  H    0.007774
    77  H    0.027833
    78  H   -0.007210
    79  H    0.030302
    80  H   -0.004706
    81  H    0.054700
    82  H    0.015901
    83  H    0.051903
    84  H    0.040931
    85  H   -0.005072
    86  H    0.016405
    87  H    0.020086
    88  H    0.022762
    89  H    0.026867
    90  H   -0.005320
    91  H    0.024823
    92  H    0.051025
    93  H    0.039853
    94  H    0.114124
    95  H    0.069652
    96  H    0.004461
    97  H    0.044327
    98  H    0.053726
    99  H    0.015161
   100  H    0.014329
   101  H    0.006818
   102  H    0.013861
   103  H    0.009222
   104  H    0.024302
   105  H    0.007551
   106  H   -0.000857
   107  H    0.015904
   108  H   -0.000414
   109  H   -0.052435
   110  H   -0.059331
   111  H    0.060830
   112  H    0.014276
   113  H   -0.002114
   114  H   -0.069215
   115  H   -0.018629
   116  H    0.026646
   117  H   -0.006980
   118  H   -0.041637
   119  H   -0.009115
   120  H   -0.036356
   121  H    0.010585
   122  H    0.001816
   123  H   -0.011160
   124  H    0.014115
   125  H   -0.007326
   126  H    0.015496
   127  H    0.011025
   128  H   -0.061335
   129  H   -0.023968
   130  H   -0.002687
   131  H    0.003434
   132  H    0.033173
   133  H    0.036732
   134  H   -0.004829
   135  H   -0.010325
   136  H    0.026646
   137  H    0.166194
   138  H    0.126018
 Sum of Mulliken charges =  -0.00000

 Dipole moment (field-independent basis, Debye):
    X=              2.1621    Y=              5.4790    Z=              0.3823  Tot=              5.9025
 Quadrupole moment (field-independent basis, Debye-Ang):
   XX=           -350.1891   YY=           -392.2649   ZZ=           -398.5842
   XY=            -25.1843   XZ=             15.8483   YZ=              4.3102

 Normal termination of Gaussian 16 at Sat Aug 24 01:49:17 2019.
