 Gaussian 16, Revision A.03,
 Gaussian 16:  ES64L-G16RevA.03 25-Dec-2016

 --------------------------
 # td=(NStates=1) B3LYP/SVP
 --------------------------

 --
 TD
 --
 Symbolic Z-matrix:
 Charge =  0 Multiplicity = 1

                         Standard orientation:
 ---------------------------------------------------------------------
 Center     Atomic      Atomic             Coordinates (Angstroms)
 Number     Number       Type             X           Y           Z
 ---------------------------------------------------------------------
      1          6           0       -5.064502   -1.978105    0.378736
      2          6           0       -4.660818    2.781235    1.360482
      3          6           0       -9.424794    3.408770   -0.153066
      4          6           0       -9.920649   -1.468728   -0.759553
      5          7           0       -5.129923    0.471296    0.763636
      6          6           0       -4.439731   -0.705761    0.673597
      7          6           0       -3.035050   -0.607595    1.096809
      8          6           0       -3.073402    0.807268    1.792488
      9          6           0       -4.366637    1.394735    1.288247
     10          6           0       -2.916466    0.796284    3.297964
     11          6           0       -2.079035   -0.790980    0.004756
     12          6           0       -0.570341   -0.860314    0.471843
     13          6           0        0.474702   -0.949343   -0.656864
     14          8           0        0.100536   -1.299219   -1.793089
     15          8           0        1.709988   -0.653992   -0.249580
     16          7           0       -7.052028    2.783712    0.367810
     17          6           0       -5.884846    3.347011    1.023952
     18          6           0       -6.181893    4.761954    0.904240
     19          6           0       -7.482703    5.010854    0.367425
     20          6           0       -8.090266    3.730212    0.150786
     21          6           0       -5.255857    5.875138    1.428787
     22          6           0       -8.076758    6.276029    0.232545
     23          6           0       -9.076577    6.507004   -0.685301
     24          7           0       -9.255591    0.881516   -0.337949
     25          6           0       -9.952836    2.099520   -0.394447
     26          6           0      -11.285550    1.849172   -0.709283
     27          6           0      -11.395517    0.490866   -0.942924
     28          6           0      -10.070058   -0.123505   -0.725523
     29          6           0      -12.446535    2.850735   -0.991809
     30          6           0      -12.693950   -0.284177   -1.317673
     31          6           0      -13.036054   -0.357564   -2.878346
     32          7           0       -7.607579   -1.289784   -0.182379
     33          6           0       -8.690056   -2.089990   -0.542323
     34          6           0       -8.244742   -3.504915   -0.571999
     35          6           0       -6.782350   -3.420705   -0.161569
     36          6           0       -6.488357   -2.110014    0.039121
     37          6           0       -8.953482   -4.629585   -0.841211
     38          6           0       -5.657732   -4.321986    0.032222
     39          8           0       -5.691765   -5.538983   -0.046918
     40          6           0       -4.497287   -3.362658    0.290749
     41          6           0       -3.842925   -3.846086    1.612869
     42          8           0       -4.059843   -3.400207    2.668114
     43          8           0       -3.059538   -4.922088    1.285736
     44          6           0       -2.569493   -5.561454    2.345790
     45          6           0        2.732080   -0.921896   -1.229344
     46          6           0        4.142212   -0.710668   -0.641507
     47          6           0        4.977284    0.214205   -0.978827
     48          6           0        4.903091    1.262051   -2.242814
     49          6           0        6.295836    0.302274   -0.141600
     50          6           0        7.518416   -0.236718   -0.920304
     51          6           0        8.811391   -0.221470   -0.016879
     52          6           0       10.013102   -0.641933   -0.769330
     53          6           0       10.074219   -2.154419   -1.262427
     54          6           0       11.335068   -0.351922    0.000735
     55          6           0       12.667916   -0.659315   -0.668123
     56          6           0       13.821670    0.013095    0.104862
     57          6           0       15.270167   -0.181870   -0.421920
     58          6           0       15.659653   -1.670995   -0.690438
     59          6           0       16.317499    0.477755    0.508185
     60          6           0       17.677310    0.546317   -0.111253
     61          6           0       18.640306    1.294972    0.811716
     62          6           0       20.013226    1.584885    0.220932
     63          6           0       20.028135    2.383536   -1.059212
     64          6           0       20.950534    2.274389    1.258457
     65          1           0       -3.967839    3.466746    1.818538
     66          1           0      -10.157359    4.184901   -0.350735
     67          1           0      -10.742631   -1.893038   -1.044774
     68          1           0       -2.899868   -1.400929    1.716236
     69          1           0       -2.282047    1.449731    1.408267
     70          1           0       -1.914448    0.403791    3.699953
     71          1           0       -3.027940    1.987957    3.636140
     72          1           0       -3.825937    0.472542    3.780080
     73          1           0       -2.330363   -1.899175   -0.404422
     74          1           0       -2.165169   -0.019729   -0.810430
     75          1           0       -0.258356    0.059750    1.332585
     76          1           0       -0.241543   -1.771639    1.003592
     77          1           0       -4.337323    5.891889    0.976703
     78          1           0       -5.604847    6.997408    1.321342
     79          1           0       -5.043341    5.399657    2.417270
     80          1           0       -7.751509    7.011701    0.865076
     81          1           0       -9.497130    5.935662   -1.475174
     82          1           0       -9.565235    7.620976   -0.854528
     83          1           0      -12.231489    3.859057   -0.196809
     84          1           0      -12.126654    3.205020   -2.084415
     85          1           0      -13.547849    2.203728   -0.910041
     86          1           0      -12.692027   -1.208846   -0.773356
     87          1           0      -13.598204    0.238614   -0.752341
     88          1           0      -13.387369    0.646290   -3.212762
     89          1           0      -12.187723   -0.896729   -3.655575
     90          1           0      -13.800118   -1.338979   -3.007170
     91          1           0       -9.856660   -4.897699   -0.076636
     92          1           0       -9.472504   -4.443748   -1.824186
     93          1           0       -8.431385   -5.729379   -1.022650
     94          1           0       -3.827299   -3.718845   -0.611929
     95          1           0       -1.808955   -6.092526    1.911032
     96          1           0       -2.143139   -4.881191    3.266971
     97          1           0       -3.396967   -6.148968    2.936619
     98          1           0        2.642074   -1.983245   -1.666435
     99          1           0        2.369705   -0.334033   -2.213814
    100          1           0        4.166137   -1.283827    0.252364
    101          1           0        5.572778    2.289036   -1.823308
    102          1           0        5.507745    0.939988   -3.152680
    103          1           0        3.970732    1.819479   -2.673260
    104          1           0        6.490763    1.492039    0.092024
    105          1           0        5.964074   -0.099556    0.661141
    106          1           0        7.258218   -1.342802   -1.162494
    107          1           0        7.472321    0.298925   -1.876710
    108          1           0        9.079316    0.817074    0.434747
    109          1           0        8.660267   -0.868230    0.813710
    110          1           0       10.181201    0.024407   -1.672495
    111          1           0        9.121593   -2.112570   -1.817827
    112          1           0       10.693003   -2.468250   -2.125847
    113          1           0        9.980575   -2.656317   -0.314210
    114          1           0       11.358061    0.718712    0.209392
    115          1           0       11.488212   -0.758403    1.021793
    116          1           0       12.659786   -1.601096   -0.818171
    117          1           0       12.932739   -0.256411   -1.632159
    118          1           0       13.693066    0.993922    0.389197
    119          1           0       13.849518   -0.511874    0.945363
    120          1           0       15.275908    0.165092   -1.351155
    121          1           0       15.029653   -2.068515   -1.635624
    122          1           0       16.684621   -1.721266   -0.851672
    123          1           0       15.526462   -2.330123    0.370072
    124          1           0       16.152268    1.618499    0.704181
    125          1           0       16.408627    0.130253    1.523957
    126          1           0       18.261780   -0.387408   -0.081450
    127          1           0       17.723076    0.998613   -1.264616
    128          1           0       18.287898    2.430042    1.006742
    129          1           0       18.768404    0.722884    1.703741
    130          1           0       20.596090    0.583714   -0.209577
    131          1           0       19.880965    3.518241   -0.821878
    132          1           0       21.052441    2.157231   -1.588043
    133          1           0       19.212743    2.116477   -1.619639
    134          1           0       21.118953    1.686543    2.313788
    135          1           0       22.015698    2.514279    0.913790
    136          1           0       20.508130    3.290594    1.357965
    137          1           0       -7.048839    1.839396    0.430404
    138          1           0       -7.824106   -0.180353   -0.260260
 ---------------------------------------------------------------------

 SCF Done:  E(RB3LYP) =  -2732.95375936     A.U. after   17 cycles

 Excitation energies and oscillator strengths:

 Excited State   1:      Singlet-A      1.9920 eV  622.42 nm  f=0.1387  <S**2>=0.000
     235 -> 237       -0.18807
     235 -> 238       -0.29302
     236 -> 237        0.59463
     236 -> 238       -0.14803
 This state for optimization and/or second-order correction.
 Total Energy, E(TD-HF/TD-DFT) =  -2732.88055532
 Copying the excited state density for this state as the 1-particle RhoCI density.

 The electronic state is 1-A.
 Alpha  occ. eigenvalues --  -19.19319 -19.18394 -19.14364 -19.12293 -19.11895
 Alpha  occ. eigenvalues --  -14.36143 -14.35865 -14.32345 -14.29895 -10.32239
 Alpha  occ. eigenvalues --  -10.32049 -10.27496 -10.26146 -10.24548 -10.24375
 Alpha  occ. eigenvalues --  -10.24362 -10.23457 -10.23445 -10.23370 -10.23292
 Alpha  occ. eigenvalues --  -10.23166 -10.22756 -10.22350 -10.22184 -10.22055
 Alpha  occ. eigenvalues --  -10.21855 -10.21789 -10.21569 -10.21393 -10.21090
 Alpha  occ. eigenvalues --  -10.20951 -10.20850 -10.20783 -10.20689 -10.20688
 Alpha  occ. eigenvalues --  -10.20520 -10.20456 -10.20424 -10.20385 -10.20271
 Alpha  occ. eigenvalues --  -10.20199 -10.20176 -10.19958 -10.19827 -10.19336
 Alpha  occ. eigenvalues --  -10.19321 -10.19316 -10.19291 -10.19254 -10.19246
 Alpha  occ. eigenvalues --  -10.19195 -10.19087 -10.18812 -10.18624 -10.18592
 Alpha  occ. eigenvalues --  -10.18355 -10.18307 -10.18144 -10.18109 -10.18022
 Alpha  occ. eigenvalues --  -10.17819 -10.17357 -10.15846 -10.15682  -1.12332
 Alpha  occ. eigenvalues --   -1.09976  -1.04941  -1.02186  -0.99713  -0.96360
 Alpha  occ. eigenvalues --   -0.95793  -0.95347  -0.92947  -0.85561  -0.82737
 Alpha  occ. eigenvalues --   -0.82315  -0.82257  -0.81731  -0.81274  -0.80878
 Alpha  occ. eigenvalues --   -0.79923  -0.79770  -0.79676  -0.77827  -0.77526
 Alpha  occ. eigenvalues --   -0.77214  -0.76226  -0.75935  -0.74960  -0.74526
 Alpha  occ. eigenvalues --   -0.73769  -0.72929  -0.72368  -0.71351  -0.70735
 Alpha  occ. eigenvalues --   -0.69795  -0.69142  -0.67805  -0.67577  -0.67067
 Alpha  occ. eigenvalues --   -0.66859  -0.66260  -0.66027  -0.65802  -0.65166
 Alpha  occ. eigenvalues --   -0.64223  -0.63078  -0.62602  -0.61609  -0.61365
 Alpha  occ. eigenvalues --   -0.60670  -0.59470  -0.58413  -0.58143  -0.58070
 Alpha  occ. eigenvalues --   -0.57543  -0.56522  -0.56260  -0.56183  -0.55334
 Alpha  occ. eigenvalues --   -0.55159  -0.54323  -0.53908  -0.53297  -0.53238
 Alpha  occ. eigenvalues --   -0.53101  -0.52200  -0.51740  -0.51071  -0.50746
 Alpha  occ. eigenvalues --   -0.49408  -0.49277  -0.49172  -0.48678  -0.48590
 Alpha  occ. eigenvalues --   -0.48444  -0.48076  -0.47851  -0.47555  -0.47298
 Alpha  occ. eigenvalues --   -0.46971  -0.46752  -0.46216  -0.46171  -0.45448
 Alpha  occ. eigenvalues --   -0.45307  -0.45167  -0.45008  -0.44912  -0.44488
 Alpha  occ. eigenvalues --   -0.44439  -0.44244  -0.44049  -0.43966  -0.43746
 Alpha  occ. eigenvalues --   -0.43409  -0.43278  -0.42973  -0.42934  -0.42461
 Alpha  occ. eigenvalues --   -0.42393  -0.42143  -0.41879  -0.41616  -0.41403
 Alpha  occ. eigenvalues --   -0.41221  -0.41099  -0.40809  -0.40355  -0.40246
 Alpha  occ. eigenvalues --   -0.40106  -0.39943  -0.39919  -0.39530  -0.39346
 Alpha  occ. eigenvalues --   -0.39225  -0.38949  -0.38785  -0.38616  -0.38342
 Alpha  occ. eigenvalues --   -0.37997  -0.37780  -0.37742  -0.37329  -0.37284
 Alpha  occ. eigenvalues --   -0.37110  -0.37035  -0.36901  -0.36681  -0.36536
 Alpha  occ. eigenvalues --   -0.36474  -0.36188  -0.36123  -0.35930  -0.35699
 Alpha  occ. eigenvalues --   -0.35455  -0.35425  -0.35186  -0.34994  -0.34951
 Alpha  occ. eigenvalues --   -0.34603  -0.34593  -0.34577  -0.33948  -0.33648
 Alpha  occ. eigenvalues --   -0.33328  -0.32992  -0.32877  -0.32684  -0.32426
 Alpha  occ. eigenvalues --   -0.32241  -0.32081  -0.31565  -0.31471  -0.31147
 Alpha  occ. eigenvalues --   -0.30667  -0.30565  -0.30538  -0.30099  -0.29980
 Alpha  occ. eigenvalues --   -0.29685  -0.29540  -0.29493  -0.28622  -0.28259
 Alpha  occ. eigenvalues --   -0.27749  -0.27464  -0.26557  -0.26305  -0.25755
 Alpha  occ. eigenvalues --   -0.24870  -0.23969  -0.23115  -0.22240  -0.20004
 Alpha  occ. eigenvalues --   -0.19178
 Alpha virt. eigenvalues --   -0.10786  -0.08329  -0.04668  -0.02482  -0.00665
 Alpha virt. eigenvalues --   -0.00316   0.00010   0.00720   0.01827   0.02393
 Alpha virt. eigenvalues --    0.03494   0.03862   0.04052   0.04127   0.04741

 Mulliken charges:
               1
     1  C   -0.005745
     2  C   -0.046295
     3  C   -0.078870
     4  C   -0.018423
     5  N   -0.118619
     6  C   -0.070748
     7  C    0.072650
     8  C   -0.007636
     9  C   -0.029640
    10  C    0.049408
    11  C    0.038682
    12  C   -0.043000
    13  C    0.188576
    14  O   -0.271544
    15  O   -0.281366
    16  N   -0.100610
    17  C    0.108326
    18  C   -0.159648
    19  C    0.066039
    20  C    0.162809
    21  C    0.098797
    22  C   -0.001238
    23  C   -0.081147
    24  N   -0.282805
    25  C    0.075632
    26  C   -0.120203
    27  C   -0.091554
    28  C    0.081653
    29  C   -0.053116
    30  C    0.025947
    31  C   -0.072581
    32  N   -0.163531
    33  C    0.126266
    34  C   -0.006974
    35  C   -0.040870
    36  C    0.164525
    37  C   -0.075462
    38  C    0.024989
    39  O   -0.172259
    40  C   -0.094181
    41  C    0.186454
    42  O   -0.153164
    43  O   -0.255254
    44  C    0.133631
    45  C    0.169531
    46  C   -0.045730
    47  C   -0.086659
    48  C   -0.068289
    49  C    0.105455
    50  C    0.012409
    51  C    0.083888
    52  C   -0.081666
    53  C    0.053060
    54  C    0.013242
    55  C    0.126131
    56  C    0.116603
    57  C    0.021093
    58  C   -0.026372
    59  C    0.046730
    60  C   -0.042549
    61  C    0.021561
    62  C   -0.152435
    63  C    0.047131
    64  C   -0.006017
    65  H   -0.027523
    66  H   -0.035740
    67  H   -0.117418
    68  H   -0.052741
    69  H   -0.016805
    70  H    0.045941
    71  H    0.001115
    72  H    0.018367
    73  H    0.039351
    74  H    0.024091
    75  H    0.047532
    76  H    0.031847
    77  H   -0.002163
    78  H    0.043299
    79  H    0.034182
    80  H   -0.028591
    81  H    0.028413
    82  H    0.033559
    83  H    0.055982
    84  H    0.062594
    85  H    0.066490
    86  H    0.001681
    87  H    0.016619
    88  H    0.047224
    89  H    0.040119
    90  H    0.030668
    91  H    0.052552
    92  H    0.031256
    93  H    0.071027
    94  H    0.093728
    95  H    0.013706
    96  H    0.026657
    97  H    0.033802
    98  H    0.031152
    99  H    0.035682
   100  H   -0.006765
   101  H    0.022930
   102  H    0.052582
   103  H    0.055625
   104  H    0.014307
   105  H   -0.061338
   106  H    0.019784
   107  H    0.000098
   108  H    0.010882
   109  H   -0.018318
   110  H   -0.009847
   111  H   -0.014324
   112  H    0.026436
   113  H    0.011708
   114  H   -0.028743
   115  H   -0.020283
   116  H   -0.063427
   117  H   -0.035206
   118  H   -0.035535
   119  H   -0.064073
   120  H   -0.057742
   121  H    0.036568
   122  H   -0.007595
   123  H    0.011405
   124  H   -0.005986
   125  H   -0.015633
   126  H    0.004936
   127  H    0.031537
   128  H   -0.000657
   129  H   -0.002921
   130  H   -0.003751
   131  H    0.003017
   132  H    0.032684
   133  H   -0.029486
   134  H    0.028243
   135  H    0.011974
   136  H    0.005211
   137  H    0.094234
   138  H    0.214793
 Sum of Mulliken charges =  -0.00000

 Dipole moment (field-independent basis, Debye):
    X=              2.4958    Y=              3.7066    Z=              0.5543  Tot=              4.5028
 Quadrupole moment (field-independent basis, Debye-Ang):
   XX=           -365.2558   YY=           -387.1622   ZZ=           -397.0519
   XY=            -18.6582   XZ=              8.3519   YZ=             -0.9727

 Normal termination of Gaussian 16 at Tue Aug 13 08:46:48 2019.
