 Gaussian 16, Revision A.03,
 Gaussian 16:  ES64L-G16RevA.03 25-Dec-2016

 --------------------------
 # td=(NStates=1) B3LYP/SVP
 --------------------------

 --
 TD
 --
 Symbolic Z-matrix:
 Charge =  0 Multiplicity = 1

                         Standard orientation:
 ---------------------------------------------------------------------
 Center     Atomic      Atomic             Coordinates (Angstroms)
 Number     Number       Type             X           Y           Z
 ---------------------------------------------------------------------
      1          6           0       -5.067402   -1.923615    0.390161
      2          6           0       -4.700869    2.811434    1.432090
      3          6           0       -9.285007    3.328349   -0.233244
      4          6           0       -9.840114   -1.458016   -0.829178
      5          7           0       -5.108877    0.480177    0.836629
      6          6           0       -4.480564   -0.735814    0.818367
      7          6           0       -3.046049   -0.556590    1.330226
      8          6           0       -3.095323    0.891130    1.927233
      9          6           0       -4.360055    1.424858    1.387062
     10          6           0       -2.893405    0.959944    3.483846
     11          6           0       -2.146738   -0.625431    0.119522
     12          6           0       -0.603864   -0.736866    0.556771
     13          6           0        0.372563   -1.113745   -0.641883
     14          8           0        0.070024   -1.428730   -1.737777
     15          8           0        1.689792   -0.933838   -0.150603
     16          7           0       -6.988313    2.895211    0.565687
     17          6           0       -5.868499    3.532818    1.032107
     18          6           0       -6.243102    4.877030    1.028528
     19          6           0       -7.539420    5.036399    0.594591
     20          6           0       -8.058323    3.698300    0.214167
     21          6           0       -5.180915    5.859111    1.449067
     22          6           0       -8.254520    6.310132    0.411648
     23          6           0       -9.134171    6.655792   -0.518326
     24          7           0       -9.269006    0.846818   -0.346842
     25          6           0       -9.886987    2.001461   -0.536712
     26          6           0      -11.277312    1.930002   -0.984725
     27          6           0      -11.489269    0.551933   -1.093089
     28          6           0      -10.172522   -0.110172   -0.712031
     29          6           0      -12.305722    2.885911   -1.293797
     30          6           0      -12.584599   -0.270018   -1.699048
     31          6           0      -12.602863   -0.442122   -3.286954
     32          7           0       -7.418414   -1.247810   -0.271503
     33          6           0       -8.535930   -2.040913   -0.612598
     34          6           0       -8.119467   -3.494393   -0.692596
     35          6           0       -6.844610   -3.404126   -0.240170
     36          6           0       -6.406759   -1.972999   -0.100174
     37          6           0       -8.979543   -4.638670   -1.077115
     38          6           0       -5.646534   -4.340909    0.009032
     39          8           0       -5.588838   -5.492492    0.058599
     40          6           0       -4.555118   -3.350155    0.458053
     41          6           0       -3.954871   -3.801659    1.822982
     42          8           0       -4.225858   -3.226489    2.856679
     43          8           0       -3.112835   -4.855309    1.678951
     44          6           0       -2.797317   -5.438340    2.849485
     45          6           0        2.710898   -1.379222   -1.077752
     46          6           0        4.039059   -0.760548   -0.650952
     47          6           0        4.918532   -0.015075   -1.294962
     48          6           0        4.724481    0.376153   -2.771220
     49          6           0        6.243504    0.279559   -0.576052
     50          6           0        7.518579   -0.501686   -1.191536
     51          6           0        8.821385   -0.134783   -0.393271
     52          6           0       10.157233   -0.683255   -0.889372
     53          6           0       10.105895   -2.309823   -0.811672
     54          6           0       11.324825   -0.158083   -0.120675
     55          6           0       12.722830   -0.579525   -0.567350
     56          6           0       13.892680    0.011620    0.120605
     57          6           0       15.257341   -0.315090   -0.402461
     58          6           0       15.656553   -1.857886   -0.248205
     59          6           0       16.262608    0.563430    0.480743
     60          6           0       17.701750    0.589762   -0.028566
     61          6           0       18.588412    1.625972    0.722063
     62          6           0       20.041574    1.818791    0.114081
     63          6           0       20.007604    2.661702   -1.197531
     64          6           0       21.004524    2.477458    1.142215
     65          1           0       -3.898622    3.569539    1.881799
     66          1           0      -10.119311    4.201867   -0.341975
     67          1           0      -10.751821   -2.252571   -0.805500
     68          1           0       -2.517247   -1.211672    2.068557
     69          1           0       -2.131113    1.548928    1.568894
     70          1           0       -2.049646    0.586613    3.837807
     71          1           0       -3.099800    2.003583    3.766880
     72          1           0       -3.615163    0.306498    3.910773
     73          1           0       -2.400846   -1.433840   -0.554971
     74          1           0       -2.195911    0.264007   -0.504876
     75          1           0       -0.279290    0.041903    1.056676
     76          1           0       -0.327727   -1.607841    1.244819
     77          1           0       -4.491014    5.960778    0.575756
     78          1           0       -5.804966    6.789493    1.523238
     79          1           0       -4.790239    5.505458    2.370830
     80          1           0       -7.880044    7.110058    1.088684
     81          1           0       -9.529561    5.982644   -1.320920
     82          1           0       -9.744258    7.746050   -0.757424
     83          1           0      -12.235189    3.733294   -0.474360
     84          1           0      -11.976345    3.346035   -2.311515
     85          1           0      -13.303584    2.542835   -1.418897
     86          1           0      -12.532808   -1.215123   -1.254972
     87          1           0      -13.621638    0.002617   -1.094711
     88          1           0      -12.466896    0.539516   -3.746143
     89          1           0      -11.774901   -1.177207   -3.595505
     90          1           0      -13.614620   -0.849861   -3.559438
     91          1           0       -9.734979   -4.778486   -0.405362
     92          1           0       -9.526788   -4.439624   -2.017623
     93          1           0       -8.211494   -5.384057   -1.065602
     94          1           0       -3.614080   -3.559851   -0.208737
     95          1           0       -2.334756   -6.443012    2.718378
     96          1           0       -2.167267   -4.882904    3.496000
     97          1           0       -3.596562   -5.837661    3.546810
     98          1           0        2.807358   -2.424760   -1.057712
     99          1           0        2.435170   -1.076345   -2.172868
    100          1           0        4.132903   -0.996412    0.525406
    101          1           0        5.224753    1.381330   -2.987070
    102          1           0        4.818736   -0.364883   -3.861706
    103          1           0        3.538306    0.513049   -2.941952
    104          1           0        6.222521    1.368506   -0.283949
    105          1           0        6.089252   -0.020376    0.468019
    106          1           0        7.413637   -1.609365   -1.178670
    107          1           0        7.582929   -0.310691   -2.108116
    108          1           0        8.851819    0.926828   -0.493904
    109          1           0        8.768127   -0.466924    0.664222
    110          1           0       10.184774   -0.351102   -1.859032
    111          1           0        9.428473   -2.811924   -1.580939
    112          1           0       11.174650   -2.515914   -1.098365
    113          1           0        9.822690   -2.697479    0.143680
    114          1           0       10.947054    0.974732   -0.187614
    115          1           0       11.226221   -0.590837    0.914004
    116          1           0       12.841883   -1.654282   -0.421799
    117          1           0       12.793004   -0.286206   -1.764749
    118          1           0       13.761311    1.052766    0.218410
    119          1           0       13.729774   -0.313984    1.157712
    120          1           0       15.332837   -0.127239   -1.411883
    121          1           0       14.894152   -2.491493   -0.701206
    122          1           0       16.527873   -2.076323   -0.867103
    123          1           0       15.644779   -2.401949    0.722891
    124          1           0       15.793098    1.591982    0.453205
    125          1           0       16.344641    0.278503    1.587890
    126          1           0       17.941982   -0.438101    0.032308
    127          1           0       17.796195    0.706888   -1.142409
    128          1           0       18.171512    2.536039    0.649307
    129          1           0       18.708770    1.555470    1.690344
    130          1           0       20.474492    0.783543   -0.280948
    131          1           0       19.704190    3.708677   -0.920407
    132          1           0       20.950074    2.722013   -1.643941
    133          1           0       19.184459    2.192038   -1.702974
    134          1           0       21.061489    2.041601    2.121686
    135          1           0       22.065575    2.676994    0.741108
    136          1           0       20.473572    3.350932    1.328406
    137          1           0       -6.927927    1.885546    0.225746
    138          1           0       -7.455028   -0.311898   -0.055544
 ---------------------------------------------------------------------

 SCF Done:  E(RB3LYP) =  -2733.12110937     A.U. after   16 cycles

 Excitation energies and oscillator strengths:

 Excited State   1:      Singlet-A      2.1033 eV  589.47 nm  f=0.1292  <S**2>=0.000
     235 -> 238        0.33472
     236 -> 237        0.60861
 This state for optimization and/or second-order correction.
 Total Energy, E(TD-HF/TD-DFT) =  -2733.04381454
 Copying the excited state density for this state as the 1-particle RhoCI density.

 The electronic state is 1-A.
 Alpha  occ. eigenvalues --  -19.19452 -19.17110 -19.13928 -19.13406 -19.13308
 Alpha  occ. eigenvalues --  -14.38104 -14.36253 -14.32271 -14.29715 -10.32534
 Alpha  occ. eigenvalues --  -10.32020 -10.28391 -10.24436 -10.24150 -10.24013
 Alpha  occ. eigenvalues --  -10.23778 -10.23549 -10.23475 -10.23461 -10.23374
 Alpha  occ. eigenvalues --  -10.22125 -10.22063 -10.21916 -10.21854 -10.21569
 Alpha  occ. eigenvalues --  -10.21185 -10.20979 -10.20901 -10.20894 -10.20885
 Alpha  occ. eigenvalues --  -10.20860 -10.20808 -10.20594 -10.20389 -10.20222
 Alpha  occ. eigenvalues --  -10.20119 -10.19831 -10.19806 -10.19752 -10.19708
 Alpha  occ. eigenvalues --  -10.19654 -10.19505 -10.19462 -10.19388 -10.19294
 Alpha  occ. eigenvalues --  -10.19274 -10.19216 -10.19154 -10.19055 -10.19039
 Alpha  occ. eigenvalues --  -10.18681 -10.18297 -10.18214 -10.18116 -10.18035
 Alpha  occ. eigenvalues --  -10.18030 -10.17992 -10.17874 -10.17754 -10.17515
 Alpha  occ. eigenvalues --  -10.17208 -10.16954 -10.16882 -10.16365  -1.11839
 Alpha  occ. eigenvalues --   -1.08623  -1.07112  -1.02203  -1.01408  -1.01051
 Alpha  occ. eigenvalues --   -0.97736  -0.94952  -0.93531  -0.84255  -0.82467
 Alpha  occ. eigenvalues --   -0.81921  -0.81521  -0.81405  -0.80795  -0.80541
 Alpha  occ. eigenvalues --   -0.80256  -0.79575  -0.79239  -0.78187  -0.77328
 Alpha  occ. eigenvalues --   -0.76436  -0.75671  -0.75536  -0.74665  -0.74174
 Alpha  occ. eigenvalues --   -0.73782  -0.72668  -0.72643  -0.71605  -0.70737
 Alpha  occ. eigenvalues --   -0.69898  -0.69540  -0.68856  -0.67735  -0.67480
 Alpha  occ. eigenvalues --   -0.67412  -0.66940  -0.66705  -0.65749  -0.64853
 Alpha  occ. eigenvalues --   -0.64381  -0.63515  -0.62974  -0.62094  -0.61779
 Alpha  occ. eigenvalues --   -0.61245  -0.60270  -0.59674  -0.58186  -0.57389
 Alpha  occ. eigenvalues --   -0.57279  -0.56978  -0.56574  -0.56432  -0.55671
 Alpha  occ. eigenvalues --   -0.55191  -0.54503  -0.54310  -0.53577  -0.52953
 Alpha  occ. eigenvalues --   -0.52149  -0.51690  -0.51146  -0.50927  -0.50365
 Alpha  occ. eigenvalues --   -0.49766  -0.49456  -0.49022  -0.48821  -0.48375
 Alpha  occ. eigenvalues --   -0.48261  -0.47602  -0.47330  -0.47187  -0.47113
 Alpha  occ. eigenvalues --   -0.46810  -0.46715  -0.46343  -0.46260  -0.45896
 Alpha  occ. eigenvalues --   -0.45678  -0.45525  -0.45309  -0.44739  -0.44705
 Alpha  occ. eigenvalues --   -0.44446  -0.44234  -0.44150  -0.44010  -0.43808
 Alpha  occ. eigenvalues --   -0.43608  -0.43226  -0.43154  -0.42791  -0.42709
 Alpha  occ. eigenvalues --   -0.42542  -0.42396  -0.42241  -0.42107  -0.41706
 Alpha  occ. eigenvalues --   -0.41333  -0.41143  -0.41062  -0.40986  -0.40702
 Alpha  occ. eigenvalues --   -0.40464  -0.40317  -0.40093  -0.39864  -0.39411
 Alpha  occ. eigenvalues --   -0.39304  -0.39095  -0.38922  -0.38862  -0.38654
 Alpha  occ. eigenvalues --   -0.38462  -0.38239  -0.38005  -0.37816  -0.37591
 Alpha  occ. eigenvalues --   -0.37402  -0.37353  -0.37182  -0.37091  -0.36649
 Alpha  occ. eigenvalues --   -0.36516  -0.36471  -0.36309  -0.36149  -0.35753
 Alpha  occ. eigenvalues --   -0.35644  -0.35436  -0.35181  -0.35125  -0.34867
 Alpha  occ. eigenvalues --   -0.34628  -0.34513  -0.34166  -0.33769  -0.33366
 Alpha  occ. eigenvalues --   -0.33147  -0.33072  -0.32892  -0.32805  -0.32470
 Alpha  occ. eigenvalues --   -0.32385  -0.32268  -0.31700  -0.31648  -0.31234
 Alpha  occ. eigenvalues --   -0.30942  -0.30718  -0.30597  -0.30527  -0.30367
 Alpha  occ. eigenvalues --   -0.30288  -0.29257  -0.28750  -0.28708  -0.28685
 Alpha  occ. eigenvalues --   -0.27963  -0.27372  -0.26911  -0.26445  -0.26037
 Alpha  occ. eigenvalues --   -0.25455  -0.24991  -0.24005  -0.22117  -0.19833
 Alpha  occ. eigenvalues --   -0.18746
 Alpha virt. eigenvalues --   -0.09650  -0.07971  -0.03980  -0.01666  -0.00699
 Alpha virt. eigenvalues --   -0.00422   0.00682   0.00796   0.01902   0.03957
 Alpha virt. eigenvalues --    0.04050   0.04434   0.04655   0.04891   0.05032

 Mulliken charges:
               1
     1  C    0.079738
     2  C   -0.075380
     3  C   -0.127268
     4  C   -0.099813
     5  N   -0.161776
     6  C   -0.047691
     7  C   -0.035607
     8  C   -0.129212
     9  C    0.029081
    10  C    0.151170
    11  C    0.086440
    12  C    0.049059
    13  C    0.179333
    14  O   -0.180323
    15  O   -0.366147
    16  N   -0.110828
    17  C    0.057730
    18  C   -0.168009
    19  C    0.027052
    20  C    0.114930
    21  C    0.136740
    22  C   -0.013815
    23  C   -0.116837
    24  N   -0.189299
    25  C    0.010800
    26  C   -0.148255
    27  C   -0.096841
    28  C    0.029861
    29  C    0.075716
    30  C    0.052994
    31  C    0.014726
    32  N    0.124732
    33  C    0.019869
    34  C   -0.153909
    35  C   -0.151212
    36  C   -0.000542
    37  C    0.183205
    38  C    0.123014
    39  O   -0.099078
    40  C   -0.075936
    41  C    0.184325
    42  O   -0.212571
    43  O   -0.244880
    44  C    0.180502
    45  C    0.273717
    46  C   -0.128768
    47  C   -0.106508
    48  C   -0.069199
    49  C    0.065909
    50  C    0.147689
    51  C    0.013912
    52  C   -0.029921
    53  C   -0.012110
    54  C    0.014929
    55  C    0.005625
    56  C    0.092296
    57  C   -0.002897
    58  C    0.007373
    59  C   -0.016566
    60  C    0.064560
    61  C    0.186236
    62  C   -0.184011
    63  C    0.074455
    64  C    0.060339
    65  H    0.003714
    66  H    0.020979
    67  H    0.032368
    68  H    0.008063
    69  H    0.020930
    70  H   -0.022801
    71  H    0.009267
    72  H    0.002715
    73  H    0.009663
    74  H    0.003840
    75  H   -0.023057
    76  H    0.030177
    77  H    0.044333
    78  H    0.004222
    79  H    0.033615
    80  H    0.011008
    81  H    0.034285
    82  H    0.054286
    83  H    0.036418
    84  H    0.030586
    85  H    0.011395
    86  H   -0.039492
    87  H    0.006132
    88  H    0.021755
    89  H    0.033532
    90  H    0.024291
    91  H    0.004647
    92  H    0.024104
    93  H    0.039553
    94  H    0.065050
    95  H    0.016134
    96  H    0.004145
    97  H    0.015016
    98  H    0.005828
    99  H    0.027905
   100  H    0.020894
   101  H    0.034331
   102  H    0.053316
   103  H    0.036844
   104  H    0.005367
   105  H   -0.025067
   106  H   -0.001988
   107  H   -0.069587
   108  H   -0.017488
   109  H   -0.006107
   110  H   -0.043028
   111  H    0.017190
   112  H    0.014024
   113  H    0.006451
   114  H    0.009384
   115  H   -0.010442
   116  H    0.008640
   117  H   -0.006589
   118  H   -0.035069
   119  H   -0.027469
   120  H   -0.032586
   121  H   -0.014588
   122  H    0.010728
   123  H    0.011554
   124  H   -0.006948
   125  H    0.009660
   126  H   -0.026016
   127  H   -0.013106
   128  H   -0.055462
   129  H   -0.066759
   130  H   -0.000518
   131  H   -0.006400
   132  H    0.002095
   133  H   -0.002877
   134  H   -0.002127
   135  H    0.021180
   136  H   -0.023212
   137  H    0.166617
   138  H    0.097707
 Sum of Mulliken charges =  -0.00000

 Dipole moment (field-independent basis, Debye):
    X=              1.1786    Y=              2.0635    Z=              0.1352  Tot=              2.3802
 Quadrupole moment (field-independent basis, Debye-Ang):
   XX=           -366.4849   YY=           -380.3640   ZZ=           -393.6142
   XY=            -12.2193   XZ=             16.7623   YZ=             -2.7853

 Normal termination of Gaussian 16 at Wed Aug 28 04:33:23 2019.
