 Gaussian 16, Revision A.03,
 Gaussian 16:  ES64L-G16RevA.03 25-Dec-2016

 --------------------------
 # td=(NStates=1) B3LYP/SVP
 --------------------------

 --
 TD
 --
 Symbolic Z-matrix:
 Charge =  0 Multiplicity = 1

                         Standard orientation:
 ---------------------------------------------------------------------
 Center     Atomic      Atomic             Coordinates (Angstroms)
 Number     Number       Type             X           Y           Z
 ---------------------------------------------------------------------
      1          6           0       -5.128859   -1.985332    0.338271
      2          6           0       -4.741210    2.735075    1.623526
      3          6           0       -9.265546    3.280879   -0.328995
      4          6           0       -9.818295   -1.500552   -1.066192
      5          7           0       -5.207538    0.373979    0.978333
      6          6           0       -4.571418   -0.762587    0.891908
      7          6           0       -3.135695   -0.653095    1.387090
      8          6           0       -3.166597    0.824673    1.963638
      9          6           0       -4.498472    1.314034    1.509337
     10          6           0       -2.923918    0.742643    3.442500
     11          6           0       -2.181433   -0.864383    0.173580
     12          6           0       -0.743819   -0.762742    0.750454
     13          6           0        0.363431   -1.025632   -0.448290
     14          8           0        0.017715   -1.276651   -1.607690
     15          8           0        1.670454   -0.744328   -0.118852
     16          7           0       -7.082842    2.724391    0.580093
     17          6           0       -5.912583    3.331860    1.182886
     18          6           0       -6.224208    4.722170    1.050305
     19          6           0       -7.595479    4.970752    0.635199
     20          6           0       -8.031703    3.610349    0.285245
     21          6           0       -5.277594    5.780588    1.709877
     22          6           0       -8.130852    6.358899    0.351536
     23          6           0       -8.794152    6.700778   -0.689533
     24          7           0       -9.180682    0.873985   -0.501199
     25          6           0       -9.801305    2.071725   -0.692894
     26          6           0      -11.172078    1.968788   -1.072824
     27          6           0      -11.408749    0.622464   -1.223161
     28          6           0      -10.192519   -0.044037   -0.864007
     29          6           0      -12.191103    3.115999   -1.252217
     30          6           0      -12.629731   -0.147775   -1.685597
     31          6           0      -12.620477   -0.352299   -3.173527
     32          7           0       -7.499734   -1.308339   -0.335926
     33          6           0       -8.585933   -2.046699   -0.805236
     34          6           0       -8.104699   -3.396166   -0.874520
     35          6           0       -6.882160   -3.422013   -0.392087
     36          6           0       -6.460021   -2.063809   -0.034784
     37          6           0       -9.024228   -4.516300   -1.283595
     38          6           0       -5.811500   -4.330453   -0.105300
     39          8           0       -5.735614   -5.547058   -0.153091
     40          6           0       -4.594864   -3.368784    0.344197
     41          6           0       -3.987381   -3.838588    1.616183
     42          8           0       -4.225395   -3.376834    2.708839
     43          8           0       -3.017392   -4.867059    1.542107
     44          6           0       -2.662121   -5.529398    2.684016
     45          6           0        2.601893   -1.026898   -1.081448
     46          6           0        3.988039   -0.775605   -0.511319
     47          6           0        5.016975    0.104262   -0.921045
     48          6           0        5.041508    0.857300   -2.243023
     49          6           0        6.266318    0.211176   -0.102285
     50          6           0        7.469745   -0.258305   -0.792554
     51          6           0        8.794793   -0.242756    0.126463
     52          6           0       10.085512   -0.699025   -0.621056
     53          6           0       10.085728   -2.143995   -0.989897
     54          6           0       11.395866   -0.304538    0.123665
     55          6           0       12.696451   -0.640726   -0.610532
     56          6           0       13.915645   -0.017052    0.273796
     57          6           0       15.288799   -0.211753   -0.326470
     58          6           0       15.621465   -1.691113   -0.391715
     59          6           0       16.260869    0.633038    0.353683
     60          6           0       17.729390    0.591727   -0.231318
     61          6           0       18.654643    1.635642    0.458934
     62          6           0       20.024418    1.693294   -0.155321
     63          6           0       20.040445    2.380315   -1.509224
     64          6           0       21.083906    2.386136    0.779776
     65          1           0       -4.064820    3.376649    2.162809
     66          1           0       -9.714315    4.426117   -0.473403
     67          1           0      -10.574572   -2.166837   -1.411105
     68          1           0       -2.908557   -1.484567    2.111805
     69          1           0       -2.305428    1.292754    1.323067
     70          1           0       -1.975574    0.184404    3.670432
     71          1           0       -3.069830    1.895507    4.049235
     72          1           0       -3.734929    0.199655    3.766583
     73          1           0       -2.322328   -1.971404   -0.115843
     74          1           0       -2.289171   -0.287131   -0.866631
     75          1           0       -0.288112    0.140732    1.116876
     76          1           0       -0.460833   -1.524956    1.583020
     77          1           0       -4.204786    5.663385    1.332153
     78          1           0       -5.645096    6.879630    1.121938
     79          1           0       -5.554443    6.024293    2.992657
     80          1           0       -7.851732    7.156699    1.099068
     81          1           0       -9.110843    6.150637   -1.481130
     82          1           0       -9.183732    7.561340   -0.658653
     83          1           0      -12.498657    3.416938   -0.185629
     84          1           0      -11.796759    3.997415   -1.917346
     85          1           0      -13.264742    2.682624   -1.648791
     86          1           0      -12.714019   -1.105166   -1.273520
     87          1           0      -13.496622    0.425319   -1.493022
     88          1           0      -12.715062    0.689159   -3.701312
     89          1           0      -11.749478   -0.809063   -3.642459
     90          1           0      -13.376004   -0.829017   -3.727043
     91          1           0      -10.041639   -4.548792   -0.503120
     92          1           0       -9.322544   -4.152987   -2.377089
     93          1           0       -8.469467   -5.454746   -1.392675
     94          1           0       -3.963071   -3.666771   -0.502383
     95          1           0       -1.940790   -6.234884    2.502143
     96          1           0       -2.089206   -4.841700    3.369185
     97          1           0       -3.530094   -5.870125    3.444907
     98          1           0        2.680594   -1.985200   -1.737246
     99          1           0        2.566575   -0.359365   -1.925091
    100          1           0        4.273923   -1.312303    0.286812
    101          1           0        5.609671    1.768783   -2.244952
    102          1           0        5.654085    0.115364   -2.872409
    103          1           0        4.064504    0.796783   -2.879392
    104          1           0        6.307001    1.258308    0.250306
    105          1           0        6.103573   -0.313382    0.981711
    106          1           0        7.415687   -1.323610   -1.038158
    107          1           0        7.656059    0.237739   -1.825754
    108          1           0        8.932212    0.621990    0.590685
    109          1           0        8.415981   -0.956170    1.059543
    110          1           0       10.107895   -0.064779   -1.505866
    111          1           0        9.069453   -2.429262   -1.592412
    112          1           0       10.953990   -2.503513   -1.471611
    113          1           0       10.174766   -2.828521   -0.196272
    114          1           0       11.493984    0.763756    0.474695
    115          1           0       11.383080   -0.887206    1.177444
    116          1           0       12.864137   -1.655121   -0.599934
    117          1           0       12.408500   -0.361618   -1.776533
    118          1           0       13.888606    0.911478    0.724818
    119          1           0       13.734637   -0.539790    1.299264
    120          1           0       15.308263    0.109794   -1.246371
    121          1           0       14.935780   -2.327426   -0.882087
    122          1           0       16.665804   -1.916720   -0.822307
    123          1           0       15.624161   -2.240792    0.630364
    124          1           0       15.968451    1.659795    0.413292
    125          1           0       16.293839    0.464841    1.441971
    126          1           0       18.106443   -0.481074   -0.354297
    127          1           0       17.655083    0.942779   -1.431404
    128          1           0       17.975015    2.415335    0.338505
    129          1           0       18.816674    1.381585    1.550802
    130          1           0       20.246190    0.596948   -0.209254
    131          1           0       19.725696    3.402070   -1.207854
    132          1           0       21.024103    2.444944   -1.930337
    133          1           0       19.452238    1.999827   -2.413029
    134          1           0       21.006841    1.789352    1.747440
    135          1           0       22.036800    2.333868    0.247743
    136          1           0       20.700764    3.442116    0.907292
    137          1           0       -7.321151    1.764772    0.578140
    138          1           0       -7.566039   -0.237078   -0.289195
 ---------------------------------------------------------------------

 SCF Done:  E(RB3LYP) =  -2733.05579255     A.U. after   17 cycles

 Excitation energies and oscillator strengths:

 Excited State   1:      Singlet-A      2.0290 eV  611.06 nm  f=0.1399  <S**2>=0.000
     235 -> 237       -0.10236
     235 -> 238       -0.30373
     236 -> 237        0.61873
     236 -> 238       -0.10208
 This state for optimization and/or second-order correction.
 Total Energy, E(TD-HF/TD-DFT) =  -2732.98122764
 Copying the excited state density for this state as the 1-particle RhoCI density.

 The electronic state is 1-A.
 Alpha  occ. eigenvalues --  -19.18866 -19.16999 -19.13334 -19.12978 -19.12864
 Alpha  occ. eigenvalues --  -14.37210 -14.36509 -14.32204 -14.30453 -10.32289
 Alpha  occ. eigenvalues --  -10.32223 -10.28850 -10.24493 -10.23954 -10.23837
 Alpha  occ. eigenvalues --  -10.23829 -10.23784 -10.23625 -10.23543 -10.23534
 Alpha  occ. eigenvalues --  -10.23177 -10.22382 -10.22314 -10.22202 -10.22183
 Alpha  occ. eigenvalues --  -10.21680 -10.21680 -10.21524 -10.21223 -10.21173
 Alpha  occ. eigenvalues --  -10.21144 -10.21032 -10.20925 -10.20907 -10.20774
 Alpha  occ. eigenvalues --  -10.20408 -10.20269 -10.20151 -10.20074 -10.20059
 Alpha  occ. eigenvalues --  -10.19930 -10.19590 -10.19577 -10.19383 -10.19171
 Alpha  occ. eigenvalues --  -10.19088 -10.19033 -10.19030 -10.18980 -10.18732
 Alpha  occ. eigenvalues --  -10.18698 -10.18678 -10.18647 -10.18601 -10.18456
 Alpha  occ. eigenvalues --  -10.17833 -10.17830 -10.17814 -10.17709 -10.17601
 Alpha  occ. eigenvalues --  -10.17447 -10.17390 -10.17230 -10.16923  -1.09923
 Alpha  occ. eigenvalues --   -1.08857  -1.03335  -1.00795  -1.00312  -0.99504
 Alpha  occ. eigenvalues --   -0.97690  -0.97051  -0.93143  -0.85850  -0.82735
 Alpha  occ. eigenvalues --   -0.82032  -0.82029  -0.81386  -0.80929  -0.80776
 Alpha  occ. eigenvalues --   -0.80698  -0.80113  -0.79758  -0.78928  -0.77512
 Alpha  occ. eigenvalues --   -0.76765  -0.76286  -0.75573  -0.74899  -0.74354
 Alpha  occ. eigenvalues --   -0.73397  -0.73212  -0.72633  -0.71700  -0.70195
 Alpha  occ. eigenvalues --   -0.69582  -0.68970  -0.67947  -0.67708  -0.67626
 Alpha  occ. eigenvalues --   -0.67191  -0.66936  -0.66364  -0.65971  -0.65356
 Alpha  occ. eigenvalues --   -0.64776  -0.63276  -0.62675  -0.62580  -0.61939
 Alpha  occ. eigenvalues --   -0.61019  -0.59118  -0.58801  -0.58719  -0.58079
 Alpha  occ. eigenvalues --   -0.57574  -0.56902  -0.56831  -0.56064  -0.55743
 Alpha  occ. eigenvalues --   -0.55160  -0.55081  -0.54892  -0.54351  -0.53409
 Alpha  occ. eigenvalues --   -0.52937  -0.52409  -0.51838  -0.51078  -0.50558
 Alpha  occ. eigenvalues --   -0.49984  -0.49372  -0.48756  -0.48643  -0.48107
 Alpha  occ. eigenvalues --   -0.47583  -0.47561  -0.47519  -0.47254  -0.46907
 Alpha  occ. eigenvalues --   -0.46765  -0.46534  -0.46280  -0.46260  -0.45935
 Alpha  occ. eigenvalues --   -0.45917  -0.45640  -0.45195  -0.44861  -0.44769
 Alpha  occ. eigenvalues --   -0.44516  -0.44127  -0.44039  -0.43645  -0.43476
 Alpha  occ. eigenvalues --   -0.43460  -0.43257  -0.43193  -0.42927  -0.42587
 Alpha  occ. eigenvalues --   -0.42365  -0.42071  -0.41697  -0.41447  -0.41332
 Alpha  occ. eigenvalues --   -0.41181  -0.40893  -0.40835  -0.40473  -0.40172
 Alpha  occ. eigenvalues --   -0.39985  -0.39820  -0.39618  -0.39443  -0.39393
 Alpha  occ. eigenvalues --   -0.39221  -0.39027  -0.38815  -0.38485  -0.38278
 Alpha  occ. eigenvalues --   -0.38165  -0.38109  -0.37880  -0.37798  -0.37431
 Alpha  occ. eigenvalues --   -0.37193  -0.37185  -0.36857  -0.36806  -0.36612
 Alpha  occ. eigenvalues --   -0.36425  -0.36110  -0.36003  -0.35961  -0.35909
 Alpha  occ. eigenvalues --   -0.35496  -0.35343  -0.35222  -0.34949  -0.34945
 Alpha  occ. eigenvalues --   -0.34793  -0.34625  -0.34292  -0.34065  -0.33824
 Alpha  occ. eigenvalues --   -0.33657  -0.33516  -0.33026  -0.32844  -0.32474
 Alpha  occ. eigenvalues --   -0.31980  -0.31862  -0.31625  -0.31255  -0.31185
 Alpha  occ. eigenvalues --   -0.30886  -0.30825  -0.30734  -0.30272  -0.29870
 Alpha  occ. eigenvalues --   -0.29720  -0.29027  -0.28710  -0.28592  -0.28040
 Alpha  occ. eigenvalues --   -0.27979  -0.27785  -0.27601  -0.26724  -0.26510
 Alpha  occ. eigenvalues --   -0.25638  -0.24271  -0.23026  -0.22951  -0.20467
 Alpha  occ. eigenvalues --   -0.18916
 Alpha virt. eigenvalues --   -0.10314  -0.08692  -0.05115  -0.01839  -0.01379
 Alpha virt. eigenvalues --   -0.00540   0.00235   0.00357   0.02324   0.03030
 Alpha virt. eigenvalues --    0.03727   0.04146   0.04301   0.04393   0.04812

 Mulliken charges:
               1
     1  C    0.000790
     2  C   -0.058405
     3  C   -0.085033
     4  C   -0.053584
     5  N   -0.059104
     6  C   -0.060725
     7  C   -0.119811
     8  C   -0.005916
     9  C   -0.038012
    10  C    0.057842
    11  C    0.008964
    12  C   -0.004464
    13  C    0.183352
    14  O   -0.254395
    15  O   -0.275419
    16  N   -0.046435
    17  C    0.156786
    18  C   -0.136998
    19  C    0.020234
    20  C   -0.058640
    21  C   -0.070342
    22  C   -0.052574
    23  C    0.103409
    24  N   -0.287503
    25  C    0.123323
    26  C   -0.136607
    27  C   -0.103587
    28  C    0.051302
    29  C    0.025647
    30  C    0.196355
    31  C   -0.019678
    32  N   -0.043578
    33  C    0.084265
    34  C   -0.148064
    35  C    0.027878
    36  C    0.078010
    37  C    0.022166
    38  C    0.043952
    39  O   -0.158721
    40  C   -0.027805
    41  C    0.217382
    42  O   -0.216765
    43  O   -0.315611
    44  C    0.194289
    45  C    0.328896
    46  C   -0.100982
    47  C   -0.164172
    48  C    0.049120
    49  C    0.066093
    50  C   -0.014991
    51  C    0.049596
    52  C    0.001069
    53  C    0.051134
    54  C   -0.064171
    55  C    0.056677
    56  C    0.011227
    57  C    0.121442
    58  C    0.002599
    59  C    0.038588
    60  C   -0.093911
    61  C    0.087140
    62  C   -0.104636
    63  C    0.028623
    64  C    0.028852
    65  H   -0.010421
    66  H    0.020631
    67  H   -0.036676
    68  H    0.035361
    69  H    0.018536
    70  H    0.030357
    71  H    0.026267
    72  H    0.006359
    73  H    0.032896
    74  H    0.061236
    75  H    0.033851
    76  H    0.045740
    77  H    0.053364
    78  H    0.031335
    79  H    0.075676
    80  H    0.024485
    81  H   -0.007168
    82  H   -0.040057
    83  H    0.040535
    84  H    0.053450
    85  H    0.030042
    86  H   -0.016858
    87  H   -0.019735
    88  H   -0.001112
    89  H    0.001772
    90  H   -0.010384
    91  H    0.075956
    92  H    0.047482
    93  H    0.043644
    94  H    0.056837
    95  H    0.003649
    96  H   -0.007686
    97  H    0.037979
    98  H    0.031750
    99  H   -0.038308
   100  H   -0.060969
   101  H    0.018681
   102  H    0.033727
   103  H    0.031055
   104  H    0.005436
   105  H    0.008431
   106  H   -0.000436
   107  H    0.010831
   108  H   -0.050915
   109  H   -0.001919
   110  H   -0.013875
   111  H    0.026191
   112  H   -0.013077
   113  H   -0.019180
   114  H    0.004023
   115  H   -0.003429
   116  H   -0.012498
   117  H    0.017788
   118  H   -0.047473
   119  H   -0.013363
   120  H   -0.065965
   121  H   -0.007663
   122  H    0.011453
   123  H   -0.004978
   124  H   -0.027473
   125  H   -0.028316
   126  H    0.012430
   127  H    0.002504
   128  H   -0.030968
   129  H   -0.004536
   130  H   -0.008559
   131  H    0.000303
   132  H   -0.008863
   133  H    0.023092
   134  H    0.022192
   135  H    0.018756
   136  H    0.015404
   137  H    0.122851
   138  H    0.172153
 Sum of Mulliken charges =  -0.00000

 Dipole moment (field-independent basis, Debye):
    X=              0.8992    Y=              3.7564    Z=             -0.1323  Tot=              3.8648
 Quadrupole moment (field-independent basis, Debye-Ang):
   XX=           -338.7844   YY=           -386.0987   ZZ=           -395.0732
   XY=            -20.1839   XZ=              9.8095   YZ=              1.3820

 Normal termination of Gaussian 16 at Sun Aug 18 05:30:29 2019.
