 Gaussian 16, Revision A.03,
 Gaussian 16:  ES64L-G16RevA.03 25-Dec-2016

 --------------------------
 # td=(NStates=1) B3LYP/SVP
 --------------------------

 --
 TD
 --
 Symbolic Z-matrix:
 Charge =  0 Multiplicity = 1

                         Standard orientation:
 ---------------------------------------------------------------------
 Center     Atomic      Atomic             Coordinates (Angstroms)
 Number     Number       Type             X           Y           Z
 ---------------------------------------------------------------------
      1          6           0       -5.124652   -1.954488    0.424435
      2          6           0       -4.639406    2.652453    1.335730
      3          6           0       -9.366907    3.332103   -0.140044
      4          6           0       -9.856517   -1.507784   -1.019999
      5          7           0       -5.163989    0.454334    0.722255
      6          6           0       -4.520021   -0.806453    0.752649
      7          6           0       -3.011563   -0.603976    1.192813
      8          6           0       -2.929137    0.849163    1.729719
      9          6           0       -4.425270    1.327413    1.267670
     10          6           0       -2.803276    1.001884    3.301490
     11          6           0       -2.054847   -0.933565    0.065786
     12          6           0       -0.608528   -0.870791    0.541206
     13          6           0        0.397481   -1.163769   -0.595752
     14          8           0        0.174574   -1.565623   -1.664974
     15          8           0        1.639460   -0.929267   -0.091078
     16          7           0       -7.061493    2.723947    0.464422
     17          6           0       -5.980635    3.351365    0.991483
     18          6           0       -6.273229    4.739796    1.126374
     19          6           0       -7.601206    4.932527    0.694902
     20          6           0       -8.101617    3.647537    0.270299
     21          6           0       -5.270390    5.748924    1.516192
     22          6           0       -8.270607    6.229376    0.562650
     23          6           0       -9.314686    6.596114   -0.353084
     24          7           0       -9.172360    0.892450   -0.642648
     25          6           0       -9.899012    2.022666   -0.570693
     26          6           0      -11.329731    1.844727   -0.910293
     27          6           0      -11.440435    0.525081   -1.194844
     28          6           0       -9.987443   -0.096725   -1.019723
     29          6           0      -12.368571    2.953959   -1.103246
     30          6           0      -12.664956   -0.196968   -1.762344
     31          6           0      -12.752712   -0.425237   -3.164198
     32          7           0       -7.504613   -1.355152   -0.477336
     33          6           0       -8.619560   -2.038407   -0.701737
     34          6           0       -8.122194   -3.424850   -0.646179
     35          6           0       -6.890765   -3.389408   -0.150315
     36          6           0       -6.406266   -2.083406   -0.076956
     37          6           0       -9.067648   -4.694639   -0.888728
     38          6           0       -5.732839   -4.260639    0.095061
     39          8           0       -5.743942   -5.523616    0.022135
     40          6           0       -4.502001   -3.366289    0.429512
     41          6           0       -4.034946   -3.842086    1.753164
     42          8           0       -4.268464   -3.171764    2.754430
     43          8           0       -3.060322   -4.765633    1.559055
     44          6           0       -2.607746   -5.366761    2.883051
     45          6           0        2.760665   -0.992367   -1.079331
     46          6           0        4.064393   -0.726110   -0.480452
     47          6           0        4.958225    0.247440   -0.971802
     48          6           0        4.813376    1.162978   -2.255580
     49          6           0        6.306458    0.389330   -0.182295
     50          6           0        7.544658   -0.205595   -0.969947
     51          6           0        8.807200   -0.039891   -0.157274
     52          6           0       10.095753   -0.519372   -0.891183
     53          6           0        9.932152   -2.001223   -1.317891
     54          6           0       11.288465   -0.251057    0.002910
     55          6           0       12.651459   -0.396469   -0.686053
     56          6           0       13.812479    0.155550    0.199213
     57          6           0       15.215470   -0.204986   -0.400173
     58          6           0       15.515909   -1.687658   -0.248707
     59          6           0       16.247273    0.614940    0.409625
     60          6           0       17.695267    0.545235   -0.171621
     61          6           0       18.761176    1.327768    0.571164
     62          6           0       20.213993    1.443445    0.180487
     63          6           0       20.343630    2.027916   -1.282255
     64          6           0       21.070319    2.266253    1.017734
     65          1           0       -3.945773    3.356963    1.835957
     66          1           0      -10.039631    4.098389   -0.232792
     67          1           0      -10.527657   -2.256703   -1.466173
     68          1           0       -2.777263   -1.410420    2.089344
     69          1           0       -2.224798    1.331861    1.347436
     70          1           0       -1.639963    0.450945    3.489383
     71          1           0       -2.831037    2.057869    3.685016
     72          1           0       -3.445751    0.335328    3.740184
     73          1           0       -2.048016   -1.860841   -0.273512
     74          1           0       -2.348519   -0.177351   -0.825297
     75          1           0       -0.319122    0.159618    0.808029
     76          1           0       -0.502437   -1.317099    1.646590
     77          1           0       -4.430539    6.038923    0.608507
     78          1           0       -5.831018    6.583853    1.543817
     79          1           0       -4.647774    5.583685    2.470513
     80          1           0       -8.049807    6.956075    1.211246
     81          1           0       -9.458411    5.862579   -1.307323
     82          1           0       -9.730207    7.638586   -0.326278
     83          1           0      -12.133661    3.776761   -0.233876
     84          1           0      -12.107957    3.515274   -1.950276
     85          1           0      -13.417258    2.488592   -1.161629
     86          1           0      -12.621137   -1.226035   -1.247240
     87          1           0      -13.589529    0.095317   -1.062741
     88          1           0      -12.895864    0.522768   -4.012925
     89          1           0      -11.744851   -0.875178   -3.485521
     90          1           0      -13.710116   -1.077144   -3.510260
     91          1           0       -9.618856   -4.784695    0.054703
     92          1           0       -9.696324   -4.527404   -1.799039
     93          1           0       -8.259141   -5.503701   -0.959723
     94          1           0       -3.714217   -3.176710   -0.286708
     95          1           0       -1.673086   -6.059597    2.683714
     96          1           0       -2.140925   -4.586143    3.562400
     97          1           0       -3.431784   -6.042367    3.263666
     98          1           0        2.821682   -2.055402   -1.420562
     99          1           0        2.328172   -0.364638   -1.794249
    100          1           0        4.316573   -1.189489    0.385525
    101          1           0        5.116573    2.210543   -1.980858
    102          1           0        5.327855    0.701044   -3.103849
    103          1           0        3.774774    1.045393   -2.648864
    104          1           0        6.573480    1.482430    0.034672
    105          1           0        6.432042   -0.152138    0.718918
    106          1           0        7.434597   -1.238383   -1.228078
    107          1           0        7.665559    0.433090   -1.887813
    108          1           0        8.767862    1.057571    0.137451
    109          1           0        8.540532   -0.630173    0.815603
    110          1           0       10.138435   -0.001197   -1.873690
    111          1           0        9.052400   -2.047053   -1.917088
    112          1           0       10.765608   -2.223567   -1.893969
    113          1           0        9.877293   -2.814233   -0.508183
    114          1           0       11.220973    0.890318    0.466329
    115          1           0       11.022644   -0.877628    1.101053
    116          1           0       12.773234   -1.438178   -0.997411
    117          1           0       12.692169    0.130721   -1.707596
    118          1           0       13.651528    1.379534    0.363172
    119          1           0       13.829015   -0.210334    1.218603
    120          1           0       15.408633    0.271828   -1.474586
    121          1           0       14.719505   -2.264782   -0.668717
    122          1           0       16.555983   -2.074419   -0.613828
    123          1           0       15.196382   -1.844429    0.941016
    124          1           0       16.052006    1.646478    0.358653
    125          1           0       16.195851    0.307895    1.522725
    126          1           0       18.208466   -0.552083   -0.287688
    127          1           0       17.815612    0.877706   -1.323721
    128          1           0       18.615046    2.521542    0.686962
    129          1           0       18.738527    0.881764    1.494740
    130          1           0       20.635851    0.422948    0.124060
    131          1           0       20.109354    3.127202   -1.253196
    132          1           0       21.241680    1.883008   -1.750337
    133          1           0       19.694471    1.429325   -1.951567
    134          1           0       20.925285    1.893648    2.044106
    135          1           0       22.036517    2.242648    0.620867
    136          1           0       20.810935    3.169593    1.001998
    137          1           0       -7.150962    1.686738    0.250974
    138          1           0       -7.491866   -0.358529   -0.539874
 ---------------------------------------------------------------------

 SCF Done:  E(RB3LYP) =  -2733.03713196     A.U. after   16 cycles

 Excitation energies and oscillator strengths:

 Excited State   1:      Singlet-A      2.0208 eV  613.53 nm  f=0.2106  <S**2>=0.000
     235 -> 238       -0.29726
     236 -> 237        0.63713
 This state for optimization and/or second-order correction.
 Total Energy, E(TD-HF/TD-DFT) =  -2732.96286790
 Copying the excited state density for this state as the 1-particle RhoCI density.

 The electronic state is 1-A.
 Alpha  occ. eigenvalues --  -19.19141 -19.16149 -19.13082 -19.12917 -19.12253
 Alpha  occ. eigenvalues --  -14.37149 -14.36920 -14.31758 -14.30933 -10.32172
 Alpha  occ. eigenvalues --  -10.31149 -10.28290 -10.26869 -10.24237 -10.24178
 Alpha  occ. eigenvalues --  -10.23492 -10.23050 -10.22919 -10.22814 -10.22456
 Alpha  occ. eigenvalues --  -10.22271 -10.21946 -10.21868 -10.21613 -10.21531
 Alpha  occ. eigenvalues --  -10.21062 -10.21022 -10.20984 -10.20891 -10.20802
 Alpha  occ. eigenvalues --  -10.20711 -10.20684 -10.20670 -10.20667 -10.20622
 Alpha  occ. eigenvalues --  -10.20359 -10.20235 -10.20224 -10.20143 -10.20121
 Alpha  occ. eigenvalues --  -10.20059 -10.20012 -10.19984 -10.19910 -10.19675
 Alpha  occ. eigenvalues --  -10.19579 -10.19550 -10.19520 -10.19404 -10.19323
 Alpha  occ. eigenvalues --  -10.19145 -10.18975 -10.18861 -10.18845 -10.18599
 Alpha  occ. eigenvalues --  -10.18547 -10.18447 -10.18177 -10.17993 -10.17953
 Alpha  occ. eigenvalues --  -10.17672 -10.17620 -10.16783 -10.15143  -1.09498
 Alpha  occ. eigenvalues --   -1.08567  -1.01122  -1.00607  -1.00415  -0.99511
 Alpha  occ. eigenvalues --   -0.97583  -0.94352  -0.93862  -0.86249  -0.82168
 Alpha  occ. eigenvalues --   -0.81829  -0.81737  -0.81404  -0.80801  -0.80286
 Alpha  occ. eigenvalues --   -0.80084  -0.79984  -0.79465  -0.78785  -0.77241
 Alpha  occ. eigenvalues --   -0.76844  -0.75760  -0.75561  -0.74818  -0.74466
 Alpha  occ. eigenvalues --   -0.73526  -0.73022  -0.72047  -0.71890  -0.70437
 Alpha  occ. eigenvalues --   -0.69335  -0.69292  -0.68228  -0.68227  -0.67745
 Alpha  occ. eigenvalues --   -0.67410  -0.67173  -0.66516  -0.66134  -0.64641
 Alpha  occ. eigenvalues --   -0.64029  -0.62615  -0.62519  -0.61547  -0.61051
 Alpha  occ. eigenvalues --   -0.60230  -0.58815  -0.58747  -0.58001  -0.57357
 Alpha  occ. eigenvalues --   -0.56448  -0.55796  -0.55478  -0.55232  -0.55081
 Alpha  occ. eigenvalues --   -0.54992  -0.54452  -0.54236  -0.54191  -0.53721
 Alpha  occ. eigenvalues --   -0.52561  -0.52131  -0.52016  -0.51300  -0.50866
 Alpha  occ. eigenvalues --   -0.49614  -0.49523  -0.48740  -0.48526  -0.48514
 Alpha  occ. eigenvalues --   -0.48201  -0.47778  -0.47412  -0.47252  -0.47135
 Alpha  occ. eigenvalues --   -0.47005  -0.46767  -0.46198  -0.45718  -0.45543
 Alpha  occ. eigenvalues --   -0.45374  -0.45254  -0.45006  -0.44548  -0.44500
 Alpha  occ. eigenvalues --   -0.44257  -0.43986  -0.43732  -0.43617  -0.43606
 Alpha  occ. eigenvalues --   -0.43537  -0.43322  -0.43133  -0.42652  -0.42196
 Alpha  occ. eigenvalues --   -0.42103  -0.42041  -0.41746  -0.41546  -0.41375
 Alpha  occ. eigenvalues --   -0.40937  -0.40727  -0.40657  -0.40540  -0.40362
 Alpha  occ. eigenvalues --   -0.40141  -0.40005  -0.39710  -0.39656  -0.39607
 Alpha  occ. eigenvalues --   -0.39283  -0.38925  -0.38857  -0.38763  -0.38453
 Alpha  occ. eigenvalues --   -0.38352  -0.38142  -0.37887  -0.37835  -0.37591
 Alpha  occ. eigenvalues --   -0.37242  -0.37175  -0.36933  -0.36798  -0.36730
 Alpha  occ. eigenvalues --   -0.36625  -0.36403  -0.36331  -0.36191  -0.35985
 Alpha  occ. eigenvalues --   -0.35805  -0.35655  -0.35358  -0.35181  -0.35094
 Alpha  occ. eigenvalues --   -0.34885  -0.34458  -0.34318  -0.34237  -0.33946
 Alpha  occ. eigenvalues --   -0.33049  -0.32835  -0.32750  -0.32482  -0.32300
 Alpha  occ. eigenvalues --   -0.32223  -0.31966  -0.31896  -0.31765  -0.31373
 Alpha  occ. eigenvalues --   -0.30800  -0.30578  -0.30405  -0.30059  -0.29840
 Alpha  occ. eigenvalues --   -0.29767  -0.29526  -0.28634  -0.28386  -0.28306
 Alpha  occ. eigenvalues --   -0.28090  -0.26750  -0.26493  -0.26200  -0.25836
 Alpha  occ. eigenvalues --   -0.24941  -0.24220  -0.23553  -0.23436  -0.19780
 Alpha  occ. eigenvalues --   -0.18954
 Alpha virt. eigenvalues --   -0.10554  -0.07777  -0.04998  -0.02796  -0.01428
 Alpha virt. eigenvalues --   -0.01208   0.00757   0.01094   0.02189   0.03860
 Alpha virt. eigenvalues --    0.04119   0.04229   0.04458   0.04758   0.04842

 Mulliken charges:
               1
     1  C   -0.061862
     2  C   -0.052167
     3  C   -0.023132
     4  C   -0.064573
     5  N   -0.143791
     6  C   -0.046954
     7  C   -0.103173
     8  C    0.060461
     9  C    0.024023
    10  C    0.024059
    11  C    0.099561
    12  C   -0.048566
    13  C    0.187504
    14  O   -0.180850
    15  O   -0.364056
    16  N   -0.086314
    17  C    0.039032
    18  C   -0.131271
    19  C    0.060218
    20  C    0.108609
    21  C    0.081655
    22  C   -0.037798
    23  C   -0.081251
    24  N   -0.197683
    25  C    0.015937
    26  C   -0.128848
    27  C   -0.150256
    28  C    0.060965
    29  C    0.089407
    30  C    0.052364
    31  C   -0.048947
    32  N    0.003498
    33  C    0.028070
    34  C   -0.215742
    35  C    0.049556
    36  C    0.095548
    37  C    0.067250
    38  C    0.067577
    39  O   -0.225882
    40  C    0.050599
    41  C    0.236342
    42  O   -0.234978
    43  O   -0.319004
    44  C    0.125851
    45  C    0.319447
    46  C   -0.042492
    47  C   -0.144254
    48  C    0.076021
    49  C    0.056639
    50  C   -0.016851
    51  C   -0.015701
    52  C   -0.048159
    53  C    0.057998
    54  C   -0.043233
    55  C    0.069384
    56  C   -0.012488
    57  C   -0.102799
    58  C    0.029369
    59  C    0.074000
    60  C   -0.042577
    61  C    0.031384
    62  C   -0.115025
    63  C    0.031372
    64  C    0.208743
    65  H   -0.019318
    66  H   -0.089052
    67  H    0.003120
    68  H    0.035722
    69  H   -0.083427
    70  H    0.010161
    71  H    0.037826
    72  H    0.016512
    73  H   -0.023029
    74  H    0.029658
    75  H    0.018317
    76  H    0.052761
    77  H    0.043325
    78  H   -0.031400
    79  H    0.048001
    80  H   -0.028858
    81  H    0.065201
    82  H    0.044493
    83  H    0.036723
    84  H    0.012303
    85  H    0.042303
    86  H    0.000690
    87  H    0.014779
    88  H    0.021836
    89  H    0.030894
    90  H    0.035588
    91  H    0.044424
    92  H    0.037579
    93  H    0.059226
    94  H    0.068714
    95  H    0.048568
    96  H    0.062246
    97  H    0.070095
    98  H    0.026113
    99  H   -0.001001
   100  H   -0.038568
   101  H    0.046013
   102  H    0.033437
   103  H    0.004300
   104  H    0.008410
   105  H   -0.019983
   106  H    0.003041
   107  H   -0.006481
   108  H   -0.003808
   109  H   -0.001474
   110  H   -0.010299
   111  H    0.000163
   112  H   -0.016088
   113  H    0.014623
   114  H    0.006281
   115  H    0.016252
   116  H   -0.001715
   117  H    0.005810
   118  H    0.016452
   119  H   -0.006665
   120  H    0.007402
   121  H   -0.006844
   122  H    0.049858
   123  H    0.006968
   124  H   -0.016841
   125  H   -0.000627
   126  H    0.001898
   127  H    0.007734
   128  H   -0.010599
   129  H   -0.029832
   130  H   -0.026283
   131  H    0.007443
   132  H   -0.022644
   133  H   -0.005275
   134  H   -0.006477
   135  H   -0.014993
   136  H   -0.075525
   137  H    0.170262
   138  H    0.121814
 Sum of Mulliken charges =  -0.00000

 Dipole moment (field-independent basis, Debye):
    X=              3.1199    Y=              3.4525    Z=              0.2835  Tot=              4.6619
 Quadrupole moment (field-independent basis, Debye-Ang):
   XX=           -367.8680   YY=           -381.8508   ZZ=           -393.9250
   XY=            -23.4937   XZ=              1.6897   YZ=             -5.9877

 Normal termination of Gaussian 16 at Thu Aug 22 04:16:05 2019.
