 Gaussian 16, Revision A.03,
 Gaussian 16:  ES64L-G16RevA.03 25-Dec-2016

 --------------------------
 # td=(NStates=1) B3LYP/SVP
 --------------------------

 --
 TD
 --
 Symbolic Z-matrix:
 Charge =  0 Multiplicity = 1

                         Standard orientation:
 ---------------------------------------------------------------------
 Center     Atomic      Atomic             Coordinates (Angstroms)
 Number     Number       Type             X           Y           Z
 ---------------------------------------------------------------------
      1          6           0       -5.137794   -1.984625    0.355351
      2          6           0       -4.613062    2.733007    1.381653
      3          6           0       -9.213237    3.514368   -0.068319
      4          6           0       -9.866878   -1.294990   -0.773294
      5          7           0       -5.197056    0.397566    0.809578
      6          6           0       -4.544119   -0.796943    0.785692
      7          6           0       -3.084555   -0.734479    1.143061
      8          6           0       -2.985538    0.721600    1.714959
      9          6           0       -4.286761    1.391836    1.235999
     10          6           0       -2.900166    0.742749    3.273161
     11          6           0       -2.096699   -1.008279    0.001631
     12          6           0       -0.683184   -0.761874    0.425673
     13          6           0        0.379348   -1.216772   -0.749128
     14          8           0       -0.014731   -1.603186   -1.844741
     15          8           0        1.614343   -1.170599   -0.410216
     16          7           0       -6.928136    2.664980    0.447241
     17          6           0       -5.856516    3.365917    1.041271
     18          6           0       -5.943332    4.790397    0.939092
     19          6           0       -7.188389    5.077779    0.530975
     20          6           0       -7.883680    3.738130    0.288353
     21          6           0       -4.905269    5.666531    1.424654
     22          6           0       -7.685004    6.409497    0.259425
     23          6           0       -8.771817    6.785093   -0.573952
     24          7           0       -9.135472    1.096368   -0.259076
     25          6           0       -9.817271    2.301151   -0.500188
     26          6           0      -11.226027    2.135217   -0.799967
     27          6           0      -11.346403    0.706913   -0.987579
     28          6           0      -10.046106    0.195773   -0.662939
     29          6           0      -12.194584    3.267587   -1.149072
     30          6           0      -12.520794    0.063447   -1.476744
     31          6           0      -12.752364   -0.209772   -2.917276
     32          7           0       -7.596044   -1.171651   -0.182232
     33          6           0       -8.694042   -1.900133   -0.524601
     34          6           0       -8.335602   -3.369330   -0.628639
     35          6           0       -6.910645   -3.411209   -0.424472
     36          6           0       -6.572936   -2.067204    0.001211
     37          6           0       -9.217308   -4.459505   -1.203149
     38          6           0       -5.853339   -4.319200   -0.025416
     39          8           0       -5.829035   -5.581845   -0.119100
     40          6           0       -4.634031   -3.459527    0.409541
     41          6           0       -4.047056   -3.903067    1.689255
     42          8           0       -4.180647   -3.268494    2.811094
     43          8           0       -3.217969   -4.909762    1.497977
     44          6           0       -2.701074   -5.612217    2.705703
     45          6           0        2.805207   -1.400871   -1.328245
     46          6           0        4.054648   -1.080802   -0.547701
     47          6           0        4.873076   -0.093158   -0.960269
     48          6           0        4.856520    0.786210   -2.109153
     49          6           0        6.205967    0.034252   -0.193567
     50          6           0        7.498753   -0.628462   -0.819635
     51          6           0        8.752497   -0.495463    0.010293
     52          6           0       10.090764   -0.918953   -0.811605
     53          6           0       10.074104   -2.411656   -1.102761
     54          6           0       11.322162   -0.406181    0.128460
     55          6           0       12.648847   -0.729307   -0.421024
     56          6           0       13.801563   -0.218559    0.271924
     57          6           0       15.242173   -0.274504   -0.354299
     58          6           0       15.649484   -1.638857   -0.763505
     59          6           0       16.181218    0.480821    0.556381
     60          6           0       17.552167    0.828774   -0.004324
     61          6           0       18.449923    1.836096    0.665618
     62          6           0       19.889683    2.043298    0.094930
     63          6           0       19.822687    2.761847   -1.336046
     64          6           0       20.837697    2.790389    1.001067
     65          1           0       -3.774096    3.407481    1.755064
     66          1           0       -9.749558    4.464335   -0.219284
     67          1           0      -10.702018   -1.824867   -1.252647
     68          1           0       -2.728110   -1.317578    2.114905
     69          1           0       -2.191775    1.434196    1.170618
     70          1           0       -2.088291    0.114915    3.483525
     71          1           0       -2.939004    1.898099    3.513985
     72          1           0       -3.691542    0.269326    3.715419
     73          1           0       -2.193146   -2.055133   -0.607847
     74          1           0       -2.151612   -0.130620   -0.724262
     75          1           0       -0.199838    0.063096    0.655859
     76          1           0       -0.251540   -1.360818    1.216188
     77          1           0       -4.083730    5.806812    0.509981
     78          1           0       -5.207205    6.937665    1.703278
     79          1           0       -4.134557    5.454338    2.186955
     80          1           0       -7.168626    7.327662    0.654322
     81          1           0       -9.632902    6.131885   -1.210872
     82          1           0       -9.068474    7.995553   -0.692635
     83          1           0      -12.377348    3.954923   -0.462642
     84          1           0      -11.680105    3.783521   -2.029225
     85          1           0      -13.063785    2.993490   -1.696378
     86          1           0      -12.475360   -0.895214   -1.028088
     87          1           0      -13.390416    0.584511   -0.814987
     88          1           0      -12.847924    0.827688   -3.314742
     89          1           0      -11.789902   -0.748247   -3.264678
     90          1           0      -13.672313   -0.981431   -3.204165
     91          1           0      -10.421431   -4.272479   -0.726727
     92          1           0       -9.329963   -4.533136   -2.310414
     93          1           0       -8.825459   -5.286818   -0.932200
     94          1           0       -3.750874   -3.476403   -0.414609
     95          1           0       -1.793628   -6.129328    2.211940
     96          1           0       -2.652878   -4.629865    3.317719
     97          1           0       -3.485188   -6.299691    3.107824
     98          1           0        2.917870   -2.500758   -1.658125
     99          1           0        2.573114   -0.691208   -2.258663
    100          1           0        4.159530   -1.818591    0.253593
    101          1           0        5.509635    1.760682   -1.927890
    102          1           0        5.397745    0.245650   -3.047247
    103          1           0        3.830746    1.047126   -2.364528
    104          1           0        6.566338    1.045794   -0.073331
    105          1           0        6.076179   -0.496886    0.767135
    106          1           0        7.317693   -1.688028   -1.207977
    107          1           0        7.596369   -0.048024   -1.764390
    108          1           0        8.866066    0.636118    0.417493
    109          1           0        8.857418   -1.318616    0.912510
    110          1           0       10.097695   -0.431181   -1.665542
    111          1           0        9.126131   -2.628405   -1.713060
    112          1           0       10.957153   -2.583776   -1.859052
    113          1           0       10.025284   -2.999289   -0.126413
    114          1           0       11.282287    0.648571    0.383372
    115          1           0       11.003993   -1.218609    1.028134
    116          1           0       12.564205   -1.872426   -0.223125
    117          1           0       12.941226   -0.354358   -1.524287
    118          1           0       13.782014    0.821247    0.557092
    119          1           0       13.859714   -0.818707    1.320501
    120          1           0       15.165179    0.472762   -1.165058
    121          1           0       15.043830   -2.099223   -1.481082
    122          1           0       16.562897   -1.703893   -1.470280
    123          1           0       15.631516   -2.437202    0.062005
    124          1           0       15.559340    1.392996    0.829653
    125          1           0       16.344438   -0.115357    1.582307
    126          1           0       18.075775   -0.215542    0.020916
    127          1           0       17.526140    1.076571   -1.018306
    128          1           0       17.975543    2.971401    0.787156
    129          1           0       18.584212    1.621090    1.717732
    130          1           0       20.358304    0.914694   -0.079221
    131          1           0       19.504546    3.803332   -1.082816
    132          1           0       20.709978    2.646378   -1.711197
    133          1           0       19.223164    2.087152   -1.948723
    134          1           0       20.716118    2.359916    2.109190
    135          1           0       21.798369    2.727807    0.465838
    136          1           0       20.613212    3.785186    1.371308
    137          1           0       -7.251608    1.744518    0.631235
    138          1           0       -7.752915   -0.093221   -0.157517
 ---------------------------------------------------------------------

 SCF Done:  E(RB3LYP) =  -2732.96555913     A.U. after   17 cycles

 Excitation energies and oscillator strengths:

 Excited State   1:      Singlet-A      1.8990 eV  652.90 nm  f=0.0933  <S**2>=0.000
     235 -> 237       -0.14651
     235 -> 238       -0.33639
     236 -> 237        0.58094
     236 -> 238       -0.15179
 This state for optimization and/or second-order correction.
 Total Energy, E(TD-HF/TD-DFT) =  -2732.89577354
 Copying the excited state density for this state as the 1-particle RhoCI density.

 The electronic state is 1-A.
 Alpha  occ. eigenvalues --  -19.18132 -19.17681 -19.12163 -19.11842 -19.10084
 Alpha  occ. eigenvalues --  -14.37025 -14.36966 -14.31696 -14.30421 -10.31944
 Alpha  occ. eigenvalues --  -10.30343 -10.28433 -10.27322 -10.25838 -10.24489
 Alpha  occ. eigenvalues --  -10.24421 -10.23939 -10.23390 -10.23149 -10.23046
 Alpha  occ. eigenvalues --  -10.23025 -10.22574 -10.22538 -10.22518 -10.22358
 Alpha  occ. eigenvalues --  -10.21680 -10.21610 -10.21419 -10.21335 -10.21156
 Alpha  occ. eigenvalues --  -10.21057 -10.20778 -10.20593 -10.20576 -10.20359
 Alpha  occ. eigenvalues --  -10.20285 -10.20209 -10.20147 -10.20144 -10.20103
 Alpha  occ. eigenvalues --  -10.20097 -10.20075 -10.20015 -10.19897 -10.19793
 Alpha  occ. eigenvalues --  -10.19654 -10.19547 -10.19249 -10.18967 -10.18963
 Alpha  occ. eigenvalues --  -10.18955 -10.18953 -10.18898 -10.18882 -10.18843
 Alpha  occ. eigenvalues --  -10.18494 -10.18476 -10.18437 -10.18322 -10.18158
 Alpha  occ. eigenvalues --  -10.18156 -10.18082 -10.17880 -10.16916  -1.09131
 Alpha  occ. eigenvalues --   -1.08799  -0.99933  -0.98097  -0.97869  -0.96836
 Alpha  occ. eigenvalues --   -0.96305  -0.93018  -0.92314  -0.84205  -0.83423
 Alpha  occ. eigenvalues --   -0.83226  -0.82725  -0.80875  -0.80582  -0.80340
 Alpha  occ. eigenvalues --   -0.79695  -0.79598  -0.79138  -0.78279  -0.77626
 Alpha  occ. eigenvalues --   -0.76871  -0.76081  -0.75695  -0.74870  -0.74216
 Alpha  occ. eigenvalues --   -0.73845  -0.73368  -0.72814  -0.71962  -0.70398
 Alpha  occ. eigenvalues --   -0.69992  -0.69445  -0.68552  -0.68163  -0.67999
 Alpha  occ. eigenvalues --   -0.67780  -0.67341  -0.66547  -0.65386  -0.65097
 Alpha  occ. eigenvalues --   -0.64133  -0.62487  -0.62315  -0.61575  -0.61194
 Alpha  occ. eigenvalues --   -0.60447  -0.58883  -0.57689  -0.56426  -0.56256
 Alpha  occ. eigenvalues --   -0.56052  -0.56008  -0.55304  -0.55027  -0.54968
 Alpha  occ. eigenvalues --   -0.54489  -0.54240  -0.53677  -0.53575  -0.53171
 Alpha  occ. eigenvalues --   -0.52585  -0.51313  -0.51031  -0.50624  -0.49780
 Alpha  occ. eigenvalues --   -0.49416  -0.49327  -0.49204  -0.48214  -0.47977
 Alpha  occ. eigenvalues --   -0.47740  -0.47557  -0.47487  -0.47195  -0.46973
 Alpha  occ. eigenvalues --   -0.46683  -0.46552  -0.45698  -0.45643  -0.45502
 Alpha  occ. eigenvalues --   -0.45059  -0.44994  -0.44731  -0.44491  -0.44306
 Alpha  occ. eigenvalues --   -0.44137  -0.44096  -0.43943  -0.43751  -0.43453
 Alpha  occ. eigenvalues --   -0.43323  -0.43153  -0.43104  -0.42939  -0.42596
 Alpha  occ. eigenvalues --   -0.42400  -0.41939  -0.41783  -0.41719  -0.41570
 Alpha  occ. eigenvalues --   -0.41021  -0.40888  -0.40722  -0.40384  -0.40246
 Alpha  occ. eigenvalues --   -0.40014  -0.39942  -0.39584  -0.39477  -0.39253
 Alpha  occ. eigenvalues --   -0.39114  -0.38798  -0.38569  -0.38442  -0.38430
 Alpha  occ. eigenvalues --   -0.38147  -0.37991  -0.37872  -0.37802  -0.37696
 Alpha  occ. eigenvalues --   -0.37440  -0.37398  -0.37178  -0.36681  -0.36487
 Alpha  occ. eigenvalues --   -0.36279  -0.35918  -0.35756  -0.35660  -0.35500
 Alpha  occ. eigenvalues --   -0.35259  -0.35165  -0.34695  -0.34057  -0.33980
 Alpha  occ. eigenvalues --   -0.33865  -0.33766  -0.33615  -0.33572  -0.33296
 Alpha  occ. eigenvalues --   -0.33266  -0.32806  -0.32278  -0.32136  -0.32000
 Alpha  occ. eigenvalues --   -0.31818  -0.31735  -0.31661  -0.31261  -0.31216
 Alpha  occ. eigenvalues --   -0.31048  -0.30644  -0.30332  -0.29762  -0.29545
 Alpha  occ. eigenvalues --   -0.29342  -0.29051  -0.28179  -0.27892  -0.27638
 Alpha  occ. eigenvalues --   -0.27080  -0.26561  -0.26258  -0.25829  -0.25671
 Alpha  occ. eigenvalues --   -0.25138  -0.24711  -0.24233  -0.21867  -0.19424
 Alpha  occ. eigenvalues --   -0.18601
 Alpha virt. eigenvalues --   -0.10259  -0.08869  -0.04943  -0.02731  -0.02123
 Alpha virt. eigenvalues --   -0.01910  -0.00300   0.02047   0.02624   0.02778
 Alpha virt. eigenvalues --    0.02865   0.03302   0.03486   0.04345   0.04378

 Mulliken charges:
               1
     1  C   -0.013899
     2  C   -0.095589
     3  C   -0.049549
     4  C   -0.131842
     5  N   -0.206877
     6  C   -0.000851
     7  C   -0.060907
     8  C   -0.133852
     9  C    0.015613
    10  C    0.150903
    11  C    0.078465
    12  C    0.072836
    13  C    0.106975
    14  O   -0.273561
    15  O   -0.290275
    16  N   -0.070320
    17  C    0.117869
    18  C   -0.033297
    19  C    0.089388
    20  C    0.058174
    21  C   -0.058134
    22  C   -0.056952
    23  C   -0.156602
    24  N   -0.298948
    25  C    0.079252
    26  C   -0.137185
    27  C   -0.143464
    28  C    0.060828
    29  C    0.157687
    30  C    0.045345
    31  C    0.001555
    32  N   -0.063763
    33  C    0.116879
    34  C   -0.099395
    35  C   -0.031745
    36  C    0.067477
    37  C    0.105333
    38  C    0.105481
    39  O   -0.224773
    40  C   -0.014542
    41  C    0.231903
    42  O   -0.313215
    43  O   -0.297365
    44  C    0.117644
    45  C    0.193188
    46  C   -0.078458
    47  C   -0.094995
    48  C    0.022165
    49  C    0.067485
    50  C    0.003852
    51  C   -0.040677
    52  C   -0.035057
    53  C   -0.016852
    54  C   -0.012045
    55  C    0.069296
    56  C   -0.020073
    57  C   -0.060952
    58  C    0.070698
    59  C   -0.008946
    60  C    0.075697
    61  C    0.036444
    62  C   -0.197833
    63  C    0.127300
    64  C    0.035331
    65  H   -0.014183
    66  H   -0.037503
    67  H   -0.009932
    68  H    0.038134
    69  H    0.019482
    70  H    0.001535
    71  H    0.026251
    72  H   -0.001064
    73  H    0.063672
    74  H    0.018156
    75  H   -0.034153
    76  H   -0.009864
    77  H    0.037661
    78  H    0.050184
    79  H    0.045273
    80  H    0.020988
    81  H    0.078698
    82  H    0.050637
    83  H   -0.007991
    84  H    0.016226
    85  H   -0.005806
    86  H   -0.027326
    87  H    0.021083
    88  H    0.018048
    89  H    0.022683
    90  H    0.041740
    91  H    0.041342
    92  H    0.049004
    93  H   -0.018552
    94  H    0.096727
    95  H    0.068413
    96  H    0.076845
    97  H    0.061706
    98  H    0.054086
    99  H    0.049902
   100  H    0.011061
   101  H    0.038434
   102  H    0.061865
   103  H    0.030377
   104  H   -0.007990
   105  H   -0.001441
   106  H    0.007940
   107  H   -0.015612
   108  H    0.021479
   109  H    0.015557
   110  H   -0.055986
   111  H    0.020973
   112  H    0.040796
   113  H    0.024574
   114  H   -0.006401
   115  H    0.012056
   116  H    0.014734
   117  H    0.005160
   118  H   -0.024628
   119  H   -0.014175
   120  H   -0.019601
   121  H   -0.025098
   122  H    0.005590
   123  H    0.016418
   124  H   -0.009087
   125  H    0.001636
   126  H    0.004874
   127  H   -0.032334
   128  H   -0.009062
   129  H   -0.025373
   130  H    0.004991
   131  H    0.025465
   132  H   -0.047221
   133  H   -0.001952
   134  H    0.005702
   135  H    0.023404
   136  H   -0.001225
   137  H    0.153709
   138  H    0.190015
 Sum of Mulliken charges =  -0.00000

 Dipole moment (field-independent basis, Debye):
    X=              4.3553    Y=              4.0428    Z=             -0.5764  Tot=              5.9703
 Quadrupole moment (field-independent basis, Debye-Ang):
   XX=           -364.1810   YY=           -375.5763   ZZ=           -400.5853
   XY=            -23.3101   XZ=              0.2493   YZ=             -2.2628

 Normal termination of Gaussian 16 at Thu Aug 22 17:46:08 2019.
