 Gaussian 16, Revision A.03,
 Gaussian 16:  ES64L-G16RevA.03 25-Dec-2016

 --------------------------
 # td=(NStates=1) B3LYP/SVP
 --------------------------

 --
 TD
 --
 Symbolic Z-matrix:
 Charge =  0 Multiplicity = 1

                         Standard orientation:
 ---------------------------------------------------------------------
 Center     Atomic      Atomic             Coordinates (Angstroms)
 Number     Number       Type             X           Y           Z
 ---------------------------------------------------------------------
      1          6           0       -5.086046   -1.893023    0.467568
      2          6           0       -4.771577    2.833821    1.458048
      3          6           0       -9.317321    3.236674   -0.367152
      4          6           0       -9.760254   -1.549379   -0.985466
      5          7           0       -5.282742    0.442680    0.719720
      6          6           0       -4.616517   -0.603994    0.767903
      7          6           0       -3.125971   -0.483604    1.302469
      8          6           0       -3.116641    0.986424    1.934113
      9          6           0       -4.490989    1.437173    1.359360
     10          6           0       -3.135956    0.952402    3.457379
     11          6           0       -2.211504   -0.515618    0.069934
     12          6           0       -0.668299   -0.676873    0.590955
     13          6           0        0.333534   -1.051267   -0.523808
     14          8           0        0.005640   -1.423311   -1.639314
     15          8           0        1.649209   -0.722432   -0.125579
     16          7           0       -7.009496    2.780819    0.439479
     17          6           0       -5.919303    3.428653    1.028403
     18          6           0       -6.205693    4.768300    0.929846
     19          6           0       -7.537459    4.959905    0.389825
     20          6           0       -8.011917    3.629157    0.077527
     21          6           0       -5.305610    5.829028    1.363137
     22          6           0       -8.114642    6.226133    0.173763
     23          6           0       -9.197401    6.589415   -0.697000
     24          7           0       -9.180317    0.839324   -0.520404
     25          6           0       -9.845187    1.994062   -0.622723
     26          6           0      -11.351534    1.755970   -0.936895
     27          6           0      -11.421484    0.373258   -1.078051
     28          6           0      -10.120215   -0.171593   -0.840345
     29          6           0      -12.272836    2.932897   -1.054280
     30          6           0      -12.685667   -0.462389   -1.412167
     31          6           0      -12.633102   -0.895964   -2.925362
     32          7           0       -7.481922   -1.307477   -0.251701
     33          6           0       -8.543438   -2.139972   -0.571263
     34          6           0       -8.071169   -3.409113   -0.601241
     35          6           0       -6.704525   -3.350939   -0.295933
     36          6           0       -6.408438   -2.066102   -0.035049
     37          6           0       -8.914995   -4.673286   -0.928817
     38          6           0       -5.608157   -4.202438   -0.025820
     39          8           0       -5.560920   -5.399060    0.019664
     40          6           0       -4.464726   -3.215733    0.532540
     41          6           0       -3.959125   -3.796588    1.854006
     42          8           0       -4.360737   -3.420504    2.834531
     43          8           0       -2.966433   -4.620960    1.560824
     44          6           0       -2.520532   -5.327093    2.793998
     45          6           0        2.670677   -1.015427   -1.093427
     46          6           0        3.944109   -0.560744   -0.523892
     47          6           0        4.901969    0.082322   -1.181067
     48          6           0        4.780576    0.594162   -2.596234
     49          6           0        6.256779    0.346281   -0.415705
     50          6           0        7.500779   -0.269455   -1.126987
     51          6           0        8.891392    0.076120   -0.418600
     52          6           0       10.225236   -0.655597   -1.073114
     53          6           0       10.063550   -2.124527   -1.140647
     54          6           0       11.348828   -0.103189   -0.299341
     55          6           0       12.701897   -0.560084   -0.920079
     56          6           0       13.789448    0.056632    0.106078
     57          6           0       15.374050   -0.189728   -0.370576
     58          6           0       15.643851   -1.682532   -0.435462
     59          6           0       16.247661    0.527197    0.519956
     60          6           0       17.755745    0.595121   -0.010767
     61          6           0       18.673153    1.472130    0.791924
     62          6           0       20.152534    1.394902    0.402914
     63          6           0       20.356026    1.915097   -0.990231
     64          6           0       20.966516    2.301586    1.343711
     65          1           0       -4.160248    3.467617    2.126282
     66          1           0      -10.098812    3.984099   -0.539888
     67          1           0      -10.559736   -2.285307   -1.112038
     68          1           0       -3.096781   -1.157374    2.157759
     69          1           0       -2.373541    1.521376    1.423325
     70          1           0       -2.119336    0.595801    3.867570
     71          1           0       -3.122517    1.991657    3.759577
     72          1           0       -3.939502    0.451956    3.832249
     73          1           0       -2.380892   -1.516843   -0.329418
     74          1           0       -2.384110    0.274828   -0.574373
     75          1           0       -0.386836    0.127212    1.091188
     76          1           0       -0.502718   -1.569294    1.254054
     77          1           0       -4.451539    5.738111    1.035094
     78          1           0       -5.724050    6.759366    1.201804
     79          1           0       -5.126794    5.641391    2.538974
     80          1           0       -7.850048    6.951383    0.964235
     81          1           0       -9.595987    5.807734   -1.267163
     82          1           0       -9.608148    7.526301   -0.586335
     83          1           0      -12.131571    3.727652   -0.276657
     84          1           0      -12.193067    3.611730   -2.093681
     85          1           0      -13.400270    2.556460   -1.133349
     86          1           0      -12.565365   -1.541895   -0.755526
     87          1           0      -13.556490    0.112781   -1.158767
     88          1           0      -12.589650   -0.047358   -3.684440
     89          1           0      -11.866434   -1.436588   -3.228121
     90          1           0      -13.611830   -1.327527   -3.120130
     91          1           0       -9.866678   -4.606079   -0.324969
     92          1           0       -9.256544   -4.561083   -1.881837
     93          1           0       -8.434080   -5.528802   -0.560566
     94          1           0       -3.482171   -3.355109   -0.029739
     95          1           0       -2.027524   -6.125380    2.373426
     96          1           0       -2.167541   -4.588752    3.450266
     97          1           0       -3.370480   -5.626104    3.546187
     98          1           0        2.568593   -2.110738   -1.304391
     99          1           0        2.822251   -0.687601   -2.036310
    100          1           0        4.091600   -0.847967    0.413502
    101          1           0        5.025861    1.693477   -2.623659
    102          1           0        5.496936    0.175207   -3.341424
    103          1           0        3.780277    0.493429   -2.911878
    104          1           0        6.274188    1.559385   -0.605566
    105          1           0        6.022856    0.208175    0.650077
    106          1           0        7.489482   -1.357581   -1.251023
    107          1           0        7.598001    0.046850   -2.218719
    108          1           0        8.939091    1.085525   -0.234196
    109          1           0        8.629368   -0.197703    0.480465
    110          1           0       10.261539   -0.019386   -2.038979
    111          1           0        9.077815   -2.180318   -1.905200
    112          1           0       10.946694   -2.633111   -1.449719
    113          1           0        9.972738   -2.801882   -0.291524
    114          1           0       11.262861    0.954734   -0.044866
    115          1           0       11.189569   -0.555152    0.706665
    116          1           0       12.575996   -1.654811   -0.847949
    117          1           0       12.906958   -0.159021   -1.967075
    118          1           0       13.642183    1.165844    0.285083
    119          1           0       13.541390   -0.432276    1.050512
    120          1           0       15.441577    0.134343   -1.349694
    121          1           0       14.741011   -1.888288   -1.300653
    122          1           0       16.706023   -1.906455   -0.855034
    123          1           0       15.564803   -2.304867    0.431984
    124          1           0       15.897194    1.554000    0.675352
    125          1           0       16.143812    0.132799    1.638121
    126          1           0       18.245962   -0.501076    0.099361
    127          1           0       17.540210    0.863486   -1.078732
    128          1           0       18.425266    2.792354    0.791507
    129          1           0       18.545715    1.466744    2.070827
    130          1           0       20.547916    0.353936    0.364232
    131          1           0       20.091537    2.959183   -1.146905
    132          1           0       21.329643    1.853206   -1.346655
    133          1           0       19.501583    1.582615   -1.983214
    134          1           0       21.022233    1.905520    2.170431
    135          1           0       22.036816    2.242027    1.188007
    136          1           0       20.670044    3.416354    1.259097
    137          1           0       -6.982869    1.826538    0.711008
    138          1           0       -7.796666   -0.290143   -0.035676
 ---------------------------------------------------------------------

 SCF Done:  E(RB3LYP) =  -2732.95389265     A.U. after   17 cycles

 Excitation energies and oscillator strengths:

 Excited State   1:      Singlet-A      1.9857 eV  624.38 nm  f=0.1762  <S**2>=0.000
     235 -> 237       -0.35694
     235 -> 238       -0.23094
     236 -> 237        0.52242
     236 -> 238       -0.20733
 This state for optimization and/or second-order correction.
 Total Energy, E(TD-HF/TD-DFT) =  -2732.88091864
 Copying the excited state density for this state as the 1-particle RhoCI density.

 The electronic state is 1-A.
 Alpha  occ. eigenvalues --  -19.18225 -19.17583 -19.13078 -19.12772 -19.11654
 Alpha  occ. eigenvalues --  -14.36113 -14.35320 -14.32905 -14.30412 -10.31840
 Alpha  occ. eigenvalues --  -10.30492 -10.26800 -10.24647 -10.24368 -10.23657
 Alpha  occ. eigenvalues --  -10.22876 -10.22168 -10.22098 -10.22063 -10.21978
 Alpha  occ. eigenvalues --  -10.21968 -10.21903 -10.21434 -10.21422 -10.21421
 Alpha  occ. eigenvalues --  -10.20712 -10.20669 -10.20558 -10.20287 -10.20254
 Alpha  occ. eigenvalues --  -10.20148 -10.19981 -10.19978 -10.19913 -10.19884
 Alpha  occ. eigenvalues --  -10.19868 -10.19846 -10.19831 -10.19731 -10.19613
 Alpha  occ. eigenvalues --  -10.19530 -10.19503 -10.19459 -10.19410 -10.19405
 Alpha  occ. eigenvalues --  -10.19311 -10.19235 -10.19187 -10.19088 -10.19030
 Alpha  occ. eigenvalues --  -10.18971 -10.18889 -10.18856 -10.18463 -10.18315
 Alpha  occ. eigenvalues --  -10.18106 -10.18014 -10.17982 -10.17793 -10.17573
 Alpha  occ. eigenvalues --  -10.17194 -10.16579 -10.16560 -10.16410  -1.12128
 Alpha  occ. eigenvalues --   -1.07312  -1.04119  -1.03049  -1.00236  -0.98961
 Alpha  occ. eigenvalues --   -0.98131  -0.96025  -0.92803  -0.85087  -0.82372
 Alpha  occ. eigenvalues --   -0.82092  -0.81882  -0.81577  -0.81310  -0.80902
 Alpha  occ. eigenvalues --   -0.79966  -0.79857  -0.79327  -0.78435  -0.77525
 Alpha  occ. eigenvalues --   -0.76534  -0.75805  -0.75474  -0.74279  -0.73891
 Alpha  occ. eigenvalues --   -0.73679  -0.73188  -0.72422  -0.71717  -0.71376
 Alpha  occ. eigenvalues --   -0.70510  -0.69541  -0.69093  -0.68665  -0.68400
 Alpha  occ. eigenvalues --   -0.67619  -0.66843  -0.66490  -0.66082  -0.64736
 Alpha  occ. eigenvalues --   -0.64308  -0.63635  -0.62661  -0.62364  -0.61996
 Alpha  occ. eigenvalues --   -0.61027  -0.58913  -0.58511  -0.58381  -0.57837
 Alpha  occ. eigenvalues --   -0.57724  -0.57453  -0.56491  -0.56271  -0.55328
 Alpha  occ. eigenvalues --   -0.55138  -0.54282  -0.54150  -0.53409  -0.53178
 Alpha  occ. eigenvalues --   -0.52841  -0.51911  -0.51607  -0.50804  -0.50195
 Alpha  occ. eigenvalues --   -0.49882  -0.49317  -0.49068  -0.48807  -0.48385
 Alpha  occ. eigenvalues --   -0.48001  -0.47760  -0.47509  -0.47355  -0.47243
 Alpha  occ. eigenvalues --   -0.46892  -0.46612  -0.46362  -0.46310  -0.45812
 Alpha  occ. eigenvalues --   -0.45649  -0.45352  -0.45305  -0.44932  -0.44912
 Alpha  occ. eigenvalues --   -0.44634  -0.44467  -0.44239  -0.43888  -0.43827
 Alpha  occ. eigenvalues --   -0.43407  -0.43335  -0.42891  -0.42645  -0.42484
 Alpha  occ. eigenvalues --   -0.42124  -0.41860  -0.41836  -0.41756  -0.41422
 Alpha  occ. eigenvalues --   -0.41319  -0.41039  -0.41025  -0.40804  -0.40581
 Alpha  occ. eigenvalues --   -0.40489  -0.40445  -0.40293  -0.39963  -0.39666
 Alpha  occ. eigenvalues --   -0.39426  -0.39199  -0.38980  -0.38842  -0.38781
 Alpha  occ. eigenvalues --   -0.38554  -0.38101  -0.38039  -0.37963  -0.37869
 Alpha  occ. eigenvalues --   -0.37773  -0.37614  -0.37511  -0.37490  -0.37412
 Alpha  occ. eigenvalues --   -0.37127  -0.37045  -0.36858  -0.36624  -0.36203
 Alpha  occ. eigenvalues --   -0.36161  -0.35944  -0.35839  -0.35652  -0.35586
 Alpha  occ. eigenvalues --   -0.35244  -0.35053  -0.34484  -0.34414  -0.34229
 Alpha  occ. eigenvalues --   -0.33673  -0.32833  -0.32800  -0.32378  -0.32317
 Alpha  occ. eigenvalues --   -0.32206  -0.32068  -0.31637  -0.31450  -0.30358
 Alpha  occ. eigenvalues --   -0.30342  -0.30156  -0.30075  -0.30052  -0.29922
 Alpha  occ. eigenvalues --   -0.29413  -0.28794  -0.28781  -0.28194  -0.28032
 Alpha  occ. eigenvalues --   -0.27220  -0.26842  -0.26745  -0.26154  -0.25705
 Alpha  occ. eigenvalues --   -0.24587  -0.24460  -0.22847  -0.22559  -0.19734
 Alpha  occ. eigenvalues --   -0.19023
 Alpha virt. eigenvalues --   -0.10946  -0.07823  -0.04011  -0.02355  -0.00655
 Alpha virt. eigenvalues --   -0.00320   0.00980   0.02789   0.03126   0.03797
 Alpha virt. eigenvalues --    0.03975   0.04225   0.04238   0.04504   0.04952

 Mulliken charges:
               1
     1  C    0.066735
     2  C   -0.075394
     3  C   -0.057875
     4  C   -0.041065
     5  N   -0.089257
     6  C   -0.173968
     7  C   -0.079819
     8  C   -0.023410
     9  C   -0.038174
    10  C    0.136255
    11  C    0.146159
    12  C    0.077983
    13  C    0.190723
    14  O   -0.228673
    15  O   -0.347196
    16  N   -0.037393
    17  C    0.072715
    18  C   -0.173714
    19  C    0.059781
    20  C    0.131335
    21  C    0.262658
    22  C   -0.139449
    23  C    0.030232
    24  N   -0.247001
    25  C   -0.002041
    26  C   -0.081376
    27  C   -0.082289
    28  C    0.068043
    29  C   -0.016301
    30  C    0.025622
    31  C    0.057426
    32  N   -0.059267
    33  C    0.034411
    34  C   -0.178611
    35  C    0.019766
    36  C    0.079881
    37  C    0.199625
    38  C    0.041786
    39  O   -0.157593
    40  C   -0.127556
    41  C    0.137837
    42  O   -0.133344
    43  O   -0.307850
    44  C    0.225412
    45  C    0.377693
    46  C   -0.074333
    47  C   -0.148181
    48  C    0.091589
    49  C    0.043938
    50  C   -0.007106
    51  C    0.096030
    52  C   -0.031708
    53  C    0.033919
    54  C   -0.019166
    55  C    0.030862
    56  C   -0.010862
    57  C    0.005797
    58  C   -0.038805
    59  C    0.025263
    60  C    0.038304
    61  C   -0.091233
    62  C   -0.062442
    63  C    0.005189
    64  C    0.157590
    65  H   -0.011140
    66  H   -0.043953
    67  H   -0.021504
    68  H    0.001736
    69  H   -0.022028
    70  H    0.018761
    71  H   -0.008166
    72  H    0.010806
    73  H    0.013935
    74  H    0.008313
    75  H   -0.018914
    76  H    0.033132
    77  H   -0.063629
    78  H   -0.012881
    79  H    0.020612
    80  H    0.016261
    81  H    0.014384
    82  H    0.005585
    83  H    0.049328
    84  H    0.043741
    85  H    0.030627
    86  H    0.031300
    87  H    0.002961
    88  H    0.006921
    89  H   -0.016759
    90  H    0.008018
    91  H    0.005012
    92  H    0.001576
    93  H    0.023609
    94  H    0.056706
    95  H    0.038879
    96  H    0.007208
    97  H    0.036038
    98  H    0.004084
    99  H   -0.059321
   100  H   -0.077549
   101  H    0.011904
   102  H    0.033838
   103  H    0.002333
   104  H    0.013043
   105  H    0.009267
   106  H    0.001699
   107  H   -0.002427
   108  H   -0.046429
   109  H   -0.066326
   110  H    0.004349
   111  H    0.044210
   112  H   -0.003034
   113  H    0.006512
   114  H   -0.014469
   115  H   -0.021792
   116  H    0.015715
   117  H    0.016593
   118  H    0.004686
   119  H   -0.008153
   120  H   -0.035413
   121  H    0.025217
   122  H    0.020528
   123  H    0.007975
   124  H   -0.019949
   125  H   -0.006354
   126  H    0.025189
   127  H    0.022132
   128  H   -0.004964
   129  H    0.020118
   130  H    0.003027
   131  H   -0.010856
   132  H   -0.007335
   133  H    0.001999
   134  H   -0.081491
   135  H   -0.023326
   136  H    0.029078
   137  H    0.132054
   138  H    0.179058
 Sum of Mulliken charges =  -0.00000

 Dipole moment (field-independent basis, Debye):
    X=              2.0730    Y=              3.3625    Z=              2.6834  Tot=              4.7754
 Quadrupole moment (field-independent basis, Debye-Ang):
   XX=           -341.7616   YY=           -385.4719   ZZ=           -391.2688
   XY=            -20.4955   XZ=              6.4559   YZ=             -3.3337

 Normal termination of Gaussian 16 at Tue Aug 20 21:47:06 2019.
