 Gaussian 16, Revision A.03,
 Gaussian 16:  ES64L-G16RevA.03 25-Dec-2016

 --------------------------
 # td=(NStates=1) B3LYP/SVP
 --------------------------

 --
 TD
 --
 Symbolic Z-matrix:
 Charge =  0 Multiplicity = 1

                         Standard orientation:
 ---------------------------------------------------------------------
 Center     Atomic      Atomic             Coordinates (Angstroms)
 Number     Number       Type             X           Y           Z
 ---------------------------------------------------------------------
      1          6           0       -5.082300   -2.029404    0.424869
      2          6           0       -4.909348    2.714293    1.384789
      3          6           0       -9.388359    3.296053   -0.222141
      4          6           0       -9.824281   -1.461051   -0.909480
      5          7           0       -5.282280    0.391442    0.849085
      6          6           0       -4.461503   -0.747554    0.712738
      7          6           0       -3.073491   -0.492686    1.123540
      8          6           0       -3.102988    0.953883    1.870484
      9          6           0       -4.496709    1.442218    1.303974
     10          6           0       -3.120277    0.770900    3.461941
     11          6           0       -2.083890   -0.533394    0.027573
     12          6           0       -0.587621   -0.743499    0.440636
     13          6           0        0.332038   -1.058465   -0.688982
     14          8           0        0.107731   -1.573212   -1.732867
     15          8           0        1.667209   -0.563581   -0.372857
     16          7           0       -7.091694    2.738977    0.418691
     17          6           0       -5.971512    3.420314    0.968705
     18          6           0       -6.236849    4.831952    0.936901
     19          6           0       -7.520118    4.930386    0.371797
     20          6           0       -8.062282    3.660468    0.127072
     21          6           0       -5.298751    5.741345    1.496530
     22          6           0       -8.200527    6.298570    0.399065
     23          6           0       -9.143857    6.633288   -0.506238
     24          7           0       -9.251413    0.926188   -0.570778
     25          6           0       -9.933136    2.006750   -0.546411
     26          6           0      -11.274120    1.871687   -0.910005
     27          6           0      -11.401692    0.454945   -1.043284
     28          6           0      -10.030712   -0.101563   -0.919577
     29          6           0      -12.330268    2.935371   -0.924658
     30          6           0      -12.666989   -0.196841   -1.492229
     31          6           0      -12.710388   -0.704128   -2.987306
     32          7           0       -7.419567   -1.288525   -0.141772
     33          6           0       -8.542957   -2.060429   -0.568581
     34          6           0       -8.203144   -3.371966   -0.671051
     35          6           0       -6.807280   -3.470680   -0.157493
     36          6           0       -6.408574   -2.180490    0.034702
     37          6           0       -8.912802   -4.532739   -1.128955
     38          6           0       -5.735146   -4.355402    0.003746
     39          8           0       -5.642512   -5.590816   -0.137727
     40          6           0       -4.511844   -3.402828    0.532684
     41          6           0       -3.848018   -3.815347    1.785777
     42          8           0       -4.097477   -3.276228    2.871963
     43          8           0       -3.136928   -4.949654    1.650650
     44          6           0       -2.662691   -5.615525    2.815592
     45          6           0        2.649002   -0.973737   -1.349880
     46          6           0        3.978591   -0.640806   -0.666626
     47          6           0        4.939257    0.205405   -1.102091
     48          6           0        4.861980    0.807125   -2.483465
     49          6           0        6.201240    0.423686   -0.272367
     50          6           0        7.502418   -0.060057   -1.067062
     51          6           0        8.712650   -0.055477   -0.154445
     52          6           0       10.066783   -0.488778   -0.874394
     53          6           0        9.964099   -1.955470   -1.233704
     54          6           0       11.317395   -0.184305   -0.054935
     55          6           0       12.683447   -0.571698   -0.578322
     56          6           0       13.805025   -0.011762    0.220913
     57          6           0       15.258674   -0.170276   -0.461186
     58          6           0       15.602643   -1.570334   -0.686029
     59          6           0       16.342031    0.553242    0.349245
     60          6           0       17.847259    0.574526   -0.104086
     61          6           0       18.819758    1.289060    0.875648
     62          6           0       20.153233    1.454663    0.260906
     63          6           0       20.231997    2.393004   -0.996574
     64          6           0       21.172309    1.963344    1.450254
     65          1           0       -4.139397    3.473622    1.711467
     66          1           0      -10.033782    4.084568   -0.241311
     67          1           0      -10.674710   -2.256171   -1.149664
     68          1           0       -2.793092   -1.284389    1.754542
     69          1           0       -2.499391    1.556231    1.509510
     70          1           0       -2.262894    0.118157    3.865463
     71          1           0       -3.303947    1.814754    4.097145
     72          1           0       -4.165579    0.101213    3.719250
     73          1           0       -2.421996   -1.456243   -0.507917
     74          1           0       -2.122911    0.224680   -0.733700
     75          1           0       -0.082871   -0.024811    1.041676
     76          1           0       -0.478843   -1.478086    1.292841
     77          1           0       -4.538422    5.626665    0.845951
     78          1           0       -5.564466    6.933743    1.292668
     79          1           0       -5.081856    5.492474    2.518350
     80          1           0       -7.847509    6.968890    0.985475
     81          1           0       -9.365471    5.947838   -1.220664
     82          1           0       -9.675326    7.550142   -0.158658
     83          1           0      -12.319051    3.505688    0.185437
     84          1           0      -12.267792    3.747885   -1.753172
     85          1           0      -13.322409    2.384100   -1.158272
     86          1           0      -12.703317   -1.047693   -0.836190
     87          1           0      -13.389898    0.816156   -1.296145
     88          1           0      -12.650486    0.076525   -3.641144
     89          1           0      -11.887669   -1.535466   -2.998831
     90          1           0      -13.587183   -1.425014   -2.850957
     91          1           0       -9.853024   -4.504536   -0.620997
     92          1           0       -9.088338   -4.385427   -2.168352
     93          1           0       -8.479561   -5.492503   -0.972926
     94          1           0       -3.592391   -3.366063   -0.086786
     95          1           0       -1.947561   -6.304408    2.307990
     96          1           0       -2.278263   -4.773174    3.381414
     97          1           0       -3.505615   -6.157944    3.325063
     98          1           0        2.397169   -2.029206   -1.699630
     99          1           0        2.499017   -0.002155   -2.198585
    100          1           0        4.048714   -0.985436    0.109944
    101          1           0        5.502972    1.910105   -2.418276
    102          1           0        5.408639    0.254421   -3.098064
    103          1           0        3.820101    1.104536   -2.742253
    104          1           0        6.621590    1.384898   -0.049915
    105          1           0        6.223357   -0.351181    0.528105
    106          1           0        7.401440   -1.016185   -1.467388
    107          1           0        7.663710    0.562780   -2.153312
    108          1           0        8.750138    0.870874    0.503165
    109          1           0        8.432241   -1.024238    0.642315
    110          1           0       10.043181    0.265770   -1.911114
    111          1           0        9.065952   -2.286862   -1.804670
    112          1           0       10.923669   -2.186823   -1.883595
    113          1           0        9.955491   -2.355974   -0.095562
    114          1           0       11.314790    0.946922    0.137066
    115          1           0       11.063830   -0.586822    0.988357
    116          1           0       12.902023   -1.652323   -0.478451
    117          1           0       12.808158   -0.120777   -1.653439
    118          1           0       13.688557    1.006509    0.249503
    119          1           0       13.806405   -0.330162    1.162453
    120          1           0       15.423864    0.278265   -1.430534
    121          1           0       14.908335   -1.990689   -1.461543
    122          1           0       16.546647   -1.752043   -1.246444
    123          1           0       15.813093   -2.259519    0.024678
    124          1           0       16.226895    1.601139    0.489742
    125          1           0       16.433256    0.099214    1.244114
    126          1           0       18.484898   -0.323532   -0.341868
    127          1           0       18.025784    1.131071   -1.142014
    128          1           0       18.386832    2.180996    1.267805
    129          1           0       18.970206    0.562602    1.731179
    130          1           0       20.515445    0.530148   -0.037647
    131          1           0       20.003545    3.367347   -0.925034
    132          1           0       21.311955    2.310111   -1.597014
    133          1           0       19.585732    1.845043   -1.742267
    134          1           0       21.285836    1.256852    2.394540
    135          1           0       22.290008    1.981115    0.970989
    136          1           0       20.824890    3.070550    1.836332
    137          1           0       -7.227798    1.804142    0.288206
    138          1           0       -7.479465   -0.170246   -0.259448
 ---------------------------------------------------------------------

 SCF Done:  E(RB3LYP) =  -2732.91106314     A.U. after   18 cycles

 Excitation energies and oscillator strengths:

 Excited State   1:      Singlet-A      2.0585 eV  602.31 nm  f=0.1719  <S**2>=0.000
     235 -> 237       -0.28639
     235 -> 238       -0.24707
     236 -> 237        0.56333
     236 -> 238       -0.19497
 This state for optimization and/or second-order correction.
 Total Energy, E(TD-HF/TD-DFT) =  -2732.83541600
 Copying the excited state density for this state as the 1-particle RhoCI density.

 The electronic state is 1-A.
 Alpha  occ. eigenvalues --  -19.17334 -19.15891 -19.13837 -19.11687 -19.11399
 Alpha  occ. eigenvalues --  -14.36712 -14.35966 -14.32765 -14.29549 -10.31757
 Alpha  occ. eigenvalues --  -10.31245 -10.27581 -10.25555 -10.24668 -10.23878
 Alpha  occ. eigenvalues --  -10.23769 -10.23571 -10.23061 -10.23009 -10.22636
 Alpha  occ. eigenvalues --  -10.22197 -10.22088 -10.21705 -10.21469 -10.21045
 Alpha  occ. eigenvalues --  -10.21044 -10.20934 -10.20926 -10.20864 -10.20849
 Alpha  occ. eigenvalues --  -10.20833 -10.20653 -10.20652 -10.20622 -10.20408
 Alpha  occ. eigenvalues --  -10.20278 -10.20149 -10.20066 -10.19974 -10.19912
 Alpha  occ. eigenvalues --  -10.19753 -10.19703 -10.19453 -10.19434 -10.19407
 Alpha  occ. eigenvalues --  -10.19379 -10.19252 -10.19170 -10.19148 -10.19111
 Alpha  occ. eigenvalues --  -10.19088 -10.18722 -10.18705 -10.18605 -10.18580
 Alpha  occ. eigenvalues --  -10.18562 -10.18283 -10.18265 -10.17990 -10.17700
 Alpha  occ. eigenvalues --  -10.17053 -10.16500 -10.16403 -10.16290  -1.08939
 Alpha  occ. eigenvalues --   -1.08141  -1.00109  -1.00086  -0.99292  -0.98096
 Alpha  occ. eigenvalues --   -0.97221  -0.96033  -0.92543  -0.85243  -0.83447
 Alpha  occ. eigenvalues --   -0.82514  -0.82328  -0.81952  -0.81432  -0.80906
 Alpha  occ. eigenvalues --   -0.80826  -0.79825  -0.79461  -0.79247  -0.77845
 Alpha  occ. eigenvalues --   -0.77183  -0.76565  -0.76232  -0.75174  -0.74400
 Alpha  occ. eigenvalues --   -0.74053  -0.73345  -0.72977  -0.72404  -0.71897
 Alpha  occ. eigenvalues --   -0.70806  -0.69483  -0.68585  -0.67899  -0.67491
 Alpha  occ. eigenvalues --   -0.67351  -0.66764  -0.66412  -0.65564  -0.64944
 Alpha  occ. eigenvalues --   -0.64064  -0.62756  -0.62348  -0.62107  -0.61854
 Alpha  occ. eigenvalues --   -0.61009  -0.59368  -0.58616  -0.58246  -0.57690
 Alpha  occ. eigenvalues --   -0.56689  -0.56659  -0.56349  -0.56151  -0.55879
 Alpha  occ. eigenvalues --   -0.54931  -0.54682  -0.54251  -0.53678  -0.52971
 Alpha  occ. eigenvalues --   -0.52818  -0.52544  -0.51944  -0.51612  -0.50249
 Alpha  occ. eigenvalues --   -0.49752  -0.49482  -0.49236  -0.49023  -0.48544
 Alpha  occ. eigenvalues --   -0.47993  -0.47965  -0.47688  -0.47443  -0.47288
 Alpha  occ. eigenvalues --   -0.47171  -0.46844  -0.46522  -0.46130  -0.45953
 Alpha  occ. eigenvalues --   -0.45859  -0.45576  -0.45499  -0.45192  -0.44991
 Alpha  occ. eigenvalues --   -0.44736  -0.44421  -0.44105  -0.44007  -0.43636
 Alpha  occ. eigenvalues --   -0.43526  -0.43411  -0.43284  -0.42963  -0.42936
 Alpha  occ. eigenvalues --   -0.42791  -0.42609  -0.42179  -0.42076  -0.41983
 Alpha  occ. eigenvalues --   -0.41537  -0.41381  -0.41088  -0.41052  -0.40757
 Alpha  occ. eigenvalues --   -0.40634  -0.40188  -0.40150  -0.39974  -0.39678
 Alpha  occ. eigenvalues --   -0.39344  -0.39060  -0.38828  -0.38782  -0.38524
 Alpha  occ. eigenvalues --   -0.38247  -0.38108  -0.37962  -0.37851  -0.37625
 Alpha  occ. eigenvalues --   -0.37497  -0.37291  -0.36977  -0.36845  -0.36681
 Alpha  occ. eigenvalues --   -0.36194  -0.36136  -0.35904  -0.35763  -0.35422
 Alpha  occ. eigenvalues --   -0.35243  -0.35131  -0.34923  -0.34734  -0.34590
 Alpha  occ. eigenvalues --   -0.34368  -0.34303  -0.34154  -0.33991  -0.33788
 Alpha  occ. eigenvalues --   -0.33683  -0.33413  -0.33214  -0.32919  -0.32745
 Alpha  occ. eigenvalues --   -0.32278  -0.31700  -0.31250  -0.31168  -0.30978
 Alpha  occ. eigenvalues --   -0.30708  -0.30499  -0.30442  -0.29953  -0.29866
 Alpha  occ. eigenvalues --   -0.29651  -0.29041  -0.28615  -0.28416  -0.28062
 Alpha  occ. eigenvalues --   -0.27553  -0.27138  -0.26173  -0.26072  -0.25141
 Alpha  occ. eigenvalues --   -0.24486  -0.24438  -0.24314  -0.22256  -0.20214
 Alpha  occ. eigenvalues --   -0.19297
 Alpha virt. eigenvalues --   -0.10973  -0.07995  -0.04725  -0.01878  -0.00926
 Alpha virt. eigenvalues --   -0.00507  -0.00000   0.00401   0.01412   0.03175
 Alpha virt. eigenvalues --    0.03581   0.03954   0.04106   0.04293   0.04410

 Mulliken charges:
               1
     1  C    0.014975
     2  C   -0.006423
     3  C   -0.058805
     4  C   -0.134223
     5  N   -0.218939
     6  C   -0.044639
     7  C    0.003588
     8  C    0.170642
     9  C   -0.059873
    10  C   -0.048283
    11  C    0.080735
    12  C    0.063476
    13  C    0.173306
    14  O   -0.181839
    15  O   -0.390764
    16  N   -0.045983
    17  C    0.052250
    18  C   -0.090667
    19  C    0.000652
    20  C    0.097271
    21  C    0.125222
    22  C    0.004884
    23  C    0.047691
    24  N   -0.140636
    25  C    0.043509
    26  C   -0.133486
    27  C   -0.138903
    28  C    0.101704
    29  C    0.018355
    30  C   -0.013902
    31  C    0.059811
    32  N   -0.118256
    33  C    0.075232
    34  C   -0.155258
    35  C    0.026059
    36  C    0.067065
    37  C    0.182318
    38  C    0.056292
    39  O   -0.204253
    40  C   -0.004954
    41  C    0.162215
    42  O   -0.261801
    43  O   -0.300633
    44  C    0.175342
    45  C    0.214725
    46  C    0.094962
    47  C   -0.135582
    48  C    0.076646
    49  C    0.132239
    50  C   -0.061063
    51  C   -0.040669
    52  C   -0.108199
    53  C   -0.017853
    54  C    0.017416
    55  C    0.047555
    56  C    0.124594
    57  C   -0.007583
    58  C    0.044163
    59  C    0.137308
    60  C   -0.077511
    61  C    0.051805
    62  C   -0.058089
    63  C    0.016292
    64  C   -0.082701
    65  H   -0.033613
    66  H   -0.085270
    67  H    0.027918
    68  H   -0.031646
    69  H   -0.107612
    70  H    0.045570
    71  H    0.041902
    72  H    0.059250
    73  H    0.013299
    74  H    0.000386
    75  H    0.000377
    76  H    0.025275
    77  H    0.005702
    78  H    0.033370
    79  H    0.046775
    80  H   -0.081723
    81  H   -0.000801
    82  H    0.031429
    83  H    0.055940
    84  H    0.040198
    85  H    0.015247
    86  H    0.000769
    87  H    0.030731
    88  H    0.018504
    89  H    0.006184
    90  H    0.021896
    91  H    0.008853
    92  H    0.014303
    93  H    0.025657
    94  H    0.034209
    95  H    0.047818
    96  H    0.033729
    97  H    0.049623
    98  H    0.056124
    99  H    0.030532
   100  H   -0.196871
   101  H    0.009876
   102  H    0.009470
   103  H    0.037494
   104  H    0.006916
   105  H    0.003890
   106  H   -0.021141
   107  H    0.007717
   108  H    0.011203
   109  H    0.001968
   110  H    0.003229
   111  H    0.031300
   112  H    0.039384
   113  H    0.024650
   114  H   -0.004557
   115  H   -0.005351
   116  H    0.013957
   117  H    0.009967
   118  H   -0.045306
   119  H   -0.046003
   120  H   -0.024221
   121  H    0.002823
   122  H   -0.016667
   123  H   -0.028409
   124  H   -0.015815
   125  H   -0.043090
   126  H   -0.014967
   127  H   -0.007354
   128  H   -0.018989
   129  H   -0.002044
   130  H   -0.024129
   131  H   -0.003687
   132  H    0.013577
   133  H    0.014612
   134  H    0.029804
   135  H    0.024409
   136  H    0.031960
   137  H    0.077590
   138  H    0.213376
 Sum of Mulliken charges =  -0.00000

 Dipole moment (field-independent basis, Debye):
    X=              1.1833    Y=              4.6398    Z=              0.8756  Tot=              4.8678
 Quadrupole moment (field-independent basis, Debye-Ang):
   XX=           -363.6794   YY=           -380.2690   ZZ=           -397.7251
   XY=            -31.8375   XZ=              7.8278   YZ=             -0.6539

 Normal termination of Gaussian 16 at Thu Aug 22 22:43:57 2019.
