 Gaussian 16, Revision A.03,
 Gaussian 16:  ES64L-G16RevA.03 25-Dec-2016

 --------------------------
 # td=(NStates=1) B3LYP/SVP
 --------------------------

 --
 TD
 --
 Symbolic Z-matrix:
 Charge =  0 Multiplicity = 1

                         Standard orientation:
 ---------------------------------------------------------------------
 Center     Atomic      Atomic             Coordinates (Angstroms)
 Number     Number       Type             X           Y           Z
 ---------------------------------------------------------------------
      1          6           0       -5.089762   -2.006054    0.368271
      2          6           0       -4.747140    2.705358    1.418227
      3          6           0       -9.366334    3.297856   -0.175990
      4          6           0       -9.731166   -1.413489   -0.896790
      5          7           0       -5.292683    0.414688    0.807855
      6          6           0       -4.587112   -0.712651    0.805794
      7          6           0       -3.096968   -0.591983    1.217048
      8          6           0       -3.052966    0.845076    1.840129
      9          6           0       -4.451899    1.340650    1.301975
     10          6           0       -2.940726    0.846960    3.386781
     11          6           0       -2.124990   -0.875636    0.083479
     12          6           0       -0.693011   -0.825000    0.508176
     13          6           0        0.329465   -1.052541   -0.662108
     14          8           0        0.070708   -1.229209   -1.847669
     15          8           0        1.498293   -0.884359   -0.204094
     16          7           0       -7.118402    2.659860    0.598081
     17          6           0       -5.991684    3.348763    0.980383
     18          6           0       -6.191201    4.727535    1.051544
     19          6           0       -7.501012    4.957931    0.531402
     20          6           0       -8.040185    3.709266    0.169560
     21          6           0       -5.181377    5.712079    1.314650
     22          6           0       -8.096660    6.294538    0.482311
     23          6           0       -8.960059    6.694280   -0.399008
     24          7           0       -9.273217    0.878227   -0.477390
     25          6           0       -9.905907    2.070061   -0.525764
     26          6           0      -11.293281    1.906088   -0.980628
     27          6           0      -11.435735    0.570987   -1.133438
     28          6           0      -10.088777   -0.070600   -0.853574
     29          6           0      -12.361830    3.003536   -1.011693
     30          6           0      -12.682010   -0.353390   -1.675217
     31          6           0      -12.597034   -0.544702   -3.331036
     32          7           0       -7.415764   -1.235709   -0.252142
     33          6           0       -8.581310   -2.053377   -0.609414
     34          6           0       -8.258681   -3.410715   -0.639718
     35          6           0       -6.826798   -3.502775   -0.367193
     36          6           0       -6.414931   -2.101984   -0.099469
     37          6           0       -9.094105   -4.570124   -1.072706
     38          6           0       -5.706570   -4.334689    0.045432
     39          8           0       -5.682837   -5.508931   -0.018840
     40          6           0       -4.498998   -3.340558    0.428739
     41          6           0       -3.860206   -3.869858    1.699945
     42          8           0       -4.155926   -3.353015    2.786159
     43          8           0       -3.068637   -4.870492    1.600096
     44          6           0       -2.527885   -5.346640    2.872384
     45          6           0        2.555372   -0.878201   -1.295055
     46          6           0        3.972487   -0.718657   -0.567175
     47          6           0        4.930152    0.189043   -0.919769
     48          6           0        5.005351    0.976987   -2.316764
     49          6           0        6.257587    0.322539   -0.145521
     50          6           0        7.558064   -0.212009   -0.865159
     51          6           0        8.862188   -0.094757    0.036311
     52          6           0       10.042258   -0.522030   -0.741194
     53          6           0       10.034826   -2.058344   -1.161558
     54          6           0       11.336104   -0.250709    0.056797
     55          6           0       12.651705   -0.478268   -0.657268
     56          6           0       13.889385   -0.045004    0.248307
     57          6           0       15.225375   -0.086465   -0.460046
     58          6           0       15.587967   -1.565960   -0.818938
     59          6           0       16.295452    0.509556    0.508521
     60          6           0       17.685230    0.632966   -0.067503
     61          6           0       18.677669    1.403464    0.716810
     62          6           0       20.086364    1.487839    0.109499
     63          6           0       20.257747    2.109857   -1.272981
     64          6           0       21.045525    2.141896    1.143213
     65          1           0       -3.968582    3.698333    1.635800
     66          1           0      -10.023588    4.188745   -0.325770
     67          1           0      -10.486129   -2.232938   -1.280406
     68          1           0       -2.735401   -1.188009    2.049919
     69          1           0       -2.229836    1.333308    1.448269
     70          1           0       -2.048292    0.027227    3.730192
     71          1           0       -2.832842    2.092797    3.881930
     72          1           0       -3.741209    0.362042    3.868943
     73          1           0       -2.461401   -1.824068   -0.283582
     74          1           0       -2.101264   -0.028941   -0.525199
     75          1           0       -0.397250    0.111411    1.067183
     76          1           0       -0.534417   -1.736187    1.286132
     77          1           0       -4.434068    5.584999    0.599620
     78          1           0       -5.549160    6.786859    1.323495
     79          1           0       -4.810785    5.523078    2.314592
     80          1           0       -7.797158    7.063349    1.201906
     81          1           0       -9.270216    6.062314   -1.267305
     82          1           0       -9.489004    7.724806   -0.308410
     83          1           0      -12.241235    3.571623   -0.043871
     84          1           0      -12.301105    3.791228   -1.716019
     85          1           0      -13.424960    2.463788   -0.916931
     86          1           0      -12.774560   -1.353380   -1.177580
     87          1           0      -13.505030    0.218345   -1.272598
     88          1           0      -12.891690    0.492495   -3.875369
     89          1           0      -11.516177   -1.022637   -3.704616
     90          1           0      -13.351991   -1.201583   -3.477023
     91          1           0       -9.868790   -4.876251   -0.101898
     92          1           0       -9.834014   -4.201109   -2.010150
     93          1           0       -8.535719   -5.641929   -1.288840
     94          1           0       -3.824063   -3.479465   -0.421442
     95          1           0       -1.616160   -5.745125    2.534276
     96          1           0       -2.177405   -4.442481    3.581438
     97          1           0       -3.278933   -6.009653    3.423931
     98          1           0        2.414950   -1.856757   -1.777272
     99          1           0        2.437505   -0.066644   -2.273575
    100          1           0        4.288164   -1.281943    0.360672
    101          1           0        5.370248    2.166380   -2.230245
    102          1           0        5.573555    0.483242   -3.211855
    103          1           0        4.145624    1.168860   -2.855120
    104          1           0        6.629093    1.238441    0.143991
    105          1           0        6.073928   -0.198786    0.737740
    106          1           0        7.204543   -1.230348   -1.100257
    107          1           0        7.791167    0.453420   -1.822956
    108          1           0        8.692665    0.829804    0.386139
    109          1           0        8.516044   -0.869022    0.842220
    110          1           0       10.013700    0.023844   -1.689806
    111          1           0        9.112127   -2.442837   -1.816782
    112          1           0       10.879741   -2.313628   -1.859170
    113          1           0        9.944203   -2.712235   -0.162694
    114          1           0       11.335759    0.756799    0.624419
    115          1           0       11.292084   -0.918839    1.022590
    116          1           0       13.023880   -1.507975   -0.835900
    117          1           0       12.745061    0.213278   -1.479924
    118          1           0       13.775877    1.003194    0.488142
    119          1           0       13.849028   -0.705157    1.168622
    120          1           0       15.233084    0.521629   -1.426883
    121          1           0       14.784495   -1.827021   -1.734900
    122          1           0       16.562826   -1.918709   -1.272376
    123          1           0       15.241900   -2.365701    0.138860
    124          1           0       15.777574    1.307521    0.867512
    125          1           0       16.414435   -0.131525    1.435005
    126          1           0       18.081620   -0.245889   -0.193857
    127          1           0       17.498009    1.193460   -1.107259
    128          1           0       18.324893    2.385180    0.788369
    129          1           0       18.626147    1.041276    1.783873
    130          1           0       20.401303    0.333997   -0.211510
    131          1           0       19.631598    3.188803   -1.340074
    132          1           0       21.356353    2.635010   -1.554456
    133          1           0       19.947363    1.544836   -2.166511
    134          1           0       21.068192    1.784005    2.215826
    135          1           0       22.017260    1.872503    0.820778
    136          1           0       21.037529    3.296168    1.216345
    137          1           0       -6.992927    1.624628    0.605759
    138          1           0       -7.508293   -0.345311   -0.352182
 ---------------------------------------------------------------------

 SCF Done:  E(RB3LYP) =  -2733.00538747     A.U. after   17 cycles

 Excitation energies and oscillator strengths:

 Excited State   1:      Singlet-A      2.0476 eV  605.51 nm  f=0.1633  <S**2>=0.000
     235 -> 237       -0.21419
     235 -> 238       -0.28005
     236 -> 237        0.59563
     236 -> 238       -0.12984
 This state for optimization and/or second-order correction.
 Total Energy, E(TD-HF/TD-DFT) =  -2732.93013926
 Copying the excited state density for this state as the 1-particle RhoCI density.

 The electronic state is 1-A.
 Alpha  occ. eigenvalues --  -19.19156 -19.19139 -19.12338 -19.11461 -19.10557
 Alpha  occ. eigenvalues --  -14.35919 -14.35869 -14.33193 -14.29321 -10.31115
 Alpha  occ. eigenvalues --  -10.31079 -10.28086 -10.27828 -10.25948 -10.23875
 Alpha  occ. eigenvalues --  -10.23774 -10.23700 -10.23525 -10.23185 -10.23119
 Alpha  occ. eigenvalues --  -10.22782 -10.22429 -10.22233 -10.21347 -10.21280
 Alpha  occ. eigenvalues --  -10.21256 -10.21172 -10.21032 -10.20960 -10.20931
 Alpha  occ. eigenvalues --  -10.20879 -10.20814 -10.20564 -10.20477 -10.20430
 Alpha  occ. eigenvalues --  -10.20377 -10.20345 -10.20315 -10.20296 -10.20115
 Alpha  occ. eigenvalues --  -10.19961 -10.19909 -10.19737 -10.19728 -10.19652
 Alpha  occ. eigenvalues --  -10.19625 -10.19558 -10.19510 -10.19423 -10.19372
 Alpha  occ. eigenvalues --  -10.19082 -10.19065 -10.19053 -10.18790 -10.18536
 Alpha  occ. eigenvalues --  -10.18471 -10.18332 -10.18283 -10.18241 -10.18220
 Alpha  occ. eigenvalues --  -10.18064 -10.17334 -10.17135 -10.17040  -1.11651
 Alpha  occ. eigenvalues --   -1.11523  -1.05000  -0.99417  -0.98667  -0.97891
 Alpha  occ. eigenvalues --   -0.96117  -0.95201  -0.94222  -0.84714  -0.82440
 Alpha  occ. eigenvalues --   -0.82221  -0.81950  -0.81795  -0.81597  -0.80591
 Alpha  occ. eigenvalues --   -0.80007  -0.79647  -0.78799  -0.77226  -0.77083
 Alpha  occ. eigenvalues --   -0.76648  -0.76230  -0.75639  -0.74749  -0.73733
 Alpha  occ. eigenvalues --   -0.73317  -0.72639  -0.71835  -0.71071  -0.70579
 Alpha  occ. eigenvalues --   -0.69478  -0.68611  -0.68023  -0.67667  -0.67451
 Alpha  occ. eigenvalues --   -0.66750  -0.66455  -0.65826  -0.65777  -0.65450
 Alpha  occ. eigenvalues --   -0.63806  -0.62502  -0.62127  -0.61579  -0.61222
 Alpha  occ. eigenvalues --   -0.60829  -0.58878  -0.58021  -0.57407  -0.57051
 Alpha  occ. eigenvalues --   -0.56908  -0.55868  -0.55684  -0.55596  -0.55025
 Alpha  occ. eigenvalues --   -0.54562  -0.54481  -0.54253  -0.53590  -0.52872
 Alpha  occ. eigenvalues --   -0.52474  -0.51853  -0.51642  -0.51150  -0.50840
 Alpha  occ. eigenvalues --   -0.50059  -0.49486  -0.49427  -0.48912  -0.48546
 Alpha  occ. eigenvalues --   -0.48066  -0.47851  -0.47459  -0.47344  -0.47286
 Alpha  occ. eigenvalues --   -0.47092  -0.46389  -0.45920  -0.45616  -0.45547
 Alpha  occ. eigenvalues --   -0.45397  -0.45198  -0.44905  -0.44747  -0.44663
 Alpha  occ. eigenvalues --   -0.44225  -0.44111  -0.44031  -0.43334  -0.43130
 Alpha  occ. eigenvalues --   -0.43051  -0.42740  -0.42440  -0.42286  -0.42004
 Alpha  occ. eigenvalues --   -0.41933  -0.41659  -0.41521  -0.41137  -0.41081
 Alpha  occ. eigenvalues --   -0.40814  -0.40533  -0.40304  -0.40003  -0.39926
 Alpha  occ. eigenvalues --   -0.39767  -0.39450  -0.39235  -0.39163  -0.38943
 Alpha  occ. eigenvalues --   -0.38846  -0.38401  -0.38063  -0.38045  -0.37926
 Alpha  occ. eigenvalues --   -0.37904  -0.37749  -0.37598  -0.37346  -0.37307
 Alpha  occ. eigenvalues --   -0.37165  -0.36608  -0.36442  -0.36363  -0.36312
 Alpha  occ. eigenvalues --   -0.35835  -0.35779  -0.35678  -0.35541  -0.35505
 Alpha  occ. eigenvalues --   -0.35350  -0.35171  -0.35007  -0.34792  -0.34718
 Alpha  occ. eigenvalues --   -0.34608  -0.34476  -0.34277  -0.34066  -0.33569
 Alpha  occ. eigenvalues --   -0.33365  -0.33039  -0.32934  -0.32559  -0.32486
 Alpha  occ. eigenvalues --   -0.32064  -0.31958  -0.31836  -0.31674  -0.31527
 Alpha  occ. eigenvalues --   -0.31157  -0.31073  -0.31027  -0.30854  -0.30362
 Alpha  occ. eigenvalues --   -0.30320  -0.29254  -0.28287  -0.28017  -0.27872
 Alpha  occ. eigenvalues --   -0.27391  -0.26760  -0.26099  -0.25884  -0.25470
 Alpha  occ. eigenvalues --   -0.25433  -0.24812  -0.23601  -0.23109  -0.19333
 Alpha  occ. eigenvalues --   -0.19086
 Alpha virt. eigenvalues --   -0.10538  -0.07164  -0.03933  -0.01798  -0.00789
 Alpha virt. eigenvalues --    0.00328   0.00834   0.00957   0.02485   0.03203
 Alpha virt. eigenvalues --    0.03266   0.03873   0.04356   0.04387   0.04658

 Mulliken charges:
               1
     1  C    0.002658
     2  C   -0.102010
     3  C   -0.092546
     4  C   -0.095126
     5  N   -0.147609
     6  C   -0.004439
     7  C   -0.078346
     8  C    0.009465
     9  C    0.038767
    10  C   -0.006703
    11  C    0.188630
    12  C   -0.085700
    13  C    0.170753
    14  O   -0.267523
    15  O   -0.251928
    16  N   -0.119612
    17  C    0.004775
    18  C   -0.156914
    19  C    0.073353
    20  C    0.103248
    21  C    0.129603
    22  C   -0.040770
    23  C   -0.069778
    24  N   -0.158978
    25  C    0.060319
    26  C   -0.132563
    27  C   -0.096471
    28  C    0.039202
    29  C    0.080208
    30  C    0.044034
    31  C   -0.029625
    32  N    0.034985
    33  C    0.062508
    34  C   -0.056418
    35  C    0.000426
    36  C    0.018974
    37  C   -0.075094
    38  C    0.014343
    39  O   -0.129607
    40  C    0.001310
    41  C    0.164435
    42  O   -0.278183
    43  O   -0.242056
    44  C    0.149187
    45  C    0.191039
    46  C   -0.060593
    47  C   -0.100602
    48  C   -0.008849
    49  C    0.137266
    50  C   -0.105142
    51  C    0.091451
    52  C   -0.001733
    53  C   -0.059959
    54  C    0.006626
    55  C    0.076215
    56  C   -0.028536
    57  C   -0.080126
    58  C   -0.094038
    59  C    0.089378
    60  C    0.096502
    61  C    0.087255
    62  C   -0.105081
    63  C   -0.071288
    64  C    0.035684
    65  H    0.022309
    66  H   -0.025032
    67  H   -0.002922
    68  H   -0.012412
    69  H   -0.033749
    70  H    0.027005
    71  H    0.043205
    72  H    0.018854
    73  H    0.002727
    74  H   -0.017560
    75  H    0.049027
    76  H    0.029264
    77  H    0.026699
    78  H    0.016831
    79  H    0.022225
    80  H    0.002733
    81  H    0.033627
    82  H    0.034355
    83  H    0.021168
    84  H    0.013360
    85  H    0.034307
    86  H    0.011965
    87  H   -0.004397
    88  H    0.043195
    89  H    0.051958
    90  H    0.001871
    91  H    0.058110
    92  H    0.062570
    93  H    0.085814
    94  H    0.053237
    95  H    0.026213
    96  H    0.058934
    97  H    0.072145
    98  H    0.042035
    99  H    0.083278
   100  H    0.014793
   101  H    0.028105
   102  H    0.048178
   103  H   -0.023496
   104  H   -0.027667
   105  H   -0.034778
   106  H    0.014125
   107  H    0.018838
   108  H   -0.038394
   109  H    0.001456
   110  H   -0.014002
   111  H    0.023451
   112  H    0.032821
   113  H    0.026596
   114  H   -0.004210
   115  H   -0.011346
   116  H    0.018946
   117  H   -0.015545
   118  H   -0.013136
   119  H    0.008291
   120  H    0.006750
   121  H    0.021521
   122  H    0.037875
   123  H    0.028490
   124  H   -0.054910
   125  H   -0.020825
   126  H   -0.056411
   127  H   -0.003240
   128  H   -0.035970
   129  H   -0.008489
   130  H    0.008273
   131  H    0.003858
   132  H    0.030934
   133  H    0.032553
   134  H    0.010668
   135  H   -0.007200
   136  H    0.022578
   137  H    0.163739
   138  H    0.045178
 Sum of Mulliken charges =  -0.00000

 Dipole moment (field-independent basis, Debye):
    X=              3.1763    Y=              3.2528    Z=              0.2562  Tot=              4.5536
 Quadrupole moment (field-independent basis, Debye-Ang):
   XX=           -352.5313   YY=           -376.9556   ZZ=           -397.5519
   XY=            -14.8018   XZ=              8.6911   YZ=             -2.7995

 Normal termination of Gaussian 16 at Thu Aug 15 23:14:41 2019.
