 Gaussian 16, Revision A.03,
 Gaussian 16:  ES64L-G16RevA.03 25-Dec-2016

 --------------------------
 # td=(NStates=1) B3LYP/SVP
 --------------------------

 --
 TD
 --
 Symbolic Z-matrix:
 Charge =  0 Multiplicity = 1

                         Standard orientation:
 ---------------------------------------------------------------------
 Center     Atomic      Atomic             Coordinates (Angstroms)
 Number     Number       Type             X           Y           Z
 ---------------------------------------------------------------------
      1          6           0       -5.077261   -1.959982    0.359990
      2          6           0       -4.614317    2.611987    1.511001
      3          6           0       -9.199291    3.326159   -0.103003
      4          6           0       -9.747348   -1.346370   -0.841930
      5          7           0       -5.163107    0.391918    0.929784
      6          6           0       -4.448912   -0.817447    0.787673
      7          6           0       -3.055653   -0.665666    1.378203
      8          6           0       -3.056708    0.750321    2.030568
      9          6           0       -4.381803    1.261865    1.454774
     10          6           0       -3.146255    0.745639    3.552969
     11          6           0       -2.059221   -0.835377    0.177309
     12          6           0       -0.547754   -0.760184    0.499532
     13          6           0        0.314326   -0.946361   -0.710162
     14          8           0        0.000857   -1.350136   -1.764152
     15          8           0        1.624666   -0.696263   -0.383264
     16          7           0       -7.027912    2.701265    0.714545
     17          6           0       -5.840020    3.294704    1.121319
     18          6           0       -6.128409    4.776613    1.107523
     19          6           0       -7.427612    4.977219    0.550664
     20          6           0       -7.948992    3.656034    0.309434
     21          6           0       -5.135527    5.851802    1.609777
     22          6           0       -7.993392    6.280661    0.259901
     23          6           0       -8.960399    6.670680   -0.590423
     24          7           0       -9.136971    0.853657   -0.485469
     25          6           0       -9.832506    2.096633   -0.461734
     26          6           0      -11.186470    1.932900   -0.928983
     27          6           0      -11.360501    0.529618   -1.223129
     28          6           0      -10.058555    0.044297   -0.826635
     29          6           0      -12.123187    3.104926   -1.169788
     30          6           0      -12.541567   -0.145550   -1.768748
     31          6           0      -12.488287   -0.276429   -3.349578
     32          7           0       -7.522424   -1.324702   -0.236434
     33          6           0       -8.562551   -2.053191   -0.655676
     34          6           0       -8.183974   -3.406340   -0.712903
     35          6           0       -6.911731   -3.411297   -0.304474
     36          6           0       -6.440010   -2.094362    0.061977
     37          6           0       -9.078678   -4.580993   -1.055748
     38          6           0       -5.810561   -4.319699   -0.038038
     39          8           0       -5.691800   -5.577984   -0.086321
     40          6           0       -4.544767   -3.384485    0.441940
     41          6           0       -3.846953   -3.829589    1.750017
     42          8           0       -3.974212   -3.316190    2.840901
     43          8           0       -3.156298   -4.996388    1.568121
     44          6           0       -2.524095   -5.526676    2.716353
     45          6           0        2.651907   -0.801825   -1.334904
     46          6           0        4.010834   -0.653939   -0.664146
     47          6           0        4.918504    0.230525   -1.082791
     48          6           0        4.947902    1.075931   -2.303088
     49          6           0        6.193765    0.281308   -0.280329
     50          6           0        7.451870   -0.336960   -1.037809
     51          6           0        8.690843   -0.333382   -0.216146
     52          6           0        9.945286   -0.791255   -0.946221
     53          6           0       10.027819   -2.277830   -1.145932
     54          6           0       11.224280   -0.463921   -0.033595
     55          6           0       12.666151   -0.659878   -0.646150
     56          6           0       13.662749   -0.021231    0.165784
     57          6           0       15.136742   -0.178855   -0.476932
     58          6           0       15.434830   -1.603263   -0.657813
     59          6           0       16.166676    0.509009    0.548225
     60          6           0       17.556865    0.715081   -0.048633
     61          6           0       18.495882    1.555489    0.753128
     62          6           0       19.910831    1.665277    0.192781
     63          6           0       20.076129    2.414688   -1.230302
     64          6           0       20.962250    2.291039    1.160498
     65          1           0       -3.977054    3.428321    2.133152
     66          1           0       -9.990327    4.147684    0.076146
     67          1           0      -10.656157   -1.912634   -1.304798
     68          1           0       -2.822161   -1.396225    2.212305
     69          1           0       -2.350439    1.432519    1.743027
     70          1           0       -2.171521    0.196894    3.891049
     71          1           0       -2.951615    1.851257    3.786558
     72          1           0       -3.971627    0.018841    3.711292
     73          1           0       -2.220905   -1.623923   -0.425352
     74          1           0       -2.320064    0.012836   -0.575263
     75          1           0       -0.275517    0.114604    0.870858
     76          1           0       -0.301409   -1.481355    1.237606
     77          1           0       -4.286037    5.816401    0.855192
     78          1           0       -5.705608    6.825957    1.600017
     79          1           0       -4.729793    5.626123    2.607043
     80          1           0       -7.494868    7.102650    0.995490
     81          1           0       -9.389507    5.843914   -1.252690
     82          1           0       -9.410146    7.810205   -0.741290
     83          1           0      -12.468972    3.521871   -0.207776
     84          1           0      -11.576898    3.841425   -1.944616
     85          1           0      -13.010174    2.661248   -1.906789
     86          1           0      -12.773447   -1.241029   -1.372465
     87          1           0      -13.565713    0.347246   -1.469191
     88          1           0      -12.323338    0.743891   -4.048617
     89          1           0      -11.573460   -1.009286   -3.418424
     90          1           0      -13.349454   -0.971060   -3.875792
     91          1           0      -10.047042   -4.570499   -0.423403
     92          1           0       -9.505785   -4.377808   -2.088311
     93          1           0       -8.535963   -5.564769   -0.908659
     94          1           0       -3.734709   -3.509862   -0.276694
     95          1           0       -1.887794   -6.425493    2.394980
     96          1           0       -1.982384   -4.749582    3.326214
     97          1           0       -3.369054   -5.942659    3.463818
     98          1           0        2.629941   -1.789509   -1.910399
     99          1           0        2.334302   -0.065924   -2.225476
    100          1           0        4.228222   -1.079918    0.370995
    101          1           0        5.338055    2.086027   -2.145249
    102          1           0        5.568613    0.670464   -3.058994
    103          1           0        3.989826    1.101449   -2.899053
    104          1           0        6.415675    1.420164   -0.131067
    105          1           0        6.094869   -0.402044    0.653777
    106          1           0        7.295154   -1.372501   -1.110424
    107          1           0        7.726589    0.058016   -2.105534
    108          1           0        8.624308    0.650647    0.574253
    109          1           0        8.498281   -1.274329    0.610532
    110          1           0       10.242811   -0.024636   -2.000359
    111          1           0        8.969486   -2.519131   -1.578423
    112          1           0       10.966409   -2.663442   -1.709324
    113          1           0        9.935803   -2.937922   -0.334902
    114          1           0       11.045375    0.538504    0.398080
    115          1           0       11.097041   -1.101819    0.914238
    116          1           0       12.504735   -1.747418   -0.645233
    117          1           0       12.574318   -0.217323   -1.742018
    118          1           0       13.248297    1.191496    0.476907
    119          1           0       13.832287   -0.386854    1.165608
    120          1           0       15.093961    0.368748   -1.487579
    121          1           0       14.777876   -2.250086   -1.319901
    122          1           0       16.546505   -1.596455   -1.074357
    123          1           0       15.715150   -2.249336    0.301150
    124          1           0       15.737628    1.466130    0.786453
    125          1           0       16.395466    0.144986    1.633547
    126          1           0       18.132679   -0.328926   -0.231129
    127          1           0       17.339767    1.049129   -1.130996
    128          1           0       18.112348    2.545198    0.904089
    129          1           0       18.650207    1.089114    1.776179
    130          1           0       20.251660    0.525738    0.171274
    131          1           0       19.512935    3.426471   -1.224375
    132          1           0       21.106963    2.577375   -1.549145
    133          1           0       19.589146    1.799040   -2.253206
    134          1           0       20.914478    1.678607    2.140563
    135          1           0       22.080271    2.413852    0.861703
    136          1           0       20.614403    3.234165    1.463591
    137          1           0       -6.961273    1.802556    0.418478
    138          1           0       -7.613491   -0.265682   -0.211733
 ---------------------------------------------------------------------

 SCF Done:  E(RB3LYP) =  -2733.08422329     A.U. after   17 cycles

 Excitation energies and oscillator strengths:

 Excited State   1:      Singlet-A      2.0681 eV  599.50 nm  f=0.1325  <S**2>=0.000
     235 -> 237       -0.24660
     235 -> 238        0.26557
     236 -> 237        0.56612
     236 -> 238        0.20492
 This state for optimization and/or second-order correction.
 Total Energy, E(TD-HF/TD-DFT) =  -2733.00822154
 Copying the excited state density for this state as the 1-particle RhoCI density.

 The electronic state is 1-A.
 Alpha  occ. eigenvalues --  -19.17971 -19.16662 -19.12994 -19.12868 -19.12438
 Alpha  occ. eigenvalues --  -14.36954 -14.36681 -14.32074 -14.29928 -10.32187
 Alpha  occ. eigenvalues --  -10.31237 -10.28679 -10.25661 -10.25610 -10.24832
 Alpha  occ. eigenvalues --  -10.23973 -10.23789 -10.23472 -10.23113 -10.22117
 Alpha  occ. eigenvalues --  -10.22011 -10.21910 -10.21806 -10.21746 -10.21743
 Alpha  occ. eigenvalues --  -10.21674 -10.21631 -10.21589 -10.21463 -10.21417
 Alpha  occ. eigenvalues --  -10.21400 -10.21184 -10.21095 -10.21071 -10.21053
 Alpha  occ. eigenvalues --  -10.20758 -10.20612 -10.20607 -10.20584 -10.20504
 Alpha  occ. eigenvalues --  -10.20466 -10.20333 -10.20285 -10.20143 -10.20002
 Alpha  occ. eigenvalues --  -10.19742 -10.19699 -10.19521 -10.19372 -10.19347
 Alpha  occ. eigenvalues --  -10.19329 -10.19193 -10.19132 -10.19125 -10.19080
 Alpha  occ. eigenvalues --  -10.19048 -10.18935 -10.18927 -10.18810 -10.18803
 Alpha  occ. eigenvalues --  -10.18726 -10.18488 -10.18401 -10.18108  -1.09949
 Alpha  occ. eigenvalues --   -1.09440  -1.01932  -1.00839  -1.00449  -0.99515
 Alpha  occ. eigenvalues --   -0.97975  -0.95306  -0.94854  -0.85173  -0.82818
 Alpha  occ. eigenvalues --   -0.82177  -0.81768  -0.81494  -0.81313  -0.80792
 Alpha  occ. eigenvalues --   -0.80155  -0.79472  -0.79337  -0.78988  -0.78246
 Alpha  occ. eigenvalues --   -0.76563  -0.76179  -0.75720  -0.74767  -0.74405
 Alpha  occ. eigenvalues --   -0.73189  -0.72961  -0.72314  -0.72077  -0.70818
 Alpha  occ. eigenvalues --   -0.70540  -0.68881  -0.68730  -0.68090  -0.67481
 Alpha  occ. eigenvalues --   -0.66682  -0.66158  -0.66118  -0.65786  -0.65087
 Alpha  occ. eigenvalues --   -0.64218  -0.62884  -0.62796  -0.62143  -0.60937
 Alpha  occ. eigenvalues --   -0.60451  -0.59223  -0.58097  -0.57511  -0.57001
 Alpha  occ. eigenvalues --   -0.55918  -0.55721  -0.55348  -0.55186  -0.55101
 Alpha  occ. eigenvalues --   -0.54897  -0.54322  -0.53848  -0.53736  -0.52901
 Alpha  occ. eigenvalues --   -0.52741  -0.51776  -0.51499  -0.51270  -0.50362
 Alpha  occ. eigenvalues --   -0.49973  -0.49448  -0.49125  -0.48572  -0.48072
 Alpha  occ. eigenvalues --   -0.47762  -0.47672  -0.47400  -0.47020  -0.47007
 Alpha  occ. eigenvalues --   -0.46809  -0.46681  -0.46016  -0.45780  -0.45692
 Alpha  occ. eigenvalues --   -0.45418  -0.45293  -0.45180  -0.44709  -0.44530
 Alpha  occ. eigenvalues --   -0.44280  -0.43970  -0.43727  -0.43505  -0.43230
 Alpha  occ. eigenvalues --   -0.43011  -0.42887  -0.42714  -0.42551  -0.42198
 Alpha  occ. eigenvalues --   -0.42115  -0.41937  -0.41817  -0.41666  -0.41221
 Alpha  occ. eigenvalues --   -0.41116  -0.41013  -0.40583  -0.40439  -0.40169
 Alpha  occ. eigenvalues --   -0.40003  -0.39914  -0.39658  -0.39277  -0.39098
 Alpha  occ. eigenvalues --   -0.38823  -0.38641  -0.38515  -0.38443  -0.38283
 Alpha  occ. eigenvalues --   -0.38234  -0.38106  -0.37892  -0.37711  -0.37544
 Alpha  occ. eigenvalues --   -0.37514  -0.37317  -0.36970  -0.36668  -0.36548
 Alpha  occ. eigenvalues --   -0.36467  -0.36297  -0.36175  -0.36063  -0.35891
 Alpha  occ. eigenvalues --   -0.35808  -0.35512  -0.35342  -0.35133  -0.34935
 Alpha  occ. eigenvalues --   -0.34397  -0.34156  -0.34130  -0.33912  -0.33808
 Alpha  occ. eigenvalues --   -0.33710  -0.33174  -0.32642  -0.32383  -0.32348
 Alpha  occ. eigenvalues --   -0.32150  -0.32113  -0.31801  -0.31382  -0.31216
 Alpha  occ. eigenvalues --   -0.30457  -0.30257  -0.29988  -0.29912  -0.29802
 Alpha  occ. eigenvalues --   -0.29451  -0.29112  -0.28745  -0.28378  -0.27952
 Alpha  occ. eigenvalues --   -0.27840  -0.27311  -0.27181  -0.26937  -0.26529
 Alpha  occ. eigenvalues --   -0.24999  -0.24744  -0.24219  -0.22754  -0.20218
 Alpha  occ. eigenvalues --   -0.19281
 Alpha virt. eigenvalues --   -0.10603  -0.08460  -0.05126  -0.01897  -0.00947
 Alpha virt. eigenvalues --   -0.00039   0.00372   0.00794   0.01789   0.03007
 Alpha virt. eigenvalues --    0.03176   0.03287   0.03746   0.04020   0.04384

 Mulliken charges:
               1
     1  C    0.014738
     2  C   -0.075458
     3  C   -0.139410
     4  C   -0.090313
     5  N   -0.153654
     6  C   -0.048607
     7  C   -0.012711
     8  C   -0.009870
     9  C   -0.017524
    10  C    0.063694
    11  C    0.035454
    12  C    0.173113
    13  C    0.134143
    14  O   -0.183946
    15  O   -0.325602
    16  N   -0.015507
    17  C    0.006506
    18  C   -0.167273
    19  C    0.062314
    20  C    0.111583
    21  C    0.081254
    22  C   -0.062336
    23  C   -0.104732
    24  N   -0.218699
    25  C    0.047358
    26  C   -0.139178
    27  C   -0.029504
    28  C    0.013615
    29  C    0.012251
    30  C   -0.027775
    31  C   -0.093320
    32  N   -0.038853
    33  C    0.057870
    34  C   -0.127116
    35  C    0.001905
    36  C    0.072858
    37  C    0.072339
    38  C    0.104891
    39  O   -0.207278
    40  C   -0.017922
    41  C    0.192434
    42  O   -0.228967
    43  O   -0.287364
    44  C    0.127531
    45  C    0.206063
    46  C   -0.069540
    47  C   -0.129490
    48  C    0.108834
    49  C    0.024303
    50  C    0.046538
    51  C   -0.101635
    52  C   -0.094864
    53  C    0.036328
    54  C   -0.045102
    55  C    0.072614
    56  C   -0.011459
    57  C   -0.061188
    58  C   -0.020537
    59  C    0.041170
    60  C   -0.034491
    61  C    0.071335
    62  C   -0.117487
    63  C   -0.042731
    64  C    0.018324
    65  H    0.012781
    66  H    0.022582
    67  H   -0.010221
    68  H    0.026041
    69  H   -0.045466
    70  H    0.015995
    71  H    0.031017
    72  H    0.050178
    73  H   -0.025244
    74  H    0.007794
    75  H   -0.030179
    76  H    0.015548
    77  H    0.046744
    78  H    0.021184
    79  H    0.038830
    80  H    0.029474
    81  H    0.042616
    82  H    0.066064
    83  H    0.051982
    84  H    0.050738
    85  H    0.035752
    86  H    0.029072
    87  H    0.025205
    88  H    0.054829
    89  H    0.021002
    90  H    0.032447
    91  H    0.036290
    92  H    0.033524
    93  H    0.060520
    94  H    0.045239
    95  H    0.052922
    96  H    0.038793
    97  H    0.039609
    98  H    0.024681
    99  H    0.028744
   100  H    0.010059
   101  H    0.013065
   102  H    0.010768
   103  H    0.001692
   104  H    0.019586
   105  H    0.011758
   106  H   -0.016906
   107  H    0.017600
   108  H    0.028817
   109  H    0.001844
   110  H    0.023247
   111  H    0.001036
   112  H    0.043108
   113  H   -0.006176
   114  H   -0.023283
   115  H   -0.013596
   116  H    0.012489
   117  H    0.010942
   118  H    0.009291
   119  H   -0.008907
   120  H    0.014996
   121  H    0.034759
   122  H    0.009899
   123  H    0.016177
   124  H   -0.020840
   125  H    0.001927
   126  H    0.008162
   127  H    0.005198
   128  H   -0.016957
   129  H   -0.003388
   130  H    0.007948
   131  H    0.024313
   132  H    0.019192
   133  H    0.022503
   134  H    0.004542
   135  H    0.032719
   136  H   -0.012741
   137  H    0.100887
   138  H    0.167266
 Sum of Mulliken charges =  -0.00000

 Dipole moment (field-independent basis, Debye):
    X=              1.5744    Y=              4.2980    Z=              0.7493  Tot=              4.6383
 Quadrupole moment (field-independent basis, Debye-Ang):
   XX=           -360.4622   YY=           -386.2623   ZZ=           -398.6786
   XY=            -23.0414   XZ=             14.1497   YZ=             -1.9464

 Normal termination of Gaussian 16 at Thu Aug 29 09:21:00 2019.
