 Gaussian 16, Revision A.03,
 Gaussian 16:  ES64L-G16RevA.03 25-Dec-2016

 --------------------------
 # td=(NStates=1) B3LYP/SVP
 --------------------------

 --
 TD
 --
 Symbolic Z-matrix:
 Charge =  0 Multiplicity = 1

                         Standard orientation:
 ---------------------------------------------------------------------
 Center     Atomic      Atomic             Coordinates (Angstroms)
 Number     Number       Type             X           Y           Z
 ---------------------------------------------------------------------
      1          6           0       -5.159840   -1.877440    0.364671
      2          6           0       -4.624836    2.676684    1.631801
      3          6           0       -9.211580    3.499133   -0.210502
      4          6           0       -9.848050   -1.360296   -0.923879
      5          7           0       -5.185277    0.485625    0.875996
      6          6           0       -4.472584   -0.740275    0.783111
      7          6           0       -3.082579   -0.653824    1.279851
      8          6           0       -3.055304    0.772905    1.961876
      9          6           0       -4.308601    1.326306    1.398875
     10          6           0       -3.064394    0.755754    3.405245
     11          6           0       -2.014932   -0.787102    0.192984
     12          6           0       -0.628093   -0.925474    0.696343
     13          6           0        0.384267   -1.215428   -0.452013
     14          8           0        0.013132   -1.400986   -1.586207
     15          8           0        1.672697   -1.032992   -0.068318
     16          7           0       -6.972827    2.745069    0.520315
     17          6           0       -5.802451    3.320624    1.059924
     18          6           0       -6.114844    4.730346    1.187786
     19          6           0       -7.389472    4.983072    0.638993
     20          6           0       -7.896590    3.650375    0.301020
     21          6           0       -5.223126    5.783902    1.716748
     22          6           0       -8.043389    6.241338    0.360557
     23          6           0       -8.765230    6.642582   -0.640132
     24          7           0       -9.256141    1.016333   -0.377835
     25          6           0       -9.843538    2.277064   -0.567749
     26          6           0      -11.165514    2.008303   -1.071716
     27          6           0      -11.355118    0.678666   -1.312799
     28          6           0      -10.116660    0.035802   -0.814553
     29          6           0      -12.081638    3.154982   -1.270755
     30          6           0      -12.602648   -0.064849   -1.753845
     31          6           0      -12.574877   -0.228168   -3.157456
     32          7           0       -7.578205   -1.142537   -0.312785
     33          6           0       -8.625283   -2.008535   -0.603574
     34          6           0       -8.218024   -3.328562   -0.750000
     35          6           0       -6.915215   -3.299858   -0.265366
     36          6           0       -6.503185   -2.012000   -0.080381
     37          6           0       -9.096111   -4.462879   -1.001720
     38          6           0       -5.746503   -4.240640   -0.096553
     39          8           0       -5.668545   -5.394654   -0.149049
     40          6           0       -4.579953   -3.293967    0.342530
     41          6           0       -4.010928   -3.900540    1.691604
     42          8           0       -4.250370   -3.425723    2.787690
     43          8           0       -3.225387   -4.928641    1.395078
     44          6           0       -2.669217   -5.504754    2.643450
     45          6           0        2.658852   -1.295499   -1.065584
     46          6           0        3.968403   -0.831946   -0.621126
     47          6           0        4.954895   -0.158036   -1.251577
     48          6           0        4.888690    0.197338   -2.734218
     49          6           0        6.286461    0.171495   -0.493411
     50          6           0        7.497879   -0.683868   -1.005281
     51          6           0        8.743237   -0.279492   -0.220809
     52          6           0       10.059298   -0.969540   -0.610206
     53          6           0       10.046293   -2.485695   -0.636905
     54          6           0       11.311607   -0.317291    0.171841
     55          6           0       12.677358   -0.596730   -0.551592
     56          6           0       13.824437    0.134163    0.146525
     57          6           0       15.217368   -0.125274   -0.261114
     58          6           0       15.674373   -1.675048   -0.261542
     59          6           0       16.164458    0.799853    0.526365
     60          6           0       17.520874    0.745216   -0.065344
     61          6           0       18.480012    1.773192    0.499998
     62          6           0       19.922245    1.835072   -0.041953
     63          6           0       20.096268    2.308303   -1.508174
     64          6           0       20.869802    2.830758    0.803677
     65          1           0       -3.767662    3.361277    1.932730
     66          1           0       -9.761842    4.329457   -0.367376
     67          1           0      -10.761256   -1.926301   -1.158264
     68          1           0       -3.047520   -1.313026    2.154638
     69          1           0       -2.300243    1.286346    1.515665
     70          1           0       -1.980238    0.443766    3.855920
     71          1           0       -3.147665    1.709841    4.003017
     72          1           0       -3.727430   -0.028729    3.995412
     73          1           0       -2.419694   -1.705995   -0.399475
     74          1           0       -2.108245   -0.184810   -0.732708
     75          1           0       -0.473484    0.074242    1.225798
     76          1           0       -0.482592   -1.852118    1.257013
     77          1           0       -4.361184    5.948112    0.950673
     78          1           0       -5.813116    6.687163    2.221796
     79          1           0       -4.614743    5.336369    2.615750
     80          1           0       -7.860465    7.215223    0.882401
     81          1           0       -9.107299    6.151333   -1.569433
     82          1           0       -9.117594    7.747316   -0.654999
     83          1           0      -12.167396    3.995906   -0.460212
     84          1           0      -11.775244    3.834893   -2.072903
     85          1           0      -12.991306    2.851306   -1.795818
     86          1           0      -12.536388   -1.033007   -1.037689
     87          1           0      -13.473562    0.459931   -1.580864
     88          1           0      -12.609699    0.759884   -3.717832
     89          1           0      -11.615293   -0.715741   -3.861607
     90          1           0      -13.557408   -0.828279   -3.425109
     91          1           0      -10.068920   -4.276342   -0.445439
     92          1           0       -9.315149   -4.409477   -2.041964
     93          1           0       -8.704748   -5.419801   -0.763734
     94          1           0       -3.733519   -3.512084   -0.288771
     95          1           0       -2.015421   -6.443229    2.535333
     96          1           0       -2.103958   -4.788378    3.291458
     97          1           0       -3.450064   -6.094237    3.134399
     98          1           0        2.396558   -2.273002   -1.094422
     99          1           0        2.269143   -0.876524   -2.227166
    100          1           0        4.163175   -1.069542    0.412228
    101          1           0        5.339899    1.258114   -2.727904
    102          1           0        5.812300   -0.332702   -3.094903
    103          1           0        3.917883   -0.006950   -3.261132
    104          1           0        6.614349    1.122758   -0.573443
    105          1           0        5.975986   -0.074153    0.623377
    106          1           0        7.134891   -1.820003   -0.802197
    107          1           0        7.610966   -0.567073   -2.107947
    108          1           0        8.666977    0.873576   -0.087625
    109          1           0        8.577076   -0.627301    0.861453
    110          1           0       10.028394   -0.541026   -1.700223
    111          1           0        9.236527   -2.806013   -1.260104
    112          1           0       11.128794   -2.896666   -0.907775
    113          1           0        9.634527   -2.800906    0.493606
    114          1           0       11.113707    0.753164    0.286754
    115          1           0       11.262573   -0.717422    1.141910
    116          1           0       13.003746   -1.688568   -0.380304
    117          1           0       12.887897   -0.266996   -1.571857
    118          1           0       13.646524    1.230683    0.196643
    119          1           0       13.995974   -0.194691    1.140039
    120          1           0       15.312597    0.368097   -1.276797
    121          1           0       15.018392   -2.319478   -0.912454
    122          1           0       16.718203   -1.784909   -0.689089
    123          1           0       15.883441   -2.263896    0.656636
    124          1           0       15.737424    1.887935    0.519707
    125          1           0       16.341225    0.460248    1.542311
    126          1           0       17.764030   -0.307848   -0.045710
    127          1           0       17.406104    0.920777   -1.270852
    128          1           0       17.987560    2.804990    0.215655
    129          1           0       18.570381    1.861871    1.711698
    130          1           0       20.361587    0.833583    0.107410
    131          1           0       19.636824    3.400228   -1.511825
    132          1           0       21.172762    2.170185   -1.617896
    133          1           0       19.570273    1.725273   -2.226778
    134          1           0       20.904353    2.389324    1.931570
    135          1           0       21.981264    2.755375    0.569029
    136          1           0       20.480326    3.883811    1.056698
    137          1           0       -6.778313    1.662994   -0.040301
    138          1           0       -7.521635   -0.116907   -0.272899
 ---------------------------------------------------------------------

 SCF Done:  E(RB3LYP) =  -2733.09554065     A.U. after   17 cycles

 Excitation energies and oscillator strengths:

 Excited State   1:      Singlet-A      2.0454 eV  606.17 nm  f=0.1374  <S**2>=0.000
     235 -> 237       -0.28382
     235 -> 238        0.26778
     236 -> 237        0.55441
     236 -> 238        0.19093
 This state for optimization and/or second-order correction.
 Total Energy, E(TD-HF/TD-DFT) =  -2733.02037507
 Copying the excited state density for this state as the 1-particle RhoCI density.

 The electronic state is 1-A.
 Alpha  occ. eigenvalues --  -19.19558 -19.17910 -19.12899 -19.12448 -19.12419
 Alpha  occ. eigenvalues --  -14.37321 -14.36237 -14.32564 -14.28792 -10.31856
 Alpha  occ. eigenvalues --  -10.31815 -10.27429 -10.25787 -10.25078 -10.23877
 Alpha  occ. eigenvalues --  -10.23347 -10.22753 -10.22605 -10.22597 -10.21954
 Alpha  occ. eigenvalues --  -10.21223 -10.21072 -10.21021 -10.20854 -10.20614
 Alpha  occ. eigenvalues --  -10.20569 -10.20431 -10.20387 -10.20261 -10.20222
 Alpha  occ. eigenvalues --  -10.20198 -10.20183 -10.20154 -10.20146 -10.20116
 Alpha  occ. eigenvalues --  -10.20067 -10.20035 -10.20015 -10.19936 -10.19872
 Alpha  occ. eigenvalues --  -10.19818 -10.19793 -10.19739 -10.19711 -10.19706
 Alpha  occ. eigenvalues --  -10.19639 -10.19530 -10.19523 -10.19505 -10.19218
 Alpha  occ. eigenvalues --  -10.19072 -10.18984 -10.18912 -10.18798 -10.18786
 Alpha  occ. eigenvalues --  -10.18629 -10.18583 -10.18493 -10.18230 -10.18099
 Alpha  occ. eigenvalues --  -10.17950 -10.17820 -10.17693 -10.16836  -1.10067
 Alpha  occ. eigenvalues --   -1.09886  -1.05998  -1.01500  -1.00584  -0.97593
 Alpha  occ. eigenvalues --   -0.97437  -0.94574  -0.91349  -0.84348  -0.82719
 Alpha  occ. eigenvalues --   -0.82414  -0.81925  -0.81302  -0.81122  -0.80538
 Alpha  occ. eigenvalues --   -0.80218  -0.79520  -0.79293  -0.78771  -0.77828
 Alpha  occ. eigenvalues --   -0.76979  -0.76351  -0.75477  -0.75179  -0.74784
 Alpha  occ. eigenvalues --   -0.73502  -0.73063  -0.72478  -0.71529  -0.70775
 Alpha  occ. eigenvalues --   -0.69446  -0.68767  -0.68187  -0.67761  -0.67582
 Alpha  occ. eigenvalues --   -0.67080  -0.66652  -0.65987  -0.65689  -0.65516
 Alpha  occ. eigenvalues --   -0.63575  -0.62605  -0.61922  -0.61281  -0.60547
 Alpha  occ. eigenvalues --   -0.59647  -0.58983  -0.58593  -0.58049  -0.56947
 Alpha  occ. eigenvalues --   -0.56617  -0.55867  -0.55732  -0.55468  -0.55440
 Alpha  occ. eigenvalues --   -0.54781  -0.54113  -0.53868  -0.53515  -0.52857
 Alpha  occ. eigenvalues --   -0.52351  -0.51677  -0.51517  -0.50540  -0.50184
 Alpha  occ. eigenvalues --   -0.50029  -0.49110  -0.48865  -0.48754  -0.48463
 Alpha  occ. eigenvalues --   -0.48228  -0.47995  -0.47802  -0.47229  -0.47044
 Alpha  occ. eigenvalues --   -0.46887  -0.46543  -0.46354  -0.46120  -0.45974
 Alpha  occ. eigenvalues --   -0.45892  -0.45424  -0.45373  -0.45035  -0.44920
 Alpha  occ. eigenvalues --   -0.44444  -0.44051  -0.43944  -0.43691  -0.43536
 Alpha  occ. eigenvalues --   -0.43391  -0.43206  -0.42879  -0.42798  -0.42325
 Alpha  occ. eigenvalues --   -0.42044  -0.41873  -0.41647  -0.41607  -0.41463
 Alpha  occ. eigenvalues --   -0.41280  -0.40939  -0.40796  -0.40370  -0.40180
 Alpha  occ. eigenvalues --   -0.39938  -0.39897  -0.39837  -0.39655  -0.39320
 Alpha  occ. eigenvalues --   -0.39213  -0.38843  -0.38746  -0.38474  -0.38357
 Alpha  occ. eigenvalues --   -0.38310  -0.38099  -0.37926  -0.37690  -0.37496
 Alpha  occ. eigenvalues --   -0.37405  -0.37288  -0.37002  -0.36922  -0.36784
 Alpha  occ. eigenvalues --   -0.36655  -0.36361  -0.36100  -0.36017  -0.35822
 Alpha  occ. eigenvalues --   -0.35691  -0.35342  -0.35221  -0.35115  -0.34745
 Alpha  occ. eigenvalues --   -0.34666  -0.34466  -0.34393  -0.33726  -0.33641
 Alpha  occ. eigenvalues --   -0.33491  -0.33362  -0.32445  -0.32163  -0.31997
 Alpha  occ. eigenvalues --   -0.31795  -0.31679  -0.31618  -0.31455  -0.31436
 Alpha  occ. eigenvalues --   -0.31331  -0.30760  -0.30400  -0.30355  -0.29660
 Alpha  occ. eigenvalues --   -0.29392  -0.29126  -0.28913  -0.28265  -0.28029
 Alpha  occ. eigenvalues --   -0.27724  -0.27204  -0.26088  -0.25833  -0.24903
 Alpha  occ. eigenvalues --   -0.24738  -0.24298  -0.23553  -0.21781  -0.19326
 Alpha  occ. eigenvalues --   -0.18546
 Alpha virt. eigenvalues --   -0.10012  -0.07360  -0.03396  -0.01053  -0.00712
 Alpha virt. eigenvalues --    0.00423   0.00555   0.01089   0.02142   0.03423
 Alpha virt. eigenvalues --    0.03754   0.04101   0.04206   0.04471   0.04621

 Mulliken charges:
               1
     1  C    0.061331
     2  C   -0.067845
     3  C   -0.020686
     4  C   -0.079327
     5  N   -0.206780
     6  C   -0.101289
     7  C    0.005863
     8  C    0.118375
     9  C   -0.050781
    10  C   -0.004560
    11  C    0.011856
    12  C    0.105603
    13  C    0.148927
    14  O   -0.228663
    15  O   -0.318553
    16  N   -0.111589
    17  C    0.076556
    18  C   -0.121527
    19  C    0.083445
    20  C    0.100347
    21  C    0.012100
    22  C   -0.020550
    23  C   -0.121994
    24  N   -0.276521
    25  C    0.050286
    26  C   -0.086639
    27  C   -0.129250
    28  C    0.029542
    29  C    0.094578
    30  C    0.140049
    31  C   -0.080814
    32  N   -0.072737
    33  C    0.123466
    34  C   -0.160724
    35  C   -0.060948
    36  C    0.100921
    37  C    0.150598
    38  C    0.072690
    39  O   -0.100680
    40  C   -0.075239
    41  C    0.189966
    42  O   -0.237278
    43  O   -0.279347
    44  C    0.156102
    45  C    0.262161
    46  C   -0.049358
    47  C   -0.167744
    48  C    0.087900
    49  C    0.075682
    50  C   -0.053412
    51  C   -0.012994
    52  C   -0.084102
    53  C    0.009115
    54  C    0.091672
    55  C    0.061608
    56  C    0.004276
    57  C   -0.048471
    58  C   -0.018230
    59  C    0.010436
    60  C    0.009717
    61  C    0.008317
    62  C   -0.088290
    63  C    0.045848
    64  C   -0.057700
    65  H    0.000697
    66  H   -0.092805
    67  H   -0.023906
    68  H    0.011697
    69  H   -0.052606
    70  H    0.005678
    71  H    0.021438
    72  H    0.055793
    73  H    0.001530
    74  H    0.010017
    75  H    0.048438
    76  H    0.023228
    77  H    0.047895
    78  H    0.053642
    79  H    0.025246
    80  H    0.002718
    81  H    0.021984
    82  H    0.027528
    83  H    0.035033
    84  H   -0.009517
    85  H   -0.014186
    86  H    0.032494
    87  H   -0.021644
    88  H    0.019553
    89  H    0.032124
    90  H    0.017576
    91  H    0.034667
    92  H    0.012189
    93  H    0.021529
    94  H    0.039746
    95  H    0.032340
    96  H    0.057685
    97  H    0.035939
    98  H   -0.029147
    99  H    0.048289
   100  H   -0.023508
   101  H    0.013217
   102  H    0.017594
   103  H    0.042671
   104  H   -0.027802
   105  H    0.023296
   106  H    0.025327
   107  H    0.015927
   108  H    0.010514
   109  H   -0.014546
   110  H   -0.009575
   111  H    0.013621
   112  H    0.050599
   113  H    0.012781
   114  H   -0.011268
   115  H   -0.019879
   116  H    0.012137
   117  H   -0.001889
   118  H   -0.013509
   119  H   -0.034272
   120  H   -0.018287
   121  H    0.023382
   122  H    0.011268
   123  H    0.015658
   124  H    0.004860
   125  H   -0.009847
   126  H   -0.018355
   127  H   -0.001250
   128  H   -0.005960
   129  H    0.011427
   130  H   -0.004937
   131  H    0.022862
   132  H    0.013154
   133  H    0.003205
   134  H   -0.000587
   135  H    0.027211
   136  H    0.029419
   137  H    0.247827
   138  H    0.129927
 Sum of Mulliken charges =  -0.00000

 Dipole moment (field-independent basis, Debye):
    X=              4.6579    Y=              2.1516    Z=              0.1421  Tot=              5.1328
 Quadrupole moment (field-independent basis, Debye-Ang):
   XX=           -370.6551   YY=           -377.4464   ZZ=           -396.2224
   XY=            -25.6044   XZ=             15.2456   YZ=             -6.1479

 Normal termination of Gaussian 16 at Fri Aug  9 05:58:29 2019.
