 Gaussian 16, Revision A.03,
 Gaussian 16:  ES64L-G16RevA.03 25-Dec-2016

 --------------------------
 # td=(NStates=1) B3LYP/SVP
 --------------------------

 --
 TD
 --
 Symbolic Z-matrix:
 Charge =  0 Multiplicity = 1

                         Standard orientation:
 ---------------------------------------------------------------------
 Center     Atomic      Atomic             Coordinates (Angstroms)
 Number     Number       Type             X           Y           Z
 ---------------------------------------------------------------------
      1          6           0       -5.127708   -1.961190    0.346220
      2          6           0       -4.651492    2.708654    1.492233
      3          6           0       -9.083983    3.431137   -0.359692
      4          6           0       -9.889976   -1.343949   -0.988208
      5          7           0       -5.176670    0.330642    0.850413
      6          6           0       -4.521267   -0.776775    0.824911
      7          6           0       -3.056635   -0.672783    1.301647
      8          6           0       -3.071794    0.830743    1.940984
      9          6           0       -4.369227    1.394736    1.348506
     10          6           0       -3.067022    0.727517    3.363040
     11          6           0       -2.009481   -0.905147    0.195499
     12          6           0       -0.536423   -0.959390    0.647424
     13          6           0        0.325698   -1.206218   -0.539291
     14          8           0        0.127329   -1.532133   -1.651555
     15          8           0        1.623799   -1.033460   -0.118814
     16          7           0       -6.915760    2.755817    0.439484
     17          6           0       -5.849337    3.347680    1.095046
     18          6           0       -6.001577    4.754033    1.128203
     19          6           0       -7.257340    5.003122    0.632489
     20          6           0       -7.835782    3.751668    0.179598
     21          6           0       -4.974344    5.755905    1.658965
     22          6           0       -7.873329    6.361107    0.452081
     23          6           0       -8.793108    6.895421   -0.386628
     24          7           0       -9.068595    1.053686   -0.583931
     25          6           0       -9.763610    2.331203   -0.585971
     26          6           0      -11.175837    2.109757   -1.027423
     27          6           0      -11.359626    0.761598   -1.243731
     28          6           0      -10.090776    0.166148   -0.899412
     29          6           0      -12.133890    3.281840   -1.094280
     30          6           0      -12.569538    0.044126   -1.865252
     31          6           0      -12.534651   -0.109262   -3.354554
     32          7           0       -7.515623   -1.194927   -0.351296
     33          6           0       -8.633726   -1.941390   -0.797885
     34          6           0       -8.177282   -3.286768   -0.806647
     35          6           0       -6.944952   -3.405522   -0.227785
     36          6           0       -6.531809   -1.964922   -0.136573
     37          6           0       -9.064207   -4.461135   -1.268350
     38          6           0       -5.811656   -4.271037   -0.040748
     39          8           0       -5.931415   -5.541466   -0.030086
     40          6           0       -4.577021   -3.343547    0.392479
     41          6           0       -3.990282   -3.866232    1.650153
     42          8           0       -4.192467   -3.341302    2.817304
     43          8           0       -3.387927   -5.049148    1.553659
     44          6           0       -3.060901   -5.887924    2.727294
     45          6           0        2.667872   -1.263062   -1.070901
     46          6           0        3.925871   -1.041757   -0.353214
     47          6           0        4.834633   -0.045752   -0.782456
     48          6           0        4.734923    0.774622   -2.024036
     49          6           0        6.202515    0.024095   -0.093795
     50          6           0        7.406188   -0.648459   -0.732645
     51          6           0        8.792257   -0.453568    0.012930
     52          6           0        9.981153   -0.882668   -0.753240
     53          6           0        9.982597   -2.443632   -1.058705
     54          6           0       11.271001   -0.573507    0.115451
     55          6           0       12.595695   -0.682570   -0.685851
     56          6           0       13.792754   -0.124969    0.219455
     57          6           0       15.192231   -0.127103   -0.518089
     58          6           0       15.718207   -1.526746   -0.956672
     59          6           0       16.251316    0.673438    0.318279
     60          6           0       17.632377    0.837542   -0.229827
     61          6           0       18.625701    1.712493    0.616926
     62          6           0       20.049706    1.886227   -0.079824
     63          6           0       20.089033    2.986959   -1.306574
     64          6           0       21.009032    2.260924    1.062138
     65          1           0       -4.144488    3.362807    2.178425
     66          1           0       -9.687981    4.224387   -0.346921
     67          1           0      -10.674334   -1.956319   -1.122067
     68          1           0       -2.794276   -1.372992    2.185006
     69          1           0       -2.071739    1.356791    1.732602
     70          1           0       -2.161904    0.658651    3.859230
     71          1           0       -3.416259    1.683182    3.836723
     72          1           0       -3.925163   -0.097790    3.640171
     73          1           0       -2.232601   -2.036928   -0.191681
     74          1           0       -2.155492   -0.001278   -0.481323
     75          1           0       -0.169607   -0.078563    1.345643
     76          1           0       -0.348007   -1.876906    1.310142
     77          1           0       -3.984740    5.642677    1.193723
     78          1           0       -5.382735    6.772748    1.563746
     79          1           0       -4.790472    5.897354    2.666956
     80          1           0       -7.262507    7.015400    1.274354
     81          1           0       -9.360279    6.242479   -0.980884
     82          1           0       -9.012370    7.947123   -0.424339
     83          1           0      -12.271013    3.827575   -0.062619
     84          1           0      -11.891426    3.887242   -1.787755
     85          1           0      -13.022246    2.871342   -1.497556
     86          1           0      -12.675738   -0.895576   -1.311513
     87          1           0      -13.447020    0.730677   -1.631430
     88          1           0      -12.404872    0.890238   -3.841018
     89          1           0      -11.580136   -0.652788   -3.633031
     90          1           0      -13.426348   -0.802279   -3.740076
     91          1           0      -10.247467   -4.476282   -0.845671
     92          1           0       -9.206055   -4.156485   -2.277048
     93          1           0       -8.528003   -5.485306   -0.924804
     94          1           0       -3.859215   -3.451895   -0.564510
     95          1           0       -2.910331   -6.963288    2.107876
     96          1           0       -2.058815   -5.565605    3.314831
     97          1           0       -4.014605   -5.914191    3.489104
     98          1           0        2.459602   -2.384222   -1.352835
     99          1           0        2.532995   -0.810714   -2.039893
    100          1           0        3.982166   -1.775524    0.546952
    101          1           0        5.132242    1.830039   -1.766519
    102          1           0        5.414706    0.382821   -2.767738
    103          1           0        3.846593    0.701761   -2.592113
    104          1           0        6.337147    1.046973    0.186090
    105          1           0        6.004238   -0.321199    0.855348
    106          1           0        7.236787   -1.719668   -0.886369
    107          1           0        7.572076   -0.313717   -1.700616
    108          1           0        8.692578    0.687820    0.351502
    109          1           0        8.689056   -0.993837    0.947449
    110          1           0       10.044777   -0.349524   -1.673382
    111          1           0        9.057138   -2.865162   -1.566986
    112          1           0       10.894461   -2.775202   -1.679291
    113          1           0       10.041171   -2.937706   -0.029838
    114          1           0       11.113179    0.415631    0.487073
    115          1           0       11.341291   -1.190154    1.075254
    116          1           0       12.905966   -1.731004   -0.795339
    117          1           0       12.413001    0.070091   -1.644925
    118          1           0       13.589846    0.999331    0.443174
    119          1           0       13.700046   -0.748633    1.153656
    120          1           0       15.083552    0.350833   -1.356549
    121          1           0       14.998938   -2.098939   -1.729202
    122          1           0       16.511374   -1.401103   -1.529533
    123          1           0       15.734779   -2.266806   -0.050146
    124          1           0       15.616309    1.506144    0.445866
    125          1           0       16.395083    0.225896    1.259693
    126          1           0       18.028167   -0.186064   -0.475536
    127          1           0       17.516519    1.706945   -1.100481
    128          1           0       18.217413    2.627305    0.834767
    129          1           0       18.765953    1.052154    1.458765
    130          1           0       20.372891    0.771348   -0.416068
    131          1           0       19.889728    4.129533   -0.931923
    132          1           0       21.058024    2.930513   -1.592543
    133          1           0       19.235527    2.715170   -2.066590
    134          1           0       21.151135    1.489780    1.863212
    135          1           0       21.976606    2.388639    0.536438
    136          1           0       20.729907    3.456099    1.762011
    137          1           0       -6.984756    1.782059    0.277422
    138          1           0       -7.504997   -0.074667   -0.543463
 ---------------------------------------------------------------------

 SCF Done:  E(RB3LYP) =  -2733.04070513     A.U. after   17 cycles

 Excitation energies and oscillator strengths:

 Excited State   1:      Singlet-A      1.9729 eV  628.43 nm  f=0.1540  <S**2>=0.000
     235 -> 237       -0.12199
     235 -> 238       -0.25467
     236 -> 237        0.63909
 This state for optimization and/or second-order correction.
 Total Energy, E(TD-HF/TD-DFT) =  -2732.96820162
 Copying the excited state density for this state as the 1-particle RhoCI density.

 The electronic state is 1-A.
 Alpha  occ. eigenvalues --  -19.18471 -19.15266 -19.12840 -19.12503 -19.11451
 Alpha  occ. eigenvalues --  -14.37677 -14.36914 -14.32120 -14.31068 -10.32323
 Alpha  occ. eigenvalues --  -10.30664 -10.29073 -10.28434 -10.24269 -10.23891
 Alpha  occ. eigenvalues --  -10.23626 -10.23420 -10.23412 -10.23038 -10.22883
 Alpha  occ. eigenvalues --  -10.22869 -10.22607 -10.22081 -10.21807 -10.21516
 Alpha  occ. eigenvalues --  -10.21438 -10.21086 -10.21079 -10.20997 -10.20958
 Alpha  occ. eigenvalues --  -10.20781 -10.20712 -10.20621 -10.20463 -10.20254
 Alpha  occ. eigenvalues --  -10.20235 -10.19926 -10.19835 -10.19826 -10.19790
 Alpha  occ. eigenvalues --  -10.19648 -10.19639 -10.19579 -10.19575 -10.19435
 Alpha  occ. eigenvalues --  -10.19387 -10.19240 -10.19206 -10.19178 -10.19121
 Alpha  occ. eigenvalues --  -10.19078 -10.18982 -10.18821 -10.18711 -10.18707
 Alpha  occ. eigenvalues --  -10.18393 -10.18237 -10.17996 -10.17896 -10.17781
 Alpha  occ. eigenvalues --  -10.17730 -10.17504 -10.17377 -10.16599  -1.09282
 Alpha  occ. eigenvalues --   -1.08232  -1.00439  -1.00416  -0.99527  -0.98081
 Alpha  occ. eigenvalues --   -0.96327  -0.94096  -0.91606  -0.84323  -0.82032
 Alpha  occ. eigenvalues --   -0.81962  -0.81619  -0.81142  -0.80815  -0.80639
 Alpha  occ. eigenvalues --   -0.80196  -0.79664  -0.79446  -0.78439  -0.77876
 Alpha  occ. eigenvalues --   -0.76464  -0.76153  -0.75592  -0.75345  -0.74312
 Alpha  occ. eigenvalues --   -0.73172  -0.73043  -0.72247  -0.71553  -0.71286
 Alpha  occ. eigenvalues --   -0.70032  -0.69706  -0.68736  -0.68080  -0.67641
 Alpha  occ. eigenvalues --   -0.67286  -0.66361  -0.66301  -0.65684  -0.64510
 Alpha  occ. eigenvalues --   -0.63969  -0.62766  -0.62382  -0.61962  -0.61262
 Alpha  occ. eigenvalues --   -0.60021  -0.58992  -0.58492  -0.58046  -0.57221
 Alpha  occ. eigenvalues --   -0.56216  -0.56117  -0.55552  -0.55299  -0.55254
 Alpha  occ. eigenvalues --   -0.54937  -0.54339  -0.53941  -0.53771  -0.52877
 Alpha  occ. eigenvalues --   -0.52750  -0.51994  -0.51364  -0.51139  -0.50190
 Alpha  occ. eigenvalues --   -0.49977  -0.49259  -0.48623  -0.48237  -0.48156
 Alpha  occ. eigenvalues --   -0.47702  -0.47692  -0.47415  -0.47039  -0.46564
 Alpha  occ. eigenvalues --   -0.46479  -0.46319  -0.46197  -0.45802  -0.45636
 Alpha  occ. eigenvalues --   -0.45331  -0.44922  -0.44823  -0.44709  -0.44505
 Alpha  occ. eigenvalues --   -0.44381  -0.44328  -0.44112  -0.43932  -0.43720
 Alpha  occ. eigenvalues --   -0.43362  -0.43296  -0.43083  -0.42763  -0.42688
 Alpha  occ. eigenvalues --   -0.42465  -0.41916  -0.41769  -0.41646  -0.41537
 Alpha  occ. eigenvalues --   -0.41029  -0.40845  -0.40700  -0.40497  -0.40194
 Alpha  occ. eigenvalues --   -0.40116  -0.39976  -0.39902  -0.39586  -0.39381
 Alpha  occ. eigenvalues --   -0.39172  -0.38935  -0.38560  -0.38363  -0.38176
 Alpha  occ. eigenvalues --   -0.38117  -0.37849  -0.37473  -0.37444  -0.37305
 Alpha  occ. eigenvalues --   -0.37104  -0.36840  -0.36716  -0.36596  -0.36510
 Alpha  occ. eigenvalues --   -0.36204  -0.36092  -0.35869  -0.35829  -0.35591
 Alpha  occ. eigenvalues --   -0.35121  -0.34989  -0.34698  -0.34530  -0.34506
 Alpha  occ. eigenvalues --   -0.34225  -0.34087  -0.33916  -0.33747  -0.33273
 Alpha  occ. eigenvalues --   -0.33198  -0.33064  -0.32770  -0.32736  -0.32407
 Alpha  occ. eigenvalues --   -0.32386  -0.31836  -0.31828  -0.31636  -0.31327
 Alpha  occ. eigenvalues --   -0.31002  -0.30514  -0.30087  -0.29946  -0.29323
 Alpha  occ. eigenvalues --   -0.28789  -0.28491  -0.28159  -0.28099  -0.27858
 Alpha  occ. eigenvalues --   -0.27585  -0.27144  -0.26957  -0.26583  -0.26419
 Alpha  occ. eigenvalues --   -0.25269  -0.24509  -0.23622  -0.23114  -0.19835
 Alpha  occ. eigenvalues --   -0.19091
 Alpha virt. eigenvalues --   -0.10863  -0.08096  -0.04890  -0.02393  -0.01556
 Alpha virt. eigenvalues --   -0.00846  -0.00086   0.00673   0.02235   0.03792
 Alpha virt. eigenvalues --    0.03804   0.04040   0.04323   0.04570   0.04811

 Mulliken charges:
               1
     1  C   -0.033831
     2  C   -0.074221
     3  C    0.015214
     4  C   -0.007271
     5  N   -0.164106
     6  C   -0.043134
     7  C   -0.072033
     8  C   -0.069425
     9  C    0.102546
    10  C    0.062672
    11  C    0.024712
    12  C   -0.028251
    13  C    0.171537
    14  O   -0.189080
    15  O   -0.344876
    16  N   -0.037838
    17  C    0.045275
    18  C   -0.123225
    19  C    0.033672
    20  C    0.045893
    21  C    0.132091
    22  C   -0.062773
    23  C    0.008236
    24  N   -0.331148
    25  C    0.064087
    26  C   -0.147130
    27  C   -0.130289
    28  C    0.068001
    29  C    0.235795
    30  C    0.071128
    31  C   -0.001163
    32  N   -0.014327
    33  C    0.086888
    34  C   -0.110002
    35  C   -0.021537
    36  C    0.022384
    37  C    0.011278
    38  C    0.079333
    39  O   -0.226813
    40  C   -0.025836
    41  C    0.252330
    42  O   -0.306323
    43  O   -0.285364
    44  C    0.073158
    45  C    0.230297
    46  C   -0.060946
    47  C   -0.182208
    48  C    0.114873
    49  C    0.137329
    50  C    0.088999
    51  C   -0.013015
    52  C   -0.009990
    53  C   -0.031646
    54  C    0.016566
    55  C    0.005425
    56  C   -0.042046
    57  C    0.026621
    58  C    0.010978
    59  C    0.099615
    60  C   -0.040695
    61  C    0.093724
    62  C   -0.143616
    63  C    0.006239
    64  C   -0.031703
    65  H   -0.013495
    66  H   -0.094346
    67  H   -0.080970
    68  H    0.032972
    69  H   -0.006693
    70  H   -0.009538
    71  H   -0.014229
    72  H    0.049416
    73  H    0.039424
    74  H    0.029343
    75  H    0.057318
    76  H    0.042863
    77  H    0.030800
    78  H   -0.008332
    79  H    0.001654
    80  H    0.019351
    81  H    0.005371
    82  H    0.026327
    83  H    0.052776
    84  H   -0.049700
    85  H   -0.031257
    86  H    0.009118
    87  H    0.009587
    88  H    0.018981
    89  H    0.009989
    90  H    0.038239
    91  H    0.045383
    92  H    0.026796
    93  H    0.085811
    94  H    0.092507
    95  H    0.079222
    96  H    0.072342
    97  H    0.083466
    98  H    0.003603
    99  H   -0.000999
   100  H    0.020289
   101  H    0.027259
   102  H    0.013348
   103  H   -0.005988
   104  H   -0.029730
   105  H   -0.045736
   106  H   -0.008379
   107  H   -0.038812
   108  H    0.005876
   109  H   -0.013685
   110  H   -0.020006
   111  H    0.024333
   112  H    0.028711
   113  H    0.011512
   114  H   -0.023770
   115  H   -0.005189
   116  H    0.018279
   117  H    0.020081
   118  H    0.005823
   119  H    0.005570
   120  H   -0.069387
   121  H    0.004596
   122  H   -0.018151
   123  H    0.021040
   124  H   -0.031969
   125  H   -0.034722
   126  H    0.019224
   127  H   -0.002847
   128  H   -0.021455
   129  H   -0.020022
   130  H    0.016787
   131  H    0.031162
   132  H    0.001461
   133  H    0.044949
   134  H    0.027968
   135  H    0.009283
   136  H    0.015661
   137  H    0.111923
   138  H    0.220580
 Sum of Mulliken charges =  -0.00000

 Dipole moment (field-independent basis, Debye):
    X=              1.3220    Y=              3.4074    Z=             -0.1987  Tot=              3.6603
 Quadrupole moment (field-independent basis, Debye-Ang):
   XX=           -342.4884   YY=           -380.7479   ZZ=           -395.9694
   XY=            -26.1521   XZ=             12.9899   YZ=             -1.8541

 Normal termination of Gaussian 16 at Wed Aug 14 00:49:06 2019.
