 Gaussian 16, Revision A.03,
 Gaussian 16:  ES64L-G16RevA.03 25-Dec-2016

 --------------------------
 # td=(NStates=1) B3LYP/SVP
 --------------------------

 --
 TD
 --
 Symbolic Z-matrix:
 Charge =  0 Multiplicity = 1

                         Standard orientation:
 ---------------------------------------------------------------------
 Center     Atomic      Atomic             Coordinates (Angstroms)
 Number     Number       Type             X           Y           Z
 ---------------------------------------------------------------------
      1          6           0       -5.070111   -1.929195    0.456515
      2          6           0       -4.780972    2.778739    1.432104
      3          6           0       -9.379629    3.310798   -0.303953
      4          6           0       -9.858376   -1.487544   -0.940118
      5          7           0       -5.218660    0.485451    0.836216
      6          6           0       -4.561279   -0.701828    0.983073
      7          6           0       -3.042665   -0.481450    1.367505
      8          6           0       -3.029519    0.937272    1.968034
      9          6           0       -4.423683    1.475959    1.373580
     10          6           0       -3.103103    0.888036    3.517000
     11          6           0       -1.995884   -0.623562    0.107252
     12          6           0       -0.605313   -0.561945    0.510494
     13          6           0        0.317886   -0.789093   -0.648755
     14          8           0        0.022574   -1.220612   -1.760395
     15          8           0        1.692811   -0.655381   -0.281769
     16          7           0       -7.204272    2.748481    0.550551
     17          6           0       -6.033811    3.336441    0.997362
     18          6           0       -6.276934    4.722801    1.114670
     19          6           0       -7.589357    4.937701    0.584516
     20          6           0       -8.158469    3.625511    0.321363
     21          6           0       -5.225698    5.712311    1.543077
     22          6           0       -8.190181    6.261410    0.377565
     23          6           0       -9.177916    6.574197   -0.540632
     24          7           0       -9.222336    0.823346   -0.514361
     25          6           0       -9.907408    2.002066   -0.641536
     26          6           0      -11.214751    1.855374   -1.058696
     27          6           0      -11.375642    0.493521   -1.256571
     28          6           0      -10.064693   -0.113004   -0.910740
     29          6           0      -12.198557    2.903308   -1.245014
     30          6           0      -12.541153   -0.297101   -1.728814
     31          6           0      -12.502820   -0.616092   -3.254746
     32          7           0       -7.505530   -1.328186   -0.196365
     33          6           0       -8.601958   -2.134143   -0.535328
     34          6           0       -8.174673   -3.406876   -0.554952
     35          6           0       -6.807695   -3.426284   -0.236548
     36          6           0       -6.498791   -2.045326    0.048363
     37          6           0       -8.924796   -4.585462   -1.050541
     38          6           0       -5.677847   -4.315029    0.011113
     39          8           0       -5.582133   -5.483840   -0.049358
     40          6           0       -4.521837   -3.261607    0.470568
     41          6           0       -3.886510   -3.779455    1.723218
     42          8           0       -4.033253   -3.309293    2.830895
     43          8           0       -3.147554   -4.901039    1.567499
     44          6           0       -2.528029   -5.575721    2.602777
     45          6           0        2.675531   -1.000024   -1.331588
     46          6           0        4.033351   -0.673316   -0.606472
     47          6           0        5.014982    0.207352   -1.015959
     48          6           0        4.891593    0.942430   -2.359246
     49          6           0        6.292937    0.238422   -0.160244
     50          6           0        7.512233   -0.347978   -0.895172
     51          6           0        8.808165   -0.228887   -0.160558
     52          6           0       10.052231   -0.705709   -0.881953
     53          6           0       10.052173   -2.171659   -1.244011
     54          6           0       11.286495   -0.380862    0.170350
     55          6           0       12.671765   -0.494165   -0.515337
     56          6           0       13.901276    0.008065    0.276627
     57          6           0       15.178814   -0.165081   -0.404319
     58          6           0       15.623595   -1.681187   -0.379593
     59          6           0       16.292262    0.488623    0.505091
     60          6           0       17.786819    0.462251   -0.142920
     61          6           0       18.632259    1.449270    0.640224
     62          6           0       20.059355    1.656382    0.086915
     63          6           0       20.128133    2.280207   -1.347506
     64          6           0       20.926608    2.490408    1.006156
     65          1           0       -4.089351    3.515852    2.079752
     66          1           0      -10.047068    4.066513   -0.457753
     67          1           0      -10.666009   -2.123464   -1.255019
     68          1           0       -2.826433   -1.301459    1.877150
     69          1           0       -2.168709    1.465551    1.628378
     70          1           0       -1.901819    0.596106    3.851416
     71          1           0       -3.458994    1.854189    3.855136
     72          1           0       -3.919813    0.129668    3.993457
     73          1           0       -2.369893   -1.485607   -0.418428
     74          1           0       -2.398278    0.075772   -0.540453
     75          1           0       -0.357182    0.244003    1.040391
     76          1           0       -0.337073   -1.607219    1.005049
     77          1           0       -4.407828    5.776907    0.906961
     78          1           0       -5.548248    6.822043    1.353929
     79          1           0       -4.936821    5.655549    2.589091
     80          1           0       -7.719788    6.955570    1.081215
     81          1           0       -9.386536    5.764636   -1.345767
     82          1           0       -9.552972    7.569999   -0.669569
     83          1           0      -12.493193    3.670828   -0.330094
     84          1           0      -11.966480    3.602640   -2.001733
     85          1           0      -13.318892    2.511890   -1.550180
     86          1           0      -12.520523   -1.233471   -1.262883
     87          1           0      -13.527250    0.221315   -1.677746
     88          1           0      -12.627110    0.319440   -3.728041
     89          1           0      -11.631941   -0.966878   -3.423458
     90          1           0      -13.448946   -1.299988   -3.435193
     91          1           0       -9.913604   -4.919981   -0.445729
     92          1           0       -9.094726   -4.525566   -2.127305
     93          1           0       -8.424750   -5.473346   -0.797798
     94          1           0       -3.684277   -3.610567   -0.147824
     95          1           0       -1.531676   -6.165427    2.176130
     96          1           0       -2.113282   -4.897869    3.594336
     97          1           0       -3.236288   -6.478712    3.164691
     98          1           0        2.528160   -2.135240   -1.465729
     99          1           0        2.503942   -0.463396   -2.336484
    100          1           0        4.037308   -1.379745    0.278085
    101          1           0        5.529509    1.951582   -2.480197
    102          1           0        5.293167    0.263328   -3.192090
    103          1           0        3.792823    1.219355   -2.491091
    104          1           0        6.327785    1.271790    0.050740
    105          1           0        6.130614   -0.388008    0.966701
    106          1           0        7.336589   -1.432361   -0.946572
    107          1           0        7.610538    0.130994   -1.934263
    108          1           0        8.826022    0.803330   -0.011157
    109          1           0        8.578936   -1.027674    0.677391
    110          1           0       10.302739    0.065133   -1.663422
    111          1           0        9.263020   -2.532022   -1.794813
    112          1           0       10.876115   -2.481256   -1.643840
    113          1           0       10.012330   -2.803936   -0.314395
    114          1           0       11.188650    0.713106    0.680920
    115          1           0       11.353369   -1.124647    1.012315
    116          1           0       12.714533   -1.577141   -1.056032
    117          1           0       12.650345    0.086756   -1.529407
    118          1           0       13.613011    1.055979    0.555072
    119          1           0       13.762186   -0.583220    1.200499
    120          1           0       15.250584   -0.071743   -1.434579
    121          1           0       15.029272   -2.345889   -1.122980
    122          1           0       16.657618   -1.784792   -0.608693
    123          1           0       15.272225   -2.151367    0.525348
    124          1           0       16.135007    1.619417    0.506730
    125          1           0       16.262057    0.176096    1.414955
    126          1           0       18.335033   -0.433343   -0.102924
    127          1           0       17.796309    0.677270   -1.344048
    128          1           0       18.109142    2.471175    0.526012
    129          1           0       18.567234    1.169689    1.745694
    130          1           0       20.566414    0.530918   -0.203580
    131          1           0       19.628768    3.129681   -1.356984
    132          1           0       21.136665    2.408152   -1.718393
    133          1           0       19.663540    1.563183   -2.088157
    134          1           0       20.896166    2.215658    2.088175
    135          1           0       21.979101    2.615187    0.705074
    136          1           0       20.330302    3.607657    0.954083
    137          1           0       -7.260781    1.605775    0.418464
    138          1           0       -7.774965   -0.262277   -0.297934
 ---------------------------------------------------------------------

 SCF Done:  E(RB3LYP) =  -2733.05105844     A.U. after   17 cycles

 Excitation energies and oscillator strengths:

 Excited State   1:      Singlet-A      2.0340 eV  609.55 nm  f=0.1766  <S**2>=0.000
     235 -> 237        0.50252
     235 -> 238       -0.17170
     236 -> 237       -0.38179
     236 -> 238       -0.26093
 This state for optimization and/or second-order correction.
 Total Energy, E(TD-HF/TD-DFT) =  -2732.97630967
 Copying the excited state density for this state as the 1-particle RhoCI density.

 The electronic state is 1-A.
 Alpha  occ. eigenvalues --  -19.18015 -19.16134 -19.12901 -19.12501 -19.11472
 Alpha  occ. eigenvalues --  -14.37947 -14.37095 -14.32777 -14.30963 -10.31556
 Alpha  occ. eigenvalues --  -10.31431 -10.28233 -10.27821 -10.25114 -10.24193
 Alpha  occ. eigenvalues --  -10.23988 -10.23670 -10.23473 -10.23066 -10.22856
 Alpha  occ. eigenvalues --  -10.22000 -10.21725 -10.21486 -10.21323 -10.21293
 Alpha  occ. eigenvalues --  -10.21090 -10.21077 -10.21062 -10.21043 -10.20968
 Alpha  occ. eigenvalues --  -10.20884 -10.20752 -10.20730 -10.20698 -10.20612
 Alpha  occ. eigenvalues --  -10.20576 -10.20429 -10.20407 -10.20338 -10.20252
 Alpha  occ. eigenvalues --  -10.20108 -10.19854 -10.19611 -10.19350 -10.19324
 Alpha  occ. eigenvalues --  -10.19239 -10.19176 -10.19124 -10.18966 -10.18903
 Alpha  occ. eigenvalues --  -10.18863 -10.18806 -10.18563 -10.18542 -10.18510
 Alpha  occ. eigenvalues --  -10.18437 -10.18264 -10.18231 -10.17962 -10.17807
 Alpha  occ. eigenvalues --  -10.17567 -10.17222 -10.16847 -10.16559  -1.09959
 Alpha  occ. eigenvalues --   -1.06090  -1.05325  -1.00677  -1.00168  -0.99186
 Alpha  occ. eigenvalues --   -0.98370  -0.95643  -0.93238  -0.84602  -0.82202
 Alpha  occ. eigenvalues --   -0.81957  -0.81786  -0.81592  -0.81308  -0.80961
 Alpha  occ. eigenvalues --   -0.80498  -0.80012  -0.79676  -0.79536  -0.77600
 Alpha  occ. eigenvalues --   -0.76539  -0.76269  -0.75824  -0.74872  -0.74422
 Alpha  occ. eigenvalues --   -0.73769  -0.72609  -0.72174  -0.71404  -0.70759
 Alpha  occ. eigenvalues --   -0.69970  -0.69443  -0.68436  -0.68238  -0.68103
 Alpha  occ. eigenvalues --   -0.67432  -0.66803  -0.66750  -0.66097  -0.64501
 Alpha  occ. eigenvalues --   -0.64042  -0.63242  -0.62475  -0.62301  -0.61656
 Alpha  occ. eigenvalues --   -0.60363  -0.59098  -0.58729  -0.58046  -0.57597
 Alpha  occ. eigenvalues --   -0.57070  -0.56281  -0.55521  -0.54830  -0.54751
 Alpha  occ. eigenvalues --   -0.54559  -0.54343  -0.53942  -0.53878  -0.53382
 Alpha  occ. eigenvalues --   -0.52757  -0.52640  -0.51677  -0.50480  -0.50308
 Alpha  occ. eigenvalues --   -0.49995  -0.49819  -0.49547  -0.48862  -0.48125
 Alpha  occ. eigenvalues --   -0.47925  -0.47726  -0.47430  -0.47284  -0.46930
 Alpha  occ. eigenvalues --   -0.46521  -0.46319  -0.46189  -0.46036  -0.45854
 Alpha  occ. eigenvalues --   -0.45735  -0.45611  -0.45051  -0.44939  -0.44526
 Alpha  occ. eigenvalues --   -0.44299  -0.44242  -0.43964  -0.43857  -0.43737
 Alpha  occ. eigenvalues --   -0.43576  -0.43352  -0.42973  -0.42815  -0.42486
 Alpha  occ. eigenvalues --   -0.42431  -0.42130  -0.42000  -0.41846  -0.41741
 Alpha  occ. eigenvalues --   -0.41636  -0.41384  -0.41155  -0.41043  -0.40889
 Alpha  occ. eigenvalues --   -0.40700  -0.40581  -0.40465  -0.40093  -0.39915
 Alpha  occ. eigenvalues --   -0.39371  -0.39177  -0.39045  -0.38777  -0.38709
 Alpha  occ. eigenvalues --   -0.38642  -0.38530  -0.38031  -0.37489  -0.37339
 Alpha  occ. eigenvalues --   -0.37047  -0.36885  -0.36848  -0.36743  -0.36634
 Alpha  occ. eigenvalues --   -0.36400  -0.36207  -0.35928  -0.35841  -0.35782
 Alpha  occ. eigenvalues --   -0.35586  -0.35556  -0.35315  -0.35212  -0.35169
 Alpha  occ. eigenvalues --   -0.34587  -0.34206  -0.33988  -0.33385  -0.33261
 Alpha  occ. eigenvalues --   -0.33176  -0.33075  -0.32952  -0.32797  -0.32663
 Alpha  occ. eigenvalues --   -0.32347  -0.32169  -0.31792  -0.31086  -0.31037
 Alpha  occ. eigenvalues --   -0.30931  -0.30711  -0.30083  -0.29372  -0.29266
 Alpha  occ. eigenvalues --   -0.29208  -0.28934  -0.28471  -0.28266  -0.28232
 Alpha  occ. eigenvalues --   -0.27745  -0.27544  -0.27128  -0.26900  -0.26048
 Alpha  occ. eigenvalues --   -0.25139  -0.24039  -0.23737  -0.23301  -0.20146
 Alpha  occ. eigenvalues --   -0.19529
 Alpha virt. eigenvalues --   -0.11401  -0.08133  -0.03867  -0.02150  -0.00362
 Alpha virt. eigenvalues --   -0.00204  -0.00173   0.00600   0.01677   0.03860
 Alpha virt. eigenvalues --    0.03879   0.04036   0.04453   0.04723   0.05068

 Mulliken charges:
               1
     1  C    0.054960
     2  C   -0.117760
     3  C   -0.059798
     4  C   -0.065990
     5  N   -0.198612
     6  C   -0.025945
     7  C    0.028141
     8  C    0.007141
     9  C    0.010015
    10  C    0.000130
    11  C    0.071173
    12  C    0.160046
    13  C    0.171119
    14  O   -0.242371
    15  O   -0.383412
    16  N   -0.091259
    17  C    0.109394
    18  C   -0.144189
    19  C   -0.019562
    20  C    0.106304
    21  C    0.111157
    22  C   -0.031151
    23  C   -0.036284
    24  N   -0.235146
    25  C    0.064423
    26  C   -0.073659
    27  C   -0.103385
    28  C    0.071039
    29  C    0.014039
    30  C    0.071152
    31  C    0.083390
    32  N    0.002615
    33  C    0.045682
    34  C   -0.129464
    35  C   -0.058092
    36  C    0.012417
    37  C    0.084615
    38  C    0.075351
    39  O   -0.107372
    40  C   -0.069600
    41  C    0.158052
    42  O   -0.224334
    43  O   -0.261575
    44  C    0.040526
    45  C    0.207983
    46  C   -0.090661
    47  C   -0.121656
    48  C   -0.016963
    49  C    0.057115
    50  C   -0.006447
    51  C    0.074155
    52  C   -0.070964
    53  C    0.166595
    54  C   -0.027204
    55  C   -0.079539
    56  C    0.098278
    57  C   -0.013572
    58  C    0.003166
    59  C    0.105336
    60  C   -0.014645
    61  C    0.002690
    62  C   -0.145934
    63  C    0.081647
    64  C    0.015674
    65  H    0.026449
    66  H   -0.072300
    67  H   -0.021452
    68  H   -0.069869
    69  H   -0.011313
    70  H    0.039705
    71  H    0.004983
    72  H    0.060396
    73  H   -0.011161
    74  H   -0.023487
    75  H   -0.010164
    76  H    0.061764
    77  H    0.012021
    78  H    0.007547
    79  H    0.036006
    80  H    0.002574
    81  H    0.052632
    82  H    0.024525
    83  H    0.038608
    84  H    0.009929
    85  H    0.026955
    86  H   -0.012643
    87  H   -0.000142
    88  H   -0.004579
    89  H   -0.043067
    90  H    0.029462
    91  H    0.024097
    92  H    0.039285
    93  H    0.006349
    94  H    0.040133
    95  H    0.055540
    96  H    0.057986
    97  H    0.054367
    98  H    0.028190
    99  H    0.036580
   100  H    0.012142
   101  H    0.029275
   102  H    0.054652
   103  H    0.052222
   104  H   -0.008444
   105  H    0.023189
   106  H   -0.004796
   107  H   -0.001664
   108  H   -0.027968
   109  H    0.000762
   110  H   -0.005884
   111  H   -0.011608
   112  H   -0.051442
   113  H   -0.007312
   114  H    0.011291
   115  H    0.001828
   116  H    0.004978
   117  H   -0.016663
   118  H   -0.002625
   119  H   -0.008715
   120  H   -0.023586
   121  H    0.000908
   122  H    0.007823
   123  H   -0.010804
   124  H   -0.001131
   125  H   -0.053619
   126  H   -0.008324
   127  H    0.013268
   128  H   -0.000259
   129  H    0.012463
   130  H   -0.001275
   131  H   -0.032788
   132  H    0.003809
   133  H    0.006191
   134  H    0.014513
   135  H    0.019617
   136  H    0.008630
   137  H    0.219116
   138  H    0.187346
 Sum of Mulliken charges =  -0.00000

 Dipole moment (field-independent basis, Debye):
    X=              0.7777    Y=              4.5684    Z=             -0.4684  Tot=              4.6578
 Quadrupole moment (field-independent basis, Debye-Ang):
   XX=           -343.6611   YY=           -381.3954   ZZ=           -398.7999
   XY=            -25.9547   XZ=             11.5556   YZ=              0.3392

 Normal termination of Gaussian 16 at Fri Aug  9 16:04:30 2019.
