 Gaussian 16, Revision A.03,
 Gaussian 16:  ES64L-G16RevA.03 25-Dec-2016

 --------------------------
 # td=(NStates=1) B3LYP/SVP
 --------------------------

 --
 TD
 --
 Symbolic Z-matrix:
 Charge =  0 Multiplicity = 1

                         Standard orientation:
 ---------------------------------------------------------------------
 Center     Atomic      Atomic             Coordinates (Angstroms)
 Number     Number       Type             X           Y           Z
 ---------------------------------------------------------------------
      1          6           0       -5.085110   -1.926001    0.481906
      2          6           0       -4.749918    2.789182    1.579794
      3          6           0       -9.278781    3.278459   -0.140070
      4          6           0       -9.813533   -1.456208   -1.004959
      5          7           0       -5.136589    0.521206    0.836411
      6          6           0       -4.499739   -0.675127    0.835191
      7          6           0       -3.038992   -0.541569    1.237942
      8          6           0       -3.025288    0.878295    1.938035
      9          6           0       -4.375565    1.407874    1.359866
     10          6           0       -2.995610    0.976364    3.446412
     11          6           0       -2.074841   -0.671035    0.088445
     12          6           0       -0.691043   -0.778827    0.569050
     13          6           0        0.353787   -1.023064   -0.583184
     14          8           0        0.046204   -1.681814   -1.664235
     15          8           0        1.488492   -0.672291   -0.251799
     16          7           0       -7.002839    2.862388    0.579479
     17          6           0       -5.850348    3.441769    1.065696
     18          6           0       -6.083471    4.851957    1.125354
     19          6           0       -7.413739    5.047345    0.583520
     20          6           0       -7.992020    3.738668    0.272724
     21          6           0       -5.116461    5.837967    1.557987
     22          6           0       -8.018922    6.256977    0.319254
     23          6           0       -9.041591    6.596830   -0.539840
     24          7           0       -9.192372    0.869289   -0.521717
     25          6           0       -9.754668    2.052497   -0.513688
     26          6           0      -11.126944    1.926844   -1.077467
     27          6           0      -11.412824    0.601568   -1.322070
     28          6           0      -10.101501   -0.023137   -0.930631
     29          6           0      -12.166579    3.079524   -1.225441
     30          6           0      -12.581185   -0.107300   -1.741942
     31          6           0      -12.508078   -0.538174   -3.288509
     32          7           0       -7.479075   -1.303165   -0.072277
     33          6           0       -8.548325   -2.052880   -0.600984
     34          6           0       -8.114185   -3.317524   -0.600896
     35          6           0       -6.939097   -3.465024   -0.085168
     36          6           0       -6.462358   -2.118718    0.174096
     37          6           0       -9.053455   -4.587044   -0.982693
     38          6           0       -5.781173   -4.268465    0.076603
     39          8           0       -5.554293   -5.510315   -0.112327
     40          6           0       -4.587203   -3.360695    0.436206
     41          6           0       -3.959006   -3.923154    1.690363
     42          8           0       -4.234703   -3.544333    2.878082
     43          8           0       -3.002892   -4.884032    1.548293
     44          6           0       -2.582941   -5.544957    2.659829
     45          6           0        2.576331   -1.076561   -1.103382
     46          6           0        3.967770   -0.729919   -0.653539
     47          6           0        4.889520   -0.064113   -1.301819
     48          6           0        4.756978    0.419768   -2.763361
     49          6           0        6.238248    0.324214   -0.563748
     50          6           0        7.401089   -0.442517   -1.004828
     51          6           0        8.683483   -0.122193   -0.194452
     52          6           0       10.072175   -0.812303   -0.645298
     53          6           0        9.954645   -2.309448   -0.575547
     54          6           0       11.202405   -0.105934    0.024740
     55          6           0       12.625223   -0.582421   -0.536973
     56          6           0       13.687301    0.220157    0.178427
     57          6           0       15.154020   -0.111458   -0.371255
     58          6           0       15.484550   -1.723093   -0.079847
     59          6           0       16.274681    0.736767    0.324388
     60          6           0       17.662794    0.737862   -0.214400
     61          6           0       18.622526    1.744212    0.461691
     62          6           0       20.116271    1.513512    0.111606
     63          6           0       20.416855    1.861845   -1.366444
     64          6           0       20.903539    2.460104    1.027644
     65          1           0       -3.978306    3.424400    2.188805
     66          1           0      -10.003960    4.006854   -0.521721
     67          1           0      -10.560776   -2.201851   -1.598430
     68          1           0       -2.805419   -1.339007    2.070867
     69          1           0       -2.122574    1.632463    1.348974
     70          1           0       -2.067267    0.564894    4.075674
     71          1           0       -2.989540    1.899582    3.848590
     72          1           0       -4.054228    0.535734    3.927048
     73          1           0       -2.221378   -1.638759   -0.287258
     74          1           0       -1.998349    0.107347   -0.664946
     75          1           0       -0.269767    0.314321    1.175461
     76          1           0       -0.486457   -1.471880    1.378137
     77          1           0       -4.525099    6.490582    0.552159
     78          1           0       -5.760606    6.666061    2.116635
     79          1           0       -4.406723    5.425556    2.306033
     80          1           0       -7.593079    6.858911    0.905351
     81          1           0       -9.437174    5.995916   -1.460696
     82          1           0       -9.267454    7.540494   -0.554025
     83          1           0      -12.187076    3.669085   -0.175565
     84          1           0      -11.842775    3.738669   -2.104132
     85          1           0      -13.079933    2.760443   -1.527868
     86          1           0      -12.630676   -1.063780   -1.043679
     87          1           0      -13.469319    0.427471   -1.504954
     88          1           0      -12.179613    0.255251   -4.286824
     89          1           0      -11.821475   -1.533960   -3.450191
     90          1           0      -13.433991   -0.970499   -3.612231
     91          1           0      -10.008750   -4.702811   -0.375947
     92          1           0       -9.415086   -4.304034   -2.130570
     93          1           0       -8.554750   -5.451663   -0.958363
     94          1           0       -3.859550   -3.550114   -0.314340
     95          1           0       -1.824706   -6.158661    2.396370
     96          1           0       -2.181516   -4.684568    3.344978
     97          1           0       -3.400250   -6.063036    3.150245
     98          1           0        2.461351   -2.096110   -1.464538
     99          1           0        2.327274   -0.593316   -2.101386
    100          1           0        4.281793   -1.111012    0.465334
    101          1           0        5.116835    1.357969   -2.834294
    102          1           0        5.299368   -0.275454   -3.416728
    103          1           0        3.744499    0.396022   -3.282557
    104          1           0        6.118299    1.449651   -0.639820
    105          1           0        5.914499    0.065377    0.407534
    106          1           0        7.258143   -1.567871   -1.058862
    107          1           0        7.361914   -0.263056   -2.227312
    108          1           0        8.702853    1.077352   -0.185393
    109          1           0        8.604844   -0.348834    0.801119
    110          1           0       10.330526   -0.650417   -1.925686
    111          1           0        9.131003   -2.817435   -1.201949
    112          1           0       10.889995   -2.693651   -0.990900
    113          1           0        9.761468   -2.759991    0.456531
    114          1           0       11.066442    1.175517   -0.043109
    115          1           0       11.022622   -0.327989    1.193969
    116          1           0       12.698506   -1.792698   -0.559935
    117          1           0       12.852246   -0.261306   -1.629826
    118          1           0       13.612283    1.345791    0.217233
    119          1           0       13.754448   -0.172717    1.543456
    120          1           0       15.086272   -0.001258   -1.509057
    121          1           0       14.805744   -2.267664   -0.680154
    122          1           0       16.485070   -1.962479   -0.413088
    123          1           0       15.202768   -2.000470    1.058235
    124          1           0       15.685339    1.926955    0.312502
    125          1           0       16.197036    0.510010    1.516954
    126          1           0       18.010775   -0.276369   -0.163906
    127          1           0       17.760056    0.958926   -1.320436
    128          1           0       18.304657    2.893322    0.257510
    129          1           0       18.409063    1.529254    1.587200
    130          1           0       20.417536    0.441056    0.210636
    131          1           0       20.321101    3.009992   -1.593962
    132          1           0       21.662586    1.659019   -1.541217
    133          1           0       19.784544    1.150139   -2.040431
    134          1           0       20.738988    2.198048    2.141502
    135          1           0       22.040273    2.508446    0.759220
    136          1           0       20.577983    3.549833    0.876351
    137          1           0       -7.287277    1.802295    0.277275
    138          1           0       -7.660625   -0.180213   -0.094989
 ---------------------------------------------------------------------

 SCF Done:  E(RB3LYP) =  -2732.92496996     A.U. after   17 cycles

 Excitation energies and oscillator strengths:

 Excited State   1:      Singlet-A      1.9661 eV  630.60 nm  f=0.2000  <S**2>=0.000
     235 -> 238       -0.25406
     236 -> 237        0.64532
 This state for optimization and/or second-order correction.
 Total Energy, E(TD-HF/TD-DFT) =  -2732.85271575
 Copying the excited state density for this state as the 1-particle RhoCI density.

 The electronic state is 1-A.
 Alpha  occ. eigenvalues --  -19.20314 -19.17187 -19.11264 -19.11251 -19.10659
 Alpha  occ. eigenvalues --  -14.37542 -14.36901 -14.32641 -14.31151 -10.31591
 Alpha  occ. eigenvalues --  -10.31417 -10.27615 -10.25669 -10.24215 -10.24168
 Alpha  occ. eigenvalues --  -10.23681 -10.23418 -10.23316 -10.23037 -10.22889
 Alpha  occ. eigenvalues --  -10.22792 -10.22710 -10.22400 -10.22372 -10.21871
 Alpha  occ. eigenvalues --  -10.21740 -10.21620 -10.21521 -10.21471 -10.21369
 Alpha  occ. eigenvalues --  -10.21234 -10.21182 -10.21171 -10.21109 -10.21072
 Alpha  occ. eigenvalues --  -10.21006 -10.20756 -10.20755 -10.20748 -10.20699
 Alpha  occ. eigenvalues --  -10.20572 -10.20520 -10.20381 -10.20294 -10.20071
 Alpha  occ. eigenvalues --  -10.20069 -10.20040 -10.20025 -10.19839 -10.19832
 Alpha  occ. eigenvalues --  -10.19709 -10.19557 -10.19538 -10.19388 -10.19368
 Alpha  occ. eigenvalues --  -10.19302 -10.19224 -10.19202 -10.18875 -10.18871
 Alpha  occ. eigenvalues --  -10.18677 -10.18544 -10.18519 -10.18307  -1.13932
 Alpha  occ. eigenvalues --   -1.09107  -0.99729  -0.98467  -0.98193  -0.97176
 Alpha  occ. eigenvalues --   -0.96406  -0.95923  -0.95708  -0.85014  -0.83116
 Alpha  occ. eigenvalues --   -0.82606  -0.81982  -0.81469  -0.81203  -0.80912
 Alpha  occ. eigenvalues --   -0.80679  -0.80255  -0.78875  -0.78636  -0.77936
 Alpha  occ. eigenvalues --   -0.77098  -0.76109  -0.75949  -0.75180  -0.74220
 Alpha  occ. eigenvalues --   -0.73730  -0.73404  -0.72576  -0.71214  -0.70062
 Alpha  occ. eigenvalues --   -0.69866  -0.69352  -0.68986  -0.68281  -0.67846
 Alpha  occ. eigenvalues --   -0.67213  -0.66676  -0.66096  -0.65729  -0.65354
 Alpha  occ. eigenvalues --   -0.64806  -0.63854  -0.62740  -0.62437  -0.62278
 Alpha  occ. eigenvalues --   -0.61111  -0.59183  -0.58747  -0.57977  -0.57916
 Alpha  occ. eigenvalues --   -0.56853  -0.56114  -0.56068  -0.55230  -0.54569
 Alpha  occ. eigenvalues --   -0.54436  -0.54062  -0.53492  -0.53278  -0.53045
 Alpha  occ. eigenvalues --   -0.52668  -0.52320  -0.51930  -0.51094  -0.50913
 Alpha  occ. eigenvalues --   -0.50065  -0.49719  -0.48981  -0.48840  -0.48434
 Alpha  occ. eigenvalues --   -0.47982  -0.47659  -0.47496  -0.46904  -0.46525
 Alpha  occ. eigenvalues --   -0.46217  -0.45998  -0.45921  -0.45643  -0.45529
 Alpha  occ. eigenvalues --   -0.45334  -0.45139  -0.44969  -0.44788  -0.44691
 Alpha  occ. eigenvalues --   -0.44389  -0.44084  -0.43991  -0.43795  -0.43503
 Alpha  occ. eigenvalues --   -0.43334  -0.43259  -0.43139  -0.42522  -0.41959
 Alpha  occ. eigenvalues --   -0.41911  -0.41747  -0.41444  -0.41313  -0.41049
 Alpha  occ. eigenvalues --   -0.40999  -0.40865  -0.40494  -0.40343  -0.40196
 Alpha  occ. eigenvalues --   -0.39976  -0.39945  -0.39792  -0.39554  -0.39469
 Alpha  occ. eigenvalues --   -0.39141  -0.39001  -0.38928  -0.38820  -0.38728
 Alpha  occ. eigenvalues --   -0.38460  -0.38241  -0.38129  -0.37823  -0.37486
 Alpha  occ. eigenvalues --   -0.37323  -0.36949  -0.36818  -0.36640  -0.36575
 Alpha  occ. eigenvalues --   -0.36261  -0.36142  -0.35651  -0.35540  -0.35495
 Alpha  occ. eigenvalues --   -0.35459  -0.35176  -0.34906  -0.34764  -0.34736
 Alpha  occ. eigenvalues --   -0.34265  -0.34100  -0.34039  -0.33887  -0.33585
 Alpha  occ. eigenvalues --   -0.33389  -0.33108  -0.32939  -0.32646  -0.32625
 Alpha  occ. eigenvalues --   -0.32195  -0.32082  -0.31707  -0.31234  -0.31166
 Alpha  occ. eigenvalues --   -0.30879  -0.30394  -0.29615  -0.29578  -0.29270
 Alpha  occ. eigenvalues --   -0.28738  -0.28692  -0.28547  -0.28469  -0.27915
 Alpha  occ. eigenvalues --   -0.27360  -0.27143  -0.26761  -0.26591  -0.26247
 Alpha  occ. eigenvalues --   -0.25428  -0.24665  -0.23575  -0.22928  -0.20284
 Alpha  occ. eigenvalues --   -0.19069
 Alpha virt. eigenvalues --   -0.11030  -0.07994  -0.05239  -0.02556  -0.00763
 Alpha virt. eigenvalues --   -0.00277   0.00291   0.00618   0.01675   0.02872
 Alpha virt. eigenvalues --    0.02880   0.03210   0.03338   0.03565   0.03904

 Mulliken charges:
               1
     1  C    0.088065
     2  C   -0.111371
     3  C   -0.072523
     4  C   -0.100076
     5  N   -0.083624
     6  C   -0.061936
     7  C   -0.083525
     8  C   -0.103334
     9  C   -0.058829
    10  C    0.052713
    11  C    0.205700
    12  C   -0.091266
    13  C    0.176132
    14  O   -0.345984
    15  O   -0.179439
    16  N   -0.131360
    17  C    0.174322
    18  C   -0.100077
    19  C    0.049235
    20  C    0.046866
    21  C   -0.017619
    22  C    0.024359
    23  C    0.024357
    24  N   -0.199196
    25  C    0.052906
    26  C   -0.176863
    27  C   -0.033261
    28  C    0.025762
    29  C    0.104238
    30  C    0.052548
    31  C   -0.070611
    32  N   -0.097772
    33  C    0.053533
    34  C   -0.165025
    35  C    0.103629
    36  C   -0.036144
    37  C    0.084623
    38  C    0.041426
    39  O   -0.237241
    40  C    0.064584
    41  C    0.193587
    42  O   -0.296367
    43  O   -0.271363
    44  C    0.216950
    45  C    0.244018
    46  C   -0.088759
    47  C   -0.219289
    48  C    0.109641
    49  C    0.106244
    50  C    0.005795
    51  C    0.062464
    52  C   -0.100578
    53  C    0.015115
    54  C   -0.031390
    55  C   -0.002560
    56  C   -0.050285
    57  C   -0.098676
    58  C    0.008612
    59  C   -0.048025
    60  C    0.091029
    61  C   -0.038182
    62  C   -0.069111
    63  C   -0.073820
    64  C   -0.000969
    65  H    0.011413
    66  H   -0.030693
    67  H    0.036504
    68  H    0.041568
    69  H    0.030673
    70  H    0.031418
    71  H   -0.023277
    72  H    0.046646
    73  H   -0.004118
    74  H    0.010942
    75  H    0.022428
    76  H    0.026650
    77  H    0.067302
    78  H    0.045839
    79  H    0.034600
    80  H   -0.116064
    81  H    0.053660
    82  H   -0.025460
    83  H    0.054855
    84  H    0.027158
    85  H   -0.026331
    86  H    0.032189
    87  H   -0.003169
    88  H    0.052245
    89  H    0.026836
    90  H    0.008593
    91  H    0.041627
    92  H    0.031023
    93  H    0.003246
    94  H    0.036005
    95  H   -0.001991
    96  H    0.021196
    97  H    0.024761
    98  H    0.030401
    99  H    0.009135
   100  H    0.019175
   101  H   -0.010231
   102  H    0.029810
   103  H    0.017002
   104  H    0.025137
   105  H   -0.033044
   106  H    0.004218
   107  H    0.004897
   108  H    0.005432
   109  H   -0.025075
   110  H   -0.001501
   111  H    0.026107
   112  H    0.006002
   113  H    0.011385
   114  H    0.032483
   115  H    0.017015
   116  H    0.052083
   117  H    0.016331
   118  H    0.025242
   119  H   -0.006766
   120  H    0.007221
   121  H   -0.008299
   122  H    0.012525
   123  H    0.030250
   124  H   -0.008371
   125  H    0.022093
   126  H   -0.015468
   127  H   -0.003308
   128  H    0.021883
   129  H    0.006184
   130  H    0.006780
   131  H    0.029322
   132  H    0.024517
   133  H    0.039499
   134  H    0.023137
   135  H    0.012868
   136  H    0.011217
   137  H    0.206984
   138  H    0.205457
 Sum of Mulliken charges =  -0.00000

 Dipole moment (field-independent basis, Debye):
    X=              2.4664    Y=              5.3614    Z=             -0.3640  Tot=              5.9127
 Quadrupole moment (field-independent basis, Debye-Ang):
   XX=           -340.3999   YY=           -394.9958   ZZ=           -397.4374
   XY=            -35.1806   XZ=              7.6141   YZ=              0.3908

 Normal termination of Gaussian 16 at Wed Aug 28 09:15:03 2019.
