 Gaussian 16, Revision A.03,
 Gaussian 16:  ES64L-G16RevA.03 25-Dec-2016

 --------------------------
 # td=(NStates=1) B3LYP/SVP
 --------------------------

 --
 TD
 --
 Symbolic Z-matrix:
 Charge =  0 Multiplicity = 1

                         Standard orientation:
 ---------------------------------------------------------------------
 Center     Atomic      Atomic             Coordinates (Angstroms)
 Number     Number       Type             X           Y           Z
 ---------------------------------------------------------------------
      1          6           0       -5.126882   -2.003091    0.414877
      2          6           0       -4.633023    2.647649    1.382521
      3          6           0       -9.180132    3.519718   -0.175552
      4          6           0       -9.819390   -1.248761   -1.067490
      5          7           0       -5.061179    0.408507    0.742980
      6          6           0       -4.553703   -0.876791    0.850271
      7          6           0       -3.071680   -0.762023    1.311841
      8          6           0       -2.989925    0.649521    1.870829
      9          6           0       -4.316240    1.376119    1.387004
     10          6           0       -2.901673    0.718100    3.347844
     11          6           0       -2.101158   -0.952214    0.152723
     12          6           0       -0.637080   -0.950515    0.538569
     13          6           0        0.426602   -1.355516   -0.431879
     14          8           0        0.209571   -1.980305   -1.492352
     15          8           0        1.591151   -0.902318   -0.022655
     16          7           0       -6.988007    2.914166    0.460260
     17          6           0       -5.819235    3.367169    1.044323
     18          6           0       -6.028035    4.837888    1.033759
     19          6           0       -7.284299    5.071597    0.523403
     20          6           0       -7.923296    3.783362    0.224653
     21          6           0       -4.963078    5.749138    1.499231
     22          6           0       -7.735461    6.387194    0.256786
     23          6           0       -8.752669    6.708323   -0.598963
     24          7           0       -9.113737    1.044553   -0.435193
     25          6           0       -9.729928    2.222795   -0.504841
     26          6           0      -11.131802    2.085353   -0.847792
     27          6           0      -11.345147    0.738572   -1.132595
     28          6           0      -10.094263    0.067476   -0.835199
     29          6           0      -12.258442    3.138046   -0.927580
     30          6           0      -12.556802    0.147190   -1.529510
     31          6           0      -12.856512    0.028141   -3.118537
     32          7           0       -7.494445   -1.201648   -0.147039
     33          6           0       -8.615633   -1.891798   -0.711756
     34          6           0       -8.254201   -3.325370   -0.926772
     35          6           0       -6.909818   -3.347576   -0.397538
     36          6           0       -6.468146   -2.043228    0.099490
     37          6           0       -9.124364   -4.411252   -1.297876
     38          6           0       -5.886334   -4.381364   -0.135886
     39          8           0       -5.907391   -5.507409   -0.219480
     40          6           0       -4.659549   -3.413798    0.391695
     41          6           0       -4.052373   -3.997906    1.740339
     42          8           0       -4.530074   -3.655269    2.724637
     43          8           0       -3.178197   -4.957187    1.412950
     44          6           0       -2.645452   -5.760162    2.523995
     45          6           0        2.675990   -1.153858   -0.982118
     46          6           0        3.983116   -0.655726   -0.359620
     47          6           0        5.023474    0.000485   -0.986473
     48          6           0        5.003778    0.543020   -2.308939
     49          6           0        6.289935    0.171247   -0.266588
     50          6           0        7.466445   -0.651442   -0.883316
     51          6           0        8.783629   -0.207396   -0.225193
     52          6           0       10.099570   -0.830694   -0.834467
     53          6           0        9.929930   -2.368258   -0.821395
     54          6           0       11.236699   -0.285704    0.005411
     55          6           0       12.578791   -0.546935   -0.604865
     56          6           0       13.708569   -0.019113    0.338105
     57          6           0       15.135811   -0.048186   -0.365038
     58          6           0       15.639800   -1.444249   -0.632299
     59          6           0       16.108106    0.750917    0.533912
     60          6           0       17.523701    0.881325   -0.245995
     61          6           0       18.566301    1.717518    0.589533
     62          6           0       20.016980    1.696319    0.062456
     63          6           0       20.059255    2.268444   -1.374877
     64          6           0       20.912203    2.533939    1.029392
     65          1           0       -3.768440    3.295994    1.796775
     66          1           0       -9.770315    4.431257   -0.551249
     67          1           0      -10.701047   -1.946217   -1.347774
     68          1           0       -2.973260   -1.436181    2.100605
     69          1           0       -2.269245    1.279288    1.374930
     70          1           0       -1.895561    0.558561    3.678803
     71          1           0       -3.000555    1.757756    3.555628
     72          1           0       -3.503702    0.246162    4.079447
     73          1           0       -2.354502   -1.833337   -0.329010
     74          1           0       -2.382601   -0.233137   -0.608761
     75          1           0       -0.293876   -0.163357    1.030387
     76          1           0       -0.605939   -1.721591    1.358438
     77          1           0       -4.067159    5.889748    0.916094
     78          1           0       -5.323079    6.761070    1.781454
     79          1           0       -4.749772    5.595193    2.596849
     80          1           0       -7.418455    7.156665    0.943450
     81          1           0       -9.115764    5.814983   -1.188050
     82          1           0       -9.226726    7.717158   -0.747096
     83          1           0      -12.595981    3.646531    0.090921
     84          1           0      -11.901552    4.027966   -1.657220
     85          1           0      -13.087003    2.756308   -1.366962
     86          1           0      -12.476350   -1.011826   -1.161609
     87          1           0      -13.547642    0.517664   -0.854784
     88          1           0      -13.306552    1.098462   -3.666866
     89          1           0      -11.875956   -0.218935   -3.644944
     90          1           0      -13.714496   -0.605678   -3.202064
     91          1           0       -9.959636   -4.635654   -0.568829
     92          1           0       -9.704945   -4.298388   -2.382271
     93          1           0       -8.530016   -5.452846   -1.362326
     94          1           0       -4.057036   -3.496367   -0.465853
     95          1           0       -1.785089   -6.440073    2.016048
     96          1           0       -2.073596   -5.085477    3.052166
     97          1           0       -3.489414   -6.461738    3.046054
     98          1           0        2.694827   -2.207605   -1.235406
     99          1           0        2.347290   -0.849268   -2.101540
    100          1           0        4.224495   -0.974492    0.755741
    101          1           0        5.223830    1.529229   -2.229811
    102          1           0        5.735771    0.083190   -3.105334
    103          1           0        4.022381    0.416013   -2.743033
    104          1           0        6.649150    1.179187   -0.374755
    105          1           0        6.324658   -0.242940    0.712645
    106          1           0        7.140878   -1.767462   -0.766862
    107          1           0        7.729252   -0.351875   -2.004907
    108          1           0        8.908470    1.040200   -0.101703
    109          1           0        8.737599   -0.339174    1.055935
    110          1           0       10.081644   -0.300023   -1.773215
    111          1           0        9.196800   -2.413219   -1.452727
    112          1           0       10.882671   -2.938316   -1.481192
    113          1           0        9.694145   -2.918260    0.100063
    114          1           0       11.006797    0.744645    0.294071
    115          1           0       11.328929   -0.741824    1.146633
    116          1           0       12.732531   -1.586812   -0.759185
    117          1           0       12.803355    0.023975   -1.672967
    118          1           0       13.826252    1.028615    0.692892
    119          1           0       13.943514   -0.657871    1.297083
    120          1           0       15.306379    0.315698   -1.394196
    121          1           0       14.935678   -2.069830   -1.313793
    122          1           0       16.646350   -1.624914   -1.204104
    123          1           0       15.782397   -2.078023    0.195914
    124          1           0       15.510763    1.659835    0.666951
    125          1           0       16.389809    0.152069    1.449256
    126          1           0       17.788111   -0.077063   -0.402255
    127          1           0       17.169536    1.500655   -1.189734
    128          1           0       18.122688    2.725131    0.636253
    129          1           0       18.700229    1.181035    1.685972
    130          1           0       20.353187    0.671246   -0.013446
    131          1           0       19.562160    3.220875   -1.382442
    132          1           0       21.065351    2.317598   -1.934758
    133          1           0       19.440386    1.624844   -2.049391
    134          1           0       20.572299    2.124315    2.102521
    135          1           0       21.921196    2.332666    0.890779
    136          1           0       20.415434    3.615152    0.832545
    137          1           0       -7.082962    1.927866    0.387739
    138          1           0       -7.645647   -0.165979    0.167428
 ---------------------------------------------------------------------

 SCF Done:  E(RB3LYP) =  -2733.05732856     A.U. after   16 cycles

 Excitation energies and oscillator strengths:

 Excited State   1:      Singlet-A      2.0896 eV  593.35 nm  f=0.1757  <S**2>=0.000
     235 -> 237       -0.20870
     235 -> 238        0.27634
     236 -> 237        0.59611
     236 -> 238        0.14860
 This state for optimization and/or second-order correction.
 Total Energy, E(TD-HF/TD-DFT) =  -2732.98053801
 Copying the excited state density for this state as the 1-particle RhoCI density.

 The electronic state is 1-A.
 Alpha  occ. eigenvalues --  -19.18936 -19.18072 -19.12803 -19.12773 -19.11626
 Alpha  occ. eigenvalues --  -14.36965 -14.36873 -14.31105 -14.30022 -10.31249
 Alpha  occ. eigenvalues --  -10.31165 -10.27117 -10.26452 -10.26195 -10.24721
 Alpha  occ. eigenvalues --  -10.23490 -10.23138 -10.22828 -10.21990 -10.21929
 Alpha  occ. eigenvalues --  -10.21782 -10.21513 -10.21501 -10.21389 -10.21230
 Alpha  occ. eigenvalues --  -10.20935 -10.20893 -10.20688 -10.20659 -10.20656
 Alpha  occ. eigenvalues --  -10.20403 -10.20175 -10.20068 -10.20004 -10.19970
 Alpha  occ. eigenvalues --  -10.19940 -10.19810 -10.19807 -10.19713 -10.19707
 Alpha  occ. eigenvalues --  -10.19511 -10.19369 -10.19303 -10.19218 -10.19030
 Alpha  occ. eigenvalues --  -10.19027 -10.18904 -10.18895 -10.18866 -10.18767
 Alpha  occ. eigenvalues --  -10.18632 -10.18539 -10.18535 -10.18534 -10.18499
 Alpha  occ. eigenvalues --  -10.18377 -10.18299 -10.18271 -10.18270 -10.18209
 Alpha  occ. eigenvalues --  -10.17727 -10.17659 -10.17625 -10.17148  -1.10385
 Alpha  occ. eigenvalues --   -1.10060  -1.07703  -1.03385  -1.00107  -0.98717
 Alpha  occ. eigenvalues --   -0.96168  -0.92532  -0.92114  -0.84268  -0.83673
 Alpha  occ. eigenvalues --   -0.82514  -0.81887  -0.81653  -0.81022  -0.80763
 Alpha  occ. eigenvalues --   -0.79592  -0.79433  -0.79301  -0.78593  -0.77966
 Alpha  occ. eigenvalues --   -0.76736  -0.76214  -0.75013  -0.74679  -0.73676
 Alpha  occ. eigenvalues --   -0.73303  -0.72941  -0.72068  -0.71692  -0.71098
 Alpha  occ. eigenvalues --   -0.70529  -0.68975  -0.68411  -0.68118  -0.67475
 Alpha  occ. eigenvalues --   -0.66942  -0.66730  -0.66208  -0.65786  -0.64910
 Alpha  occ. eigenvalues --   -0.64012  -0.63161  -0.62561  -0.61601  -0.61278
 Alpha  occ. eigenvalues --   -0.60718  -0.58664  -0.58391  -0.58250  -0.57191
 Alpha  occ. eigenvalues --   -0.56931  -0.56214  -0.56210  -0.55418  -0.55183
 Alpha  occ. eigenvalues --   -0.54916  -0.54547  -0.54110  -0.53703  -0.52968
 Alpha  occ. eigenvalues --   -0.52110  -0.51579  -0.51209  -0.50904  -0.50495
 Alpha  occ. eigenvalues --   -0.49572  -0.49163  -0.49016  -0.48888  -0.48490
 Alpha  occ. eigenvalues --   -0.47845  -0.47660  -0.47383  -0.47253  -0.47179
 Alpha  occ. eigenvalues --   -0.46786  -0.46474  -0.46267  -0.46064  -0.45918
 Alpha  occ. eigenvalues --   -0.45420  -0.45318  -0.44951  -0.44773  -0.44524
 Alpha  occ. eigenvalues --   -0.44422  -0.44096  -0.43995  -0.43672  -0.43443
 Alpha  occ. eigenvalues --   -0.43264  -0.43212  -0.43037  -0.42671  -0.42442
 Alpha  occ. eigenvalues --   -0.42319  -0.41884  -0.41745  -0.41671  -0.41460
 Alpha  occ. eigenvalues --   -0.41337  -0.41150  -0.41108  -0.40904  -0.40707
 Alpha  occ. eigenvalues --   -0.40466  -0.40187  -0.40092  -0.39839  -0.39603
 Alpha  occ. eigenvalues --   -0.39368  -0.39062  -0.38884  -0.38777  -0.38498
 Alpha  occ. eigenvalues --   -0.38298  -0.38227  -0.37991  -0.37795  -0.37753
 Alpha  occ. eigenvalues --   -0.37431  -0.37268  -0.37123  -0.36944  -0.36381
 Alpha  occ. eigenvalues --   -0.36155  -0.35890  -0.35570  -0.35503  -0.35280
 Alpha  occ. eigenvalues --   -0.35201  -0.35099  -0.34814  -0.34727  -0.34693
 Alpha  occ. eigenvalues --   -0.34286  -0.34238  -0.34157  -0.34050  -0.33615
 Alpha  occ. eigenvalues --   -0.33533  -0.32876  -0.32548  -0.32530  -0.32204
 Alpha  occ. eigenvalues --   -0.31967  -0.31794  -0.31703  -0.31687  -0.31279
 Alpha  occ. eigenvalues --   -0.31227  -0.30985  -0.30869  -0.30589  -0.30419
 Alpha  occ. eigenvalues --   -0.30150  -0.29875  -0.28490  -0.27932  -0.27768
 Alpha  occ. eigenvalues --   -0.27240  -0.26673  -0.26460  -0.25252  -0.24523
 Alpha  occ. eigenvalues --   -0.24320  -0.23972  -0.23631  -0.21935  -0.20036
 Alpha  occ. eigenvalues --   -0.18775
 Alpha virt. eigenvalues --   -0.10110  -0.07863  -0.03276  -0.01367  -0.00903
 Alpha virt. eigenvalues --    0.00300   0.01195   0.01890   0.02051   0.03537
 Alpha virt. eigenvalues --    0.04185   0.04235   0.04410   0.04715   0.04791

 Mulliken charges:
               1
     1  C    0.021011
     2  C   -0.039927
     3  C   -0.115848
     4  C   -0.087141
     5  N   -0.225278
     6  C   -0.125206
     7  C    0.033278
     8  C   -0.022372
     9  C   -0.040715
    10  C    0.153993
    11  C    0.149969
    12  C    0.129409
    13  C    0.156160
    14  O   -0.279149
    15  O   -0.278522
    16  N    0.027597
    17  C    0.066346
    18  C   -0.124691
    19  C    0.053616
    20  C    0.079628
    21  C    0.103992
    22  C   -0.060923
    23  C   -0.062339
    24  N   -0.273447
    25  C    0.048163
    26  C   -0.134458
    27  C    0.002116
    28  C    0.092884
    29  C    0.083603
    30  C   -0.110135
    31  C   -0.022246
    32  N   -0.099896
    33  C    0.052620
    34  C   -0.033930
    35  C   -0.130179
    36  C    0.124135
    37  C   -0.044396
    38  C    0.063212
    39  O   -0.065927
    40  C   -0.041308
    41  C    0.191331
    42  O   -0.152411
    43  O   -0.308391
    44  C    0.144279
    45  C    0.199143
    46  C   -0.071096
    47  C   -0.148494
    48  C    0.136253
    49  C    0.139402
    50  C   -0.045061
    51  C   -0.164057
    52  C    0.002111
    53  C    0.084865
    54  C    0.010382
    55  C    0.073814
    56  C    0.034219
    57  C   -0.108898
    58  C   -0.028578
    59  C    0.017787
    60  C    0.014732
    61  C   -0.008658
    62  C   -0.086978
    63  C    0.009298
    64  C    0.035815
    65  H    0.000392
    66  H   -0.000188
    67  H    0.012462
    68  H   -0.038579
    69  H   -0.011612
    70  H   -0.018292
    71  H   -0.033852
    72  H    0.011950
    73  H   -0.028132
    74  H   -0.006471
    75  H   -0.035951
    76  H    0.014945
    77  H    0.040819
    78  H   -0.010673
    79  H    0.018606
    80  H   -0.004780
    81  H    0.039589
    82  H    0.039391
    83  H    0.039258
    84  H    0.025722
    85  H   -0.016690
    86  H    0.012131
    87  H    0.037576
    88  H    0.024251
    89  H    0.046148
    90  H    0.021975
    91  H    0.050584
    92  H    0.046067
    93  H    0.061021
    94  H    0.022419
    95  H    0.049968
    96  H    0.016643
    97  H    0.084624
    98  H    0.024282
    99  H    0.048413
   100  H    0.019382
   101  H   -0.011074
   102  H    0.038736
   103  H   -0.012224
   104  H   -0.015862
   105  H   -0.014393
   106  H    0.037080
   107  H    0.018343
   108  H    0.019637
   109  H   -0.003929
   110  H   -0.006612
   111  H   -0.036581
   112  H    0.017597
   113  H    0.030875
   114  H   -0.017871
   115  H    0.001030
   116  H   -0.004409
   117  H    0.013014
   118  H   -0.008257
   119  H    0.007203
   120  H   -0.010301
   121  H    0.003802
   122  H    0.014812
   123  H   -0.020841
   124  H    0.000006
   125  H    0.002466
   126  H   -0.026532
   127  H    0.020225
   128  H    0.000518
   129  H    0.011864
   130  H   -0.014871
   131  H   -0.007896
   132  H    0.016694
   133  H    0.006421
   134  H    0.012948
   135  H    0.005797
   136  H    0.027549
   137  H    0.116015
   138  H    0.191117
 Sum of Mulliken charges =  -0.00000

 Dipole moment (field-independent basis, Debye):
    X=              2.5759    Y=              2.9146    Z=              1.2662  Tot=              4.0907
 Quadrupole moment (field-independent basis, Debye-Ang):
   XX=           -376.0914   YY=           -377.4970   ZZ=           -394.3051
   XY=            -24.0240   XZ=             -2.6344   YZ=             -4.2212

 Normal termination of Gaussian 16 at Fri Aug 30 20:25:13 2019.
