 Gaussian 16, Revision A.03,
 Gaussian 16:  ES64L-G16RevA.03 25-Dec-2016

 --------------------------
 # td=(NStates=1) B3LYP/SVP
 --------------------------

 --
 TD
 --
 Symbolic Z-matrix:
 Charge =  0 Multiplicity = 1

                         Standard orientation:
 ---------------------------------------------------------------------
 Center     Atomic      Atomic             Coordinates (Angstroms)
 Number     Number       Type             X           Y           Z
 ---------------------------------------------------------------------
      1          6           0       -5.159827   -1.907903    0.509500
      2          6           0       -4.708657    2.778945    1.564679
      3          6           0       -9.200143    3.423407   -0.262787
      4          6           0       -9.766904   -1.342669   -1.072319
      5          7           0       -5.129396    0.433535    0.752026
      6          6           0       -4.488404   -0.785373    0.805885
      7          6           0       -3.029834   -0.669966    1.403372
      8          6           0       -3.068892    0.828737    1.989724
      9          6           0       -4.329609    1.391557    1.390359
     10          6           0       -3.009331    0.864101    3.532625
     11          6           0       -2.123560   -0.898133    0.258277
     12          6           0       -0.643470   -0.956965    0.684278
     13          6           0        0.291118   -1.070670   -0.602523
     14          8           0       -0.037224   -1.429235   -1.699160
     15          8           0        1.572868   -0.842250   -0.104291
     16          7           0       -6.909068    2.806564    0.463567
     17          6           0       -5.737358    3.403153    1.016423
     18          6           0       -6.037440    4.811618    1.012474
     19          6           0       -7.328038    5.018097    0.443463
     20          6           0       -7.840300    3.698039    0.220217
     21          6           0       -5.116016    5.945781    1.478608
     22          6           0       -7.912146    6.387892    0.336603
     23          6           0       -8.864232    6.586470   -0.521377
     24          7           0       -9.179164    0.970724   -0.509476
     25          6           0       -9.823639    2.151273   -0.554011
     26          6           0      -11.189488    1.932535   -0.974165
     27          6           0      -11.414364    0.647727   -1.237149
     28          6           0      -10.080586    0.029587   -0.925694
     29          6           0      -12.080740    3.137799   -1.047521
     30          6           0      -12.559803   -0.095633   -1.682253
     31          6           0      -12.503494   -0.408370   -3.297513
     32          7           0       -7.498709   -1.268890   -0.146500
     33          6           0       -8.598519   -2.023909   -0.586102
     34          6           0       -8.178601   -3.380111   -0.613489
     35          6           0       -6.823345   -3.370649   -0.228889
     36          6           0       -6.478786   -1.984857    0.024878
     37          6           0       -8.981765   -4.479985   -1.044245
     38          6           0       -5.730935   -4.210622    0.069922
     39          8           0       -5.703842   -5.446730   -0.172557
     40          6           0       -4.506505   -3.197897    0.464003
     41          6           0       -3.903239   -3.898357    1.754070
     42          8           0       -4.140631   -3.389359    2.819005
     43          8           0       -3.213216   -4.988578    1.488107
     44          6           0       -2.752838   -5.620147    2.677262
     45          6           0        2.577319   -1.232367   -1.129653
     46          6           0        3.916046   -0.767686   -0.558898
     47          6           0        4.917731   -0.073676   -1.171451
     48          6           0        4.829136    0.341140   -2.627132
     49          6           0        6.234775    0.262989   -0.438418
     50          6           0        7.470959   -0.495040   -1.050122
     51          6           0        8.669517   -0.290570   -0.183451
     52          6           0        9.996216   -0.818502   -0.781236
     53          6           0        9.913958   -2.366373   -0.877917
     54          6           0       11.221066   -0.274837   -0.034990
     55          6           0       12.582198   -0.716957   -0.664922
     56          6           0       13.823261    0.021647    0.188305
     57          6           0       15.219330   -0.232783   -0.374331
     58          6           0       15.652430   -1.676804   -0.241814
     59          6           0       16.168751    0.729601    0.356854
     60          6           0       17.625935    0.687896   -0.099597
     61          6           0       18.489440    1.778857    0.602393
     62          6           0       19.984599    1.836204    0.128211
     63          6           0       20.158419    2.202403   -1.327407
     64          6           0       20.766262    2.703487    1.121886
     65          1           0       -3.853109    3.183177    2.109149
     66          1           0       -9.990119    4.238410   -0.148119
     67          1           0      -10.590383   -2.017098   -1.301107
     68          1           0       -2.907736   -1.410289    2.274357
     69          1           0       -2.155726    1.387378    1.596636
     70          1           0       -2.202002    0.246373    3.960491
     71          1           0       -2.786941    1.838764    3.964713
     72          1           0       -3.945221    0.524858    4.061521
     73          1           0       -2.304884   -2.030974   -0.128940
     74          1           0       -2.178853   -0.127985   -0.378778
     75          1           0       -0.231901   -0.104506    1.162518
     76          1           0       -0.547929   -2.031502    1.326979
     77          1           0       -4.304453    5.621093    0.802296
     78          1           0       -5.495774    7.022727    0.950707
     79          1           0       -5.126186    6.214809    2.613528
     80          1           0       -7.579171    6.963450    0.900296
     81          1           0       -9.164754    6.074267   -1.244671
     82          1           0       -9.359328    7.618650   -0.697032
     83          1           0      -12.080030    3.793842   -0.140105
     84          1           0      -12.097030    3.905086   -1.954780
     85          1           0      -13.252732    2.644850   -1.105309
     86          1           0      -12.795458   -1.028581   -0.929077
     87          1           0      -13.382983    0.699268   -1.634814
     88          1           0      -12.694215    0.431964   -4.006570
     89          1           0      -11.764311   -0.944395   -3.585761
     90          1           0      -13.401374   -1.169418   -3.613684
     91          1           0      -10.059223   -4.399022   -0.605729
     92          1           0       -9.121761   -4.662938   -2.122534
     93          1           0       -8.460098   -5.489162   -0.656811
     94          1           0       -3.844338   -3.396883   -0.464670
     95          1           0       -2.155182   -6.654733    2.284926
     96          1           0       -1.974456   -4.910081    3.217517
     97          1           0       -3.501208   -5.832873    3.367992
     98          1           0        2.453275   -2.358000   -1.261995
     99          1           0        2.304728   -0.799968   -2.190724
    100          1           0        4.066056   -0.988055    0.494581
    101          1           0        5.182664    1.382441   -2.928631
    102          1           0        5.330702   -0.327052   -3.465561
    103          1           0        3.859020    0.234587   -3.057399
    104          1           0        6.227494    1.307683   -0.503287
    105          1           0        6.040685   -0.075529    0.571085
    106          1           0        7.311107   -1.564168   -1.180676
    107          1           0        7.573071   -0.086852   -2.120210
    108          1           0        8.880492    0.782490   -0.108824
    109          1           0        8.749320   -0.611535    0.720894
    110          1           0       10.142296   -0.496696   -1.706873
    111          1           0        9.207441   -2.858460   -1.476630
    112          1           0       10.870057   -2.861251   -1.439401
    113          1           0        9.956153   -2.731817    0.007039
    114          1           0       11.034124    0.941622   -0.028830
    115          1           0       11.186266   -0.688356    0.880743
    116          1           0       12.778971   -1.731782   -0.435498
    117          1           0       12.849976   -0.150370   -1.665274
    118          1           0       13.413192    0.979817    0.262555
    119          1           0       13.746578   -0.246716    1.194034
    120          1           0       15.352479   -0.045817   -1.497503
    121          1           0       15.016943   -2.292661   -0.852757
    122          1           0       16.613522   -1.899538   -0.604813
    123          1           0       15.471793   -2.139039    0.610781
    124          1           0       15.796437    1.728070    0.360179
    125          1           0       16.156909    0.639214    1.500944
    126          1           0       17.960113   -0.384570   -0.248605
    127          1           0       17.642425    0.938630   -1.271166
    128          1           0       18.049648    2.827988    0.452614
    129          1           0       18.611413    1.643263    1.665788
    130          1           0       20.482819    0.761891   -0.018003
    131          1           0       19.440139    3.007365   -1.661698
    132          1           0       21.258215    2.522283   -1.566057
    133          1           0       19.916400    1.324678   -1.966241
    134          1           0       20.500773    2.166085    2.211752
    135          1           0       21.897860    2.649994    1.017581
    136          1           0       20.569615    3.779871    1.258908
    137          1           0       -7.043894    1.788847    0.370728
    138          1           0       -7.583615   -0.210215    0.297798
 ---------------------------------------------------------------------

 SCF Done:  E(RB3LYP) =  -2732.99824822     A.U. after   17 cycles

 Excitation energies and oscillator strengths:

 Excited State   1:      Singlet-A      2.0153 eV  615.22 nm  f=0.1777  <S**2>=0.000
     235 -> 237       -0.12608
     235 -> 238        0.25307
     236 -> 237        0.63786
 This state for optimization and/or second-order correction.
 Total Energy, E(TD-HF/TD-DFT) =  -2732.92418837
 Copying the excited state density for this state as the 1-particle RhoCI density.

 The electronic state is 1-A.
 Alpha  occ. eigenvalues --  -19.19410 -19.17698 -19.13792 -19.12463 -19.10953
 Alpha  occ. eigenvalues --  -14.37473 -14.37197 -14.32661 -14.29844 -10.32038
 Alpha  occ. eigenvalues --  -10.31712 -10.26679 -10.26338 -10.25841 -10.24449
 Alpha  occ. eigenvalues --  -10.23991 -10.23621 -10.23117 -10.22591 -10.22198
 Alpha  occ. eigenvalues --  -10.22069 -10.21429 -10.21408 -10.21405 -10.21349
 Alpha  occ. eigenvalues --  -10.21201 -10.21068 -10.21066 -10.20806 -10.20703
 Alpha  occ. eigenvalues --  -10.20658 -10.20610 -10.20578 -10.20368 -10.20259
 Alpha  occ. eigenvalues --  -10.19876 -10.19768 -10.19663 -10.19653 -10.19327
 Alpha  occ. eigenvalues --  -10.19322 -10.19280 -10.19269 -10.19194 -10.19164
 Alpha  occ. eigenvalues --  -10.19144 -10.19111 -10.19032 -10.18998 -10.18856
 Alpha  occ. eigenvalues --  -10.18850 -10.18739 -10.18649 -10.18481 -10.18408
 Alpha  occ. eigenvalues --  -10.18308 -10.18211 -10.17887 -10.17580 -10.17189
 Alpha  occ. eigenvalues --  -10.17046 -10.16703 -10.16563 -10.15807  -1.11428
 Alpha  occ. eigenvalues --   -1.08131  -1.01904  -1.01075  -1.00202  -0.98843
 Alpha  occ. eigenvalues --   -0.98741  -0.93777  -0.92713  -0.84800  -0.82530
 Alpha  occ. eigenvalues --   -0.82407  -0.81457  -0.81419  -0.81066  -0.80694
 Alpha  occ. eigenvalues --   -0.80456  -0.79808  -0.79426  -0.78616  -0.77274
 Alpha  occ. eigenvalues --   -0.76520  -0.75987  -0.74836  -0.74400  -0.73735
 Alpha  occ. eigenvalues --   -0.73199  -0.72827  -0.72407  -0.71622  -0.70471
 Alpha  occ. eigenvalues --   -0.69532  -0.68646  -0.68568  -0.68392  -0.68317
 Alpha  occ. eigenvalues --   -0.67262  -0.67128  -0.66362  -0.66017  -0.64868
 Alpha  occ. eigenvalues --   -0.64187  -0.63813  -0.63061  -0.62168  -0.61587
 Alpha  occ. eigenvalues --   -0.60847  -0.59422  -0.58225  -0.58168  -0.57784
 Alpha  occ. eigenvalues --   -0.57516  -0.57291  -0.56692  -0.56281  -0.55815
 Alpha  occ. eigenvalues --   -0.55152  -0.54736  -0.54303  -0.53866  -0.52595
 Alpha  occ. eigenvalues --   -0.52280  -0.51978  -0.51745  -0.50672  -0.50166
 Alpha  occ. eigenvalues --   -0.49852  -0.49431  -0.49225  -0.49109  -0.48817
 Alpha  occ. eigenvalues --   -0.48084  -0.47830  -0.47597  -0.47521  -0.47232
 Alpha  occ. eigenvalues --   -0.46472  -0.46421  -0.46216  -0.45959  -0.45795
 Alpha  occ. eigenvalues --   -0.45678  -0.45510  -0.45141  -0.44712  -0.44577
 Alpha  occ. eigenvalues --   -0.44372  -0.44199  -0.44054  -0.43611  -0.43308
 Alpha  occ. eigenvalues --   -0.43174  -0.43016  -0.43011  -0.42673  -0.42505
 Alpha  occ. eigenvalues --   -0.42475  -0.42229  -0.41592  -0.41406  -0.41340
 Alpha  occ. eigenvalues --   -0.41078  -0.40893  -0.40673  -0.40241  -0.40144
 Alpha  occ. eigenvalues --   -0.40022  -0.39795  -0.39635  -0.39247  -0.39126
 Alpha  occ. eigenvalues --   -0.39047  -0.38824  -0.38708  -0.38388  -0.38302
 Alpha  occ. eigenvalues --   -0.37958  -0.37945  -0.37695  -0.37497  -0.37416
 Alpha  occ. eigenvalues --   -0.37216  -0.37055  -0.36871  -0.36702  -0.36540
 Alpha  occ. eigenvalues --   -0.36317  -0.36225  -0.35996  -0.35961  -0.35756
 Alpha  occ. eigenvalues --   -0.35537  -0.35508  -0.35288  -0.34662  -0.34477
 Alpha  occ. eigenvalues --   -0.34418  -0.34197  -0.34170  -0.34152  -0.33885
 Alpha  occ. eigenvalues --   -0.33700  -0.33434  -0.33348  -0.32864  -0.32617
 Alpha  occ. eigenvalues --   -0.32443  -0.32114  -0.32054  -0.31960  -0.31688
 Alpha  occ. eigenvalues --   -0.31331  -0.31082  -0.31022  -0.30641  -0.30034
 Alpha  occ. eigenvalues --   -0.29849  -0.29566  -0.28584  -0.28339  -0.27939
 Alpha  occ. eigenvalues --   -0.27388  -0.26959  -0.26341  -0.25967  -0.25549
 Alpha  occ. eigenvalues --   -0.24613  -0.24228  -0.23480  -0.23432  -0.19930
 Alpha  occ. eigenvalues --   -0.18702
 Alpha virt. eigenvalues --   -0.10468  -0.07629  -0.04276  -0.01928  -0.00879
 Alpha virt. eigenvalues --   -0.00303  -0.00084   0.00900   0.02080   0.03645
 Alpha virt. eigenvalues --    0.03942   0.04166   0.04332   0.04550   0.05035

 Mulliken charges:
               1
     1  C    0.075336
     2  C   -0.079386
     3  C   -0.086654
     4  C   -0.029435
     5  N   -0.227849
     6  C   -0.115540
     7  C   -0.026178
     8  C   -0.025422
     9  C   -0.059110
    10  C    0.047569
    11  C    0.095008
    12  C   -0.026212
    13  C    0.194955
    14  O   -0.207180
    15  O   -0.347732
    16  N   -0.043646
    17  C    0.225707
    18  C   -0.154908
    19  C    0.009282
    20  C    0.064189
    21  C    0.005341
    22  C    0.166752
    23  C    0.075529
    24  N   -0.228227
    25  C    0.005666
    26  C   -0.054102
    27  C   -0.037038
    28  C    0.020082
    29  C   -0.040837
    30  C   -0.012375
    31  C    0.030373
    32  N   -0.005933
    33  C    0.030562
    34  C   -0.080443
    35  C    0.044376
    36  C    0.041385
    37  C    0.002258
    38  C    0.011205
    39  O   -0.231995
    40  C   -0.125511
    41  C    0.185311
    42  O   -0.225597
    43  O   -0.243824
    44  C    0.142796
    45  C    0.207939
    46  C   -0.060263
    47  C   -0.148969
    48  C    0.027462
    49  C    0.140816
    50  C    0.030645
    51  C    0.141098
    52  C   -0.011654
    53  C    0.059679
    54  C    0.011968
    55  C    0.021504
    56  C    0.026882
    57  C   -0.026870
    58  C    0.131170
    59  C    0.047246
    60  C   -0.004185
    61  C    0.058309
    62  C   -0.120885
    63  C   -0.001548
    64  C   -0.015838
    65  H   -0.023138
    66  H    0.011874
    67  H   -0.022529
    68  H    0.034732
    69  H    0.005917
    70  H    0.014643
    71  H    0.003798
    72  H    0.031624
    73  H    0.052419
    74  H   -0.032195
    75  H    0.016993
    76  H    0.055982
    77  H    0.049593
    78  H    0.031004
    79  H    0.070415
    80  H   -0.172328
    81  H   -0.055911
    82  H    0.014269
    83  H    0.037462
    84  H    0.047674
    85  H    0.015009
    86  H    0.052048
    87  H    0.009991
    88  H    0.030794
    89  H   -0.028294
    90  H    0.005185
    91  H    0.031369
    92  H    0.040013
    93  H    0.058413
    94  H    0.086799
    95  H    0.062956
    96  H    0.039111
    97  H    0.030844
    98  H    0.035185
    99  H    0.051970
   100  H   -0.010449
   101  H    0.023268
   102  H    0.028305
   103  H   -0.021506
   104  H   -0.001937
   105  H   -0.016809
   106  H   -0.001220
   107  H    0.008761
   108  H   -0.031130
   109  H   -0.070273
   110  H   -0.064472
   111  H   -0.000231
   112  H   -0.000227
   113  H   -0.049826
   114  H    0.018513
   115  H   -0.040808
   116  H    0.007784
   117  H    0.027630
   118  H   -0.037216
   119  H   -0.036826
   120  H   -0.006183
   121  H   -0.023778
   122  H   -0.009964
   123  H   -0.044034
   124  H   -0.034284
   125  H   -0.018263
   126  H    0.002663
   127  H   -0.011379
   128  H    0.010193
   129  H   -0.011403
   130  H    0.008963
   131  H    0.001955
   132  H    0.017513
   133  H    0.013334
   134  H    0.016682
   135  H    0.014304
   136  H    0.019586
   137  H    0.138353
   138  H    0.217666
 Sum of Mulliken charges =  -0.00000

 Dipole moment (field-independent basis, Debye):
    X=              2.4436    Y=              4.0789    Z=              1.5580  Tot=              5.0036
 Quadrupole moment (field-independent basis, Debye-Ang):
   XX=           -369.9198   YY=           -382.6609   ZZ=           -390.9083
   XY=            -30.0440   XZ=              2.7254   YZ=             -2.0032

 Normal termination of Gaussian 16 at Mon Aug 12 13:26:10 2019.
