 Gaussian 16, Revision A.03,
 Gaussian 16:  ES64L-G16RevA.03 25-Dec-2016

 --------------------------
 # td=(NStates=1) B3LYP/SVP
 --------------------------

 --
 TD
 --
 Symbolic Z-matrix:
 Charge =  0 Multiplicity = 1

                         Standard orientation:
 ---------------------------------------------------------------------
 Center     Atomic      Atomic             Coordinates (Angstroms)
 Number     Number       Type             X           Y           Z
 ---------------------------------------------------------------------
      1          6           0       -5.068056   -2.088307    0.443885
      2          6           0       -4.580846    2.714300    1.471880
      3          6           0       -9.371274    3.388448   -0.217669
      4          6           0       -9.800445   -1.385787   -0.924442
      5          7           0       -5.199431    0.350930    0.928758
      6          6           0       -4.539768   -0.799473    0.865363
      7          6           0       -2.985453   -0.605915    1.313829
      8          6           0       -2.957423    0.813436    1.959041
      9          6           0       -4.333516    1.341797    1.398153
     10          6           0       -2.967308    0.743640    3.556806
     11          6           0       -2.085909   -0.715467    0.139694
     12          6           0       -0.661525   -0.771582    0.643330
     13          6           0        0.402478   -1.070101   -0.523569
     14          8           0       -0.000371   -1.625365   -1.543253
     15          8           0        1.587627   -0.725426   -0.202488
     16          7           0       -7.053922    2.675611    0.684825
     17          6           0       -5.885309    3.267696    1.057784
     18          6           0       -6.105926    4.700124    1.085035
     19          6           0       -7.429191    5.007482    0.589738
     20          6           0       -8.009203    3.686009    0.287986
     21          6           0       -5.146679    5.837962    1.570506
     22          6           0       -8.052150    6.277058    0.428751
     23          6           0       -8.983103    6.821661   -0.484658
     24          7           0       -9.124097    0.984126   -0.550890
     25          6           0       -9.859280    2.153003   -0.565354
     26          6           0      -11.259790    1.950103   -1.042371
     27          6           0      -11.349522    0.632829   -1.299597
     28          6           0      -10.076676   -0.037867   -0.963441
     29          6           0      -12.248069    3.064881   -1.330070
     30          6           0      -12.637710   -0.159006   -1.694146
     31          6           0      -12.786070   -0.419638   -3.278510
     32          7           0       -7.552266   -1.259340   -0.078294
     33          6           0       -8.607784   -2.118216   -0.569917
     34          6           0       -8.138562   -3.502543   -0.718096
     35          6           0       -6.812078   -3.409120   -0.334202
     36          6           0       -6.505912   -2.189277    0.055438
     37          6           0       -9.024588   -4.665114   -1.104395
     38          6           0       -5.687084   -4.329723   -0.114688
     39          8           0       -5.681872   -5.542132   -0.155888
     40          6           0       -4.495854   -3.377948    0.352567
     41          6           0       -3.913289   -3.865920    1.651256
     42          8           0       -3.966515   -3.339030    2.745140
     43          8           0       -3.099745   -4.948482    1.448988
     44          6           0       -2.552635   -5.608864    2.491051
     45          6           0        2.626618   -0.793904   -1.182553
     46          6           0        3.934141   -0.713906   -0.579157
     47          6           0        4.940127    0.160415   -1.024058
     48          6           0        4.808795    1.027048   -2.271280
     49          6           0        6.211376    0.321210   -0.243322
     50          6           0        7.378726   -0.339439   -0.856465
     51          6           0        8.754354   -0.079576   -0.151104
     52          6           0        9.980625   -0.682998   -0.749030
     53          6           0        9.963018   -2.063031   -1.016308
     54          6           0       11.130083   -0.201784    0.013695
     55          6           0       12.539584   -0.451061   -0.615526
     56          6           0       13.824516    0.078015    0.180145
     57          6           0       15.137906   -0.187735   -0.354154
     58          6           0       15.575074   -1.652660   -0.262082
     59          6           0       16.191298    0.674072    0.484543
     60          6           0       17.671039    0.650017   -0.133586
     61          6           0       18.671415    1.535538    0.497789
     62          6           0       20.096646    1.461284   -0.063233
     63          6           0       20.186539    2.108159   -1.493333
     64          6           0       21.190920    2.183181    0.952295
     65          1           0       -3.753671    3.444641    1.790954
     66          1           0       -9.947770    4.367493   -0.111306
     67          1           0      -10.677277   -2.090677   -1.217234
     68          1           0       -2.693068   -1.473245    2.045981
     69          1           0       -2.061740    1.499116    1.636489
     70          1           0       -2.070995    0.151852    3.878206
     71          1           0       -3.512230    1.709748    3.931191
     72          1           0       -3.734937    0.147956    4.141632
     73          1           0       -2.361760   -1.785481   -0.234822
     74          1           0       -2.120354   -0.041944   -0.609479
     75          1           0       -0.287698    0.171198    1.011877
     76          1           0       -0.581133   -1.524939    1.595249
     77          1           0       -4.463444    5.956656    0.961312
     78          1           0       -5.657975    6.801986    1.787275
     79          1           0       -4.650956    5.634740    2.668134
     80          1           0       -7.682732    7.066213    1.127970
     81          1           0       -9.244099    6.265942   -1.433993
     82          1           0       -9.151410    7.814560   -0.553773
     83          1           0      -12.320230    3.762185   -0.399353
     84          1           0      -11.918152    3.665446   -2.238772
     85          1           0      -13.163219    2.629434   -1.680845
     86          1           0      -12.611411   -1.181603   -1.127350
     87          1           0      -13.623444    0.389991   -1.627935
     88          1           0      -12.743754    0.352841   -3.749286
     89          1           0      -11.877103   -1.060481   -3.718091
     90          1           0      -13.775832   -0.781810   -3.475415
     91          1           0       -9.816306   -4.614294   -0.375319
     92          1           0       -9.328464   -4.712639   -2.091512
     93          1           0       -8.604420   -5.645637   -1.050605
     94          1           0       -3.873692   -3.552121   -0.550394
     95          1           0       -2.132587   -6.713601    2.127966
     96          1           0       -1.942201   -4.902495    3.202869
     97          1           0       -3.168880   -5.919498    3.324272
     98          1           0        2.342020   -1.706826   -1.753704
     99          1           0        2.504897    0.113863   -2.018328
    100          1           0        3.979529   -1.238063    0.383599
    101          1           0        5.045499    2.098086   -2.193747
    102          1           0        5.517194    0.669575   -3.045741
    103          1           0        3.790967    0.805975   -2.766836
    104          1           0        6.380118    1.287412    0.012364
    105          1           0        5.972162   -0.118662    0.716587
    106          1           0        7.016312   -1.417050   -0.979104
    107          1           0        7.488531   -0.121989   -2.003644
    108          1           0        8.802351    0.967247    0.164980
    109          1           0        8.486338   -0.681180    0.835731
    110          1           0        9.992692   -0.110045   -1.761892
    111          1           0        9.029516   -2.253941   -1.513871
    112          1           0       10.893166   -2.465374   -1.383913
    113          1           0       10.087254   -2.596118   -0.008057
    114          1           0       11.042857    0.857114    0.432188
    115          1           0       11.198564   -0.715611    1.090828
    116          1           0       12.755461   -1.484902   -0.683769
    117          1           0       12.568038    0.054769   -1.634135
    118          1           0       13.612234    1.240200    0.330647
    119          1           0       13.702249   -0.470302    1.231085
    120          1           0       15.364484    0.054752   -1.386514
    121          1           0       14.712485   -2.267068   -0.747330
    122          1           0       16.547390   -1.780449   -0.997469
    123          1           0       15.533320   -1.972542    0.702543
    124          1           0       16.108518    1.853644    0.500030
    125          1           0       16.222386    0.244033    1.554360
    126          1           0       18.019097   -0.487060   -0.304871
    127          1           0       17.673677    0.787670   -1.238275
    128          1           0       18.326590    2.581726    0.439852
    129          1           0       18.672903    1.251407    1.448515
    130          1           0       20.306641    0.353828    0.020280
    131          1           0       19.860580    3.173802   -1.475749
    132          1           0       21.146394    2.309865   -1.948245
    133          1           0       19.778033    1.477502   -2.277574
    134          1           0       21.105617    1.626381    1.970855
    135          1           0       22.190868    2.161154    0.377530
    136          1           0       20.974156    3.160284    1.195992
    137          1           0       -7.334036    1.676801    0.433842
    138          1           0       -7.852822   -0.447681    0.082812
 ---------------------------------------------------------------------

 SCF Done:  E(RB3LYP) =  -2733.02103902     A.U. after   17 cycles

 Excitation energies and oscillator strengths:

 Excited State   1:      Singlet-A      1.9462 eV  637.05 nm  f=0.2203  <S**2>=0.000
     235 -> 237       -0.31124
     235 -> 238       -0.23120
     236 -> 237        0.56514
     236 -> 238       -0.17238
 This state for optimization and/or second-order correction.
 Total Energy, E(TD-HF/TD-DFT) =  -2732.94951705
 Copying the excited state density for this state as the 1-particle RhoCI density.

 The electronic state is 1-A.
 Alpha  occ. eigenvalues --  -19.19110 -19.17662 -19.13391 -19.13090 -19.11257
 Alpha  occ. eigenvalues --  -14.37509 -14.36028 -14.32436 -14.31062 -10.32380
 Alpha  occ. eigenvalues --  -10.31090 -10.28803 -10.25811 -10.25003 -10.24757
 Alpha  occ. eigenvalues --  -10.24464 -10.24111 -10.23952 -10.23451 -10.23103
 Alpha  occ. eigenvalues --  -10.22425 -10.22304 -10.21861 -10.21792 -10.21710
 Alpha  occ. eigenvalues --  -10.21641 -10.21241 -10.21154 -10.21060 -10.20995
 Alpha  occ. eigenvalues --  -10.20974 -10.20941 -10.20770 -10.20652 -10.20214
 Alpha  occ. eigenvalues --  -10.20196 -10.20042 -10.19969 -10.19869 -10.19813
 Alpha  occ. eigenvalues --  -10.19793 -10.19733 -10.19695 -10.19688 -10.19673
 Alpha  occ. eigenvalues --  -10.19462 -10.19350 -10.19345 -10.19161 -10.19087
 Alpha  occ. eigenvalues --  -10.18955 -10.18925 -10.18911 -10.18699 -10.18622
 Alpha  occ. eigenvalues --  -10.18615 -10.18579 -10.18377 -10.18108 -10.17905
 Alpha  occ. eigenvalues --  -10.17866 -10.17475 -10.17334 -10.16604  -1.11884
 Alpha  occ. eigenvalues --   -1.10315  -1.03671  -1.01289  -0.99833  -0.97658
 Alpha  occ. eigenvalues --   -0.96125  -0.92967  -0.91659  -0.86724  -0.84176
 Alpha  occ. eigenvalues --   -0.82804  -0.81580  -0.81310  -0.80882  -0.80564
 Alpha  occ. eigenvalues --   -0.79683  -0.79659  -0.78652  -0.78430  -0.78149
 Alpha  occ. eigenvalues --   -0.76331  -0.75525  -0.74822  -0.74202  -0.73922
 Alpha  occ. eigenvalues --   -0.73579  -0.72898  -0.72504  -0.72275  -0.70752
 Alpha  occ. eigenvalues --   -0.69868  -0.69223  -0.69207  -0.68255  -0.67749
 Alpha  occ. eigenvalues --   -0.67340  -0.67214  -0.66586  -0.66265  -0.65419
 Alpha  occ. eigenvalues --   -0.63562  -0.63347  -0.62650  -0.62120  -0.61811
 Alpha  occ. eigenvalues --   -0.60625  -0.59197  -0.58530  -0.58058  -0.56948
 Alpha  occ. eigenvalues --   -0.56810  -0.56645  -0.56077  -0.55962  -0.55468
 Alpha  occ. eigenvalues --   -0.55366  -0.54886  -0.54071  -0.53847  -0.53744
 Alpha  occ. eigenvalues --   -0.52685  -0.52317  -0.51379  -0.51022  -0.50938
 Alpha  occ. eigenvalues --   -0.50206  -0.49627  -0.48737  -0.48575  -0.48546
 Alpha  occ. eigenvalues --   -0.47917  -0.47469  -0.47419  -0.47395  -0.47229
 Alpha  occ. eigenvalues --   -0.46772  -0.46332  -0.46071  -0.45989  -0.45738
 Alpha  occ. eigenvalues --   -0.45127  -0.45102  -0.44960  -0.44670  -0.44602
 Alpha  occ. eigenvalues --   -0.44471  -0.43988  -0.43962  -0.43721  -0.43642
 Alpha  occ. eigenvalues --   -0.43422  -0.42974  -0.42828  -0.42693  -0.42580
 Alpha  occ. eigenvalues --   -0.42397  -0.42134  -0.42016  -0.41819  -0.41616
 Alpha  occ. eigenvalues --   -0.41292  -0.41197  -0.40971  -0.40892  -0.40562
 Alpha  occ. eigenvalues --   -0.40497  -0.39985  -0.39826  -0.39728  -0.39496
 Alpha  occ. eigenvalues --   -0.39300  -0.39057  -0.38926  -0.38743  -0.38602
 Alpha  occ. eigenvalues --   -0.38462  -0.38347  -0.38285  -0.38137  -0.37808
 Alpha  occ. eigenvalues --   -0.37608  -0.37247  -0.36781  -0.36711  -0.36547
 Alpha  occ. eigenvalues --   -0.36498  -0.36279  -0.35970  -0.35761  -0.35656
 Alpha  occ. eigenvalues --   -0.35572  -0.35398  -0.35157  -0.34948  -0.34839
 Alpha  occ. eigenvalues --   -0.34658  -0.34498  -0.34352  -0.33769  -0.33670
 Alpha  occ. eigenvalues --   -0.33502  -0.33040  -0.32777  -0.32329  -0.32308
 Alpha  occ. eigenvalues --   -0.31860  -0.31367  -0.31193  -0.31074  -0.30872
 Alpha  occ. eigenvalues --   -0.30631  -0.30469  -0.30314  -0.29894  -0.29081
 Alpha  occ. eigenvalues --   -0.29022  -0.28967  -0.28556  -0.27996  -0.27991
 Alpha  occ. eigenvalues --   -0.27443  -0.27101  -0.26772  -0.26310  -0.26121
 Alpha  occ. eigenvalues --   -0.25481  -0.24344  -0.23303  -0.23200  -0.19720
 Alpha  occ. eigenvalues --   -0.18905
 Alpha virt. eigenvalues --   -0.11188  -0.07456  -0.04195  -0.03080  -0.01834
 Alpha virt. eigenvalues --   -0.01302  -0.00204   0.00517   0.01691   0.03894
 Alpha virt. eigenvalues --    0.03938   0.04340   0.04539   0.04807   0.05006

 Mulliken charges:
               1
     1  C   -0.039436
     2  C   -0.096294
     3  C   -0.095485
     4  C   -0.091841
     5  N   -0.151904
     6  C   -0.021546
     7  C   -0.110044
     8  C   -0.061625
     9  C    0.030497
    10  C    0.019939
    11  C    0.147075
    12  C   -0.036204
    13  C    0.158490
    14  O   -0.261645
    15  O   -0.237885
    16  N   -0.112546
    17  C    0.136508
    18  C   -0.169090
    19  C    0.089679
    20  C    0.000369
    21  C    0.149065
    22  C   -0.112653
    23  C   -0.019727
    24  N   -0.317308
    25  C    0.136456
    26  C   -0.150040
    27  C   -0.037373
    28  C    0.100262
    29  C    0.101871
    30  C   -0.014566
    31  C    0.087271
    32  N    0.008847
    33  C   -0.015910
    34  C   -0.133167
    35  C   -0.004088
    36  C    0.174395
    37  C    0.166543
    38  C    0.035330
    39  O   -0.149125
    40  C   -0.015974
    41  C    0.228295
    42  O   -0.215867
    43  O   -0.261829
    44  C    0.137242
    45  C    0.197684
    46  C   -0.059830
    47  C   -0.183461
    48  C    0.067917
    49  C    0.187927
    50  C   -0.055413
    51  C    0.008993
    52  C   -0.002376
    53  C    0.106552
    54  C   -0.033818
    55  C    0.052922
    56  C   -0.022900
    57  C   -0.031785
    58  C    0.020630
    59  C   -0.006928
    60  C   -0.061031
    61  C    0.155678
    62  C   -0.122965
    63  C    0.040818
    64  C    0.008668
    65  H    0.019844
    66  H    0.016807
    67  H    0.003967
    68  H    0.033433
    69  H    0.026118
    70  H    0.032064
    71  H    0.020437
    72  H    0.015425
    73  H    0.020919
    74  H   -0.031193
    75  H    0.004741
    76  H    0.040560
    77  H   -0.035706
    78  H    0.016262
    79  H    0.031378
    80  H    0.011446
    81  H    0.036136
    82  H   -0.000512
    83  H    0.046846
    84  H    0.033294
    85  H   -0.003992
    86  H    0.032237
    87  H    0.015347
    88  H   -0.075150
    89  H    0.022140
    90  H    0.004239
    91  H    0.029507
    92  H    0.007686
    93  H    0.006528
    94  H    0.081509
    95  H    0.058018
    96  H    0.016644
    97  H    0.000641
    98  H    0.035829
    99  H    0.042490
   100  H    0.001778
   101  H    0.030443
   102  H    0.023807
   103  H    0.008667
   104  H   -0.038157
   105  H   -0.023695
   106  H    0.007747
   107  H   -0.006902
   108  H   -0.000078
   109  H   -0.008259
   110  H   -0.012000
   111  H    0.013347
   112  H   -0.001462
   113  H   -0.017831
   114  H   -0.008294
   115  H   -0.014195
   116  H   -0.016245
   117  H    0.000682
   118  H    0.012355
   119  H    0.001589
   120  H   -0.016458
   121  H    0.007147
   122  H    0.048108
   123  H   -0.018705
   124  H    0.017638
   125  H    0.009583
   126  H   -0.017511
   127  H   -0.023304
   128  H   -0.014363
   129  H   -0.052951
   130  H    0.003968
   131  H    0.006442
   132  H   -0.015395
   133  H    0.012692
   134  H    0.018452
   135  H    0.029064
   136  H   -0.008843
   137  H    0.187797
   138  H    0.015160
 Sum of Mulliken charges =  -0.00000

 Dipole moment (field-independent basis, Debye):
    X=              2.0401    Y=              4.2810    Z=             -0.4767  Tot=              4.7662
 Quadrupole moment (field-independent basis, Debye-Ang):
   XX=           -340.9311   YY=           -379.1084   ZZ=           -395.6515
   XY=            -12.2895   XZ=              7.0501   YZ=             -3.1767

 Normal termination of Gaussian 16 at Mon Aug 26 20:24:58 2019.
