 Gaussian 16, Revision A.03,
 Gaussian 16:  ES64L-G16RevA.03 25-Dec-2016

 --------------------------
 # td=(NStates=1) B3LYP/SVP
 --------------------------

 --
 TD
 --
 Symbolic Z-matrix:
 Charge =  0 Multiplicity = 1

                         Standard orientation:
 ---------------------------------------------------------------------
 Center     Atomic      Atomic             Coordinates (Angstroms)
 Number     Number       Type             X           Y           Z
 ---------------------------------------------------------------------
      1          6           0       -5.241674   -1.938096    0.548512
      2          6           0       -4.682223    2.779672    1.403583
      3          6           0       -9.161462    3.448208   -0.198566
      4          6           0       -9.770716   -1.338470   -0.976370
      5          7           0       -5.178140    0.365733    0.846312
      6          6           0       -4.474556   -0.760907    0.754186
      7          6           0       -3.077332   -0.625452    1.309735
      8          6           0       -3.044950    0.773013    1.808037
      9          6           0       -4.383076    1.382898    1.408366
     10          6           0       -2.900858    0.771894    3.382637
     11          6           0       -2.076832   -0.849116    0.058593
     12          6           0       -0.653927   -0.896812    0.557761
     13          6           0        0.376047   -1.013050   -0.641870
     14          8           0       -0.069136   -1.218146   -1.808597
     15          8           0        1.636043   -0.994574   -0.210286
     16          7           0       -7.027980    2.755178    0.560344
     17          6           0       -5.899650    3.380935    1.067047
     18          6           0       -6.139259    4.805643    1.038151
     19          6           0       -7.420329    5.075730    0.453673
     20          6           0       -7.893206    3.745274    0.252423
     21          6           0       -5.207996    5.809187    1.543909
     22          6           0       -7.937598    6.396377    0.374578
     23          6           0       -8.953506    6.644998   -0.550614
     24          7           0       -9.125983    0.996657   -0.424278
     25          6           0       -9.778630    2.241797   -0.474045
     26          6           0      -11.255886    1.971154   -0.915649
     27          6           0      -11.342290    0.642128   -1.285528
     28          6           0      -10.008838    0.056699   -0.905918
     29          6           0      -12.121177    3.196614   -1.007397
     30          6           0      -12.494829   -0.115433   -1.850015
     31          6           0      -12.497291   -0.356964   -3.408574
     32          7           0       -7.537998   -1.306069   -0.109804
     33          6           0       -8.581599   -1.955643   -0.615807
     34          6           0       -8.230488   -3.325528   -0.704330
     35          6           0       -7.000333   -3.424096   -0.098749
     36          6           0       -6.499784   -2.064574    0.164645
     37          6           0       -9.126081   -4.486715   -1.176907
     38          6           0       -5.836350   -4.353105    0.093288
     39          8           0       -5.850857   -5.544347    0.105542
     40          6           0       -4.601642   -3.392132    0.534496
     41          6           0       -3.999274   -3.902152    1.710606
     42          8           0       -4.219969   -3.310660    2.820131
     43          8           0       -3.186936   -4.988632    1.584726
     44          6           0       -2.676471   -5.486658    2.855558
     45          6           0        2.709542   -1.275833   -1.211885
     46          6           0        3.961697   -0.876414   -0.437961
     47          6           0        4.903360   -0.210305   -1.067615
     48          6           0        4.864821    0.412050   -2.532160
     49          6           0        6.248901    0.093541   -0.357545
     50          6           0        7.520993   -0.554580   -0.999077
     51          6           0        8.771601   -0.275817   -0.231736
     52          6           0       10.059116   -0.737459   -0.883172
     53          6           0        9.879727   -2.210905   -1.257846
     54          6           0       11.235188   -0.467720   -0.004524
     55          6           0       12.640793   -0.581419   -0.666461
     56          6           0       13.802180   -0.038863    0.269613
     57          6           0       15.252228   -0.181838   -0.408116
     58          6           0       15.753089   -1.654701   -0.627928
     59          6           0       16.213368    0.574784    0.480339
     60          6           0       17.593070    0.792795   -0.176759
     61          6           0       18.502185    1.721462    0.612948
     62          6           0       20.086256    1.765549    0.192562
     63          6           0       20.199615    2.469333   -1.139145
     64          6           0       20.845650    2.533454    1.272997
     65          1           0       -3.863552    3.327190    1.918612
     66          1           0       -9.801672    4.193850   -0.004211
     67          1           0      -10.608870   -1.890938   -1.555193
     68          1           0       -2.835098   -1.264756    2.301408
     69          1           0       -2.322838    1.590068    1.404857
     70          1           0       -1.907042    0.361653    3.556267
     71          1           0       -3.007468    1.694658    4.005259
     72          1           0       -3.576986    0.076526    3.921096
     73          1           0       -2.404593   -1.774734   -0.361526
     74          1           0       -2.309764   -0.118490   -0.538967
     75          1           0       -0.150223   -0.108897    1.414787
     76          1           0       -0.265665   -1.716440    1.311863
     77          1           0       -4.416355    6.245945    0.650287
     78          1           0       -5.861536    6.813278    1.938635
     79          1           0       -4.242923    5.474085    2.421925
     80          1           0       -7.611036    7.260991    0.881409
     81          1           0       -9.248846    5.825620   -1.220356
     82          1           0       -9.365462    7.749517   -0.617708
     83          1           0      -12.345737    3.521065    0.070974
     84          1           0      -11.604407    3.860370   -1.671741
     85          1           0      -13.238122    2.786492   -1.385787
     86          1           0      -12.660189   -1.115511   -1.419116
     87          1           0      -13.360377    0.518626   -1.483790
     88          1           0      -12.525488    0.760624   -3.947985
     89          1           0      -11.708660   -0.860752   -3.887323
     90          1           0      -13.183410   -0.972759   -3.725942
     91          1           0      -10.128444   -4.581747   -0.519542
     92          1           0       -9.221166   -4.396492   -2.390715
     93          1           0       -8.624980   -5.516903   -0.962081
     94          1           0       -3.858080   -3.430166   -0.278168
     95          1           0       -2.314581   -6.696146    2.711881
     96          1           0       -1.937242   -4.679058    3.349435
     97          1           0       -3.538846   -5.479395    3.616059
     98          1           0        2.780354   -2.397186   -1.490617
     99          1           0        2.580792   -0.704557   -2.012562
    100          1           0        3.980413   -1.439019    0.498165
    101          1           0        5.318214    1.428851   -2.886769
    102          1           0        5.510717   -0.102618   -3.347128
    103          1           0        3.811513    0.499734   -2.911893
    104          1           0        6.385184    1.059907   -0.407359
    105          1           0        6.147851   -0.168117    0.553370
    106          1           0        7.367500   -1.568841   -1.222177
    107          1           0        7.823738   -0.038085   -2.000833
    108          1           0        8.824308    0.824214   -0.001152
    109          1           0        8.482523   -0.635337    0.819160
    110          1           0       10.093493   -0.368245   -2.020410
    111          1           0        9.114187   -2.458361   -1.994025
    112          1           0       10.907962   -2.418826   -1.719760
    113          1           0        9.710368   -2.955648   -0.544054
    114          1           0       11.073857    0.520177    0.183126
    115          1           0       11.245527   -0.893473    1.003095
    116          1           0       12.780111   -1.656236   -0.781295
    117          1           0       12.683575   -0.071503   -1.561494
    118          1           0       13.493612    1.074429    0.431644
    119          1           0       13.714918   -0.487263    1.298617
    120          1           0       15.197922    0.318360   -1.323361
    121          1           0       15.179634   -2.168450   -1.473182
    122          1           0       16.898403   -1.582940   -0.856094
    123          1           0       15.547070   -2.225416    0.514651
    124          1           0       15.541469    1.610814    0.664276
    125          1           0       16.341241    0.319924    1.372473
    126          1           0       18.051871   -0.206790   -0.328140
    127          1           0       17.596296    1.224322   -1.312550
    128          1           0       18.161582    2.518700    0.726880
    129          1           0       18.694480    1.070466    1.593559
    130          1           0       20.401325    0.715324    0.224225
    131          1           0       19.769942    3.458759   -1.019955
    132          1           0       21.227877    2.548470   -1.410463
    133          1           0       19.620377    1.839600   -1.921785
    134          1           0       20.796984    2.223870    2.169035
    135          1           0       21.947898    2.676445    1.092211
    136          1           0       20.480590    3.533648    1.620539
    137          1           0       -6.832083    1.850147    0.329503
    138          1           0       -7.482259   -0.262816   -0.108088
 ---------------------------------------------------------------------

 SCF Done:  E(RB3LYP) =  -2732.92238516     A.U. after   17 cycles

 Excitation energies and oscillator strengths:

 Excited State   1:      Singlet-A      1.9994 eV  620.12 nm  f=0.1849  <S**2>=0.000
     235 -> 238        0.30683
     236 -> 237        0.62939
 This state for optimization and/or second-order correction.
 Total Energy, E(TD-HF/TD-DFT) =  -2732.84890976
 Copying the excited state density for this state as the 1-particle RhoCI density.

 The electronic state is 1-A.
 Alpha  occ. eigenvalues --  -19.18775 -19.18766 -19.13156 -19.11863 -19.11555
 Alpha  occ. eigenvalues --  -14.36519 -14.36462 -14.32369 -14.29824 -10.31844
 Alpha  occ. eigenvalues --  -10.31480 -10.28675 -10.27076 -10.25052 -10.23836
 Alpha  occ. eigenvalues --  -10.23729 -10.23168 -10.22921 -10.22893 -10.22726
 Alpha  occ. eigenvalues --  -10.22543 -10.22360 -10.22121 -10.21531 -10.21426
 Alpha  occ. eigenvalues --  -10.21340 -10.21320 -10.21319 -10.21197 -10.20858
 Alpha  occ. eigenvalues --  -10.20772 -10.20716 -10.20705 -10.20598 -10.20561
 Alpha  occ. eigenvalues --  -10.20508 -10.20293 -10.20185 -10.20049 -10.19995
 Alpha  occ. eigenvalues --  -10.19937 -10.19897 -10.19415 -10.19409 -10.19401
 Alpha  occ. eigenvalues --  -10.19263 -10.19134 -10.19122 -10.19112 -10.18980
 Alpha  occ. eigenvalues --  -10.18822 -10.18766 -10.18502 -10.18411 -10.18143
 Alpha  occ. eigenvalues --  -10.17921 -10.17692 -10.17664 -10.17526 -10.17280
 Alpha  occ. eigenvalues --  -10.17076 -10.16951 -10.16760 -10.16429  -1.08296
 Alpha  occ. eigenvalues --   -1.08183  -1.04517  -1.00485  -0.99010  -0.98234
 Alpha  occ. eigenvalues --   -0.97741  -0.94127  -0.90882  -0.84517  -0.83194
 Alpha  occ. eigenvalues --   -0.82884  -0.81999  -0.81376  -0.80877  -0.80743
 Alpha  occ. eigenvalues --   -0.80011  -0.79535  -0.78676  -0.78537  -0.77908
 Alpha  occ. eigenvalues --   -0.76965  -0.75881  -0.75644  -0.75050  -0.74284
 Alpha  occ. eigenvalues --   -0.73305  -0.73238  -0.72068  -0.71475  -0.69679
 Alpha  occ. eigenvalues --   -0.69170  -0.68685  -0.68682  -0.68417  -0.67733
 Alpha  occ. eigenvalues --   -0.67576  -0.67238  -0.66471  -0.65943  -0.65283
 Alpha  occ. eigenvalues --   -0.63785  -0.63287  -0.62771  -0.62550  -0.62162
 Alpha  occ. eigenvalues --   -0.62002  -0.59350  -0.58749  -0.58086  -0.57641
 Alpha  occ. eigenvalues --   -0.57497  -0.56950  -0.56602  -0.56357  -0.56261
 Alpha  occ. eigenvalues --   -0.55537  -0.55142  -0.54932  -0.53855  -0.53601
 Alpha  occ. eigenvalues --   -0.52209  -0.51836  -0.51220  -0.50602  -0.50168
 Alpha  occ. eigenvalues --   -0.49397  -0.49039  -0.48880  -0.48631  -0.48148
 Alpha  occ. eigenvalues --   -0.48112  -0.47778  -0.47224  -0.47101  -0.46590
 Alpha  occ. eigenvalues --   -0.46473  -0.46245  -0.45922  -0.45665  -0.45508
 Alpha  occ. eigenvalues --   -0.45456  -0.45299  -0.44957  -0.44835  -0.44503
 Alpha  occ. eigenvalues --   -0.44427  -0.44352  -0.44092  -0.44053  -0.43580
 Alpha  occ. eigenvalues --   -0.43078  -0.42920  -0.42844  -0.42815  -0.42439
 Alpha  occ. eigenvalues --   -0.42257  -0.41871  -0.41772  -0.41316  -0.41010
 Alpha  occ. eigenvalues --   -0.40911  -0.40848  -0.40797  -0.40507  -0.40039
 Alpha  occ. eigenvalues --   -0.39948  -0.39752  -0.39551  -0.39387  -0.39338
 Alpha  occ. eigenvalues --   -0.39177  -0.39051  -0.38674  -0.38566  -0.38179
 Alpha  occ. eigenvalues --   -0.38133  -0.38028  -0.37810  -0.37709  -0.37322
 Alpha  occ. eigenvalues --   -0.37157  -0.37103  -0.36972  -0.36758  -0.36587
 Alpha  occ. eigenvalues --   -0.36320  -0.36058  -0.36014  -0.35928  -0.35483
 Alpha  occ. eigenvalues --   -0.35289  -0.35233  -0.35107  -0.35064  -0.34896
 Alpha  occ. eigenvalues --   -0.34664  -0.34613  -0.34222  -0.33799  -0.33663
 Alpha  occ. eigenvalues --   -0.33346  -0.33146  -0.32999  -0.32885  -0.32536
 Alpha  occ. eigenvalues --   -0.32453  -0.32147  -0.31925  -0.31568  -0.31306
 Alpha  occ. eigenvalues --   -0.30924  -0.30846  -0.30527  -0.30387  -0.30003
 Alpha  occ. eigenvalues --   -0.29653  -0.29077  -0.28211  -0.27856  -0.27382
 Alpha  occ. eigenvalues --   -0.27060  -0.26958  -0.26680  -0.26255  -0.25932
 Alpha  occ. eigenvalues --   -0.25479  -0.25000  -0.23306  -0.22618  -0.19468
 Alpha  occ. eigenvalues --   -0.18395
 Alpha virt. eigenvalues --   -0.09963  -0.07474  -0.04660  -0.02448  -0.01269
 Alpha virt. eigenvalues --   -0.00621   0.00228   0.00373   0.01836   0.02743
 Alpha virt. eigenvalues --    0.03628   0.03842   0.03949   0.04129   0.05059

 Mulliken charges:
               1
     1  C    0.056551
     2  C   -0.046431
     3  C   -0.065480
     4  C   -0.130080
     5  N   -0.213137
     6  C   -0.089108
     7  C   -0.089531
     8  C   -0.058645
     9  C   -0.030772
    10  C    0.030831
    11  C    0.259971
    12  C   -0.099439
    13  C    0.221191
    14  O   -0.293430
    15  O   -0.317430
    16  N    0.025888
    17  C    0.083028
    18  C   -0.066117
    19  C    0.108880
    20  C    0.121020
    21  C   -0.125507
    22  C   -0.059675
    23  C   -0.063828
    24  N   -0.273467
    25  C    0.020340
    26  C   -0.130311
    27  C   -0.086969
    28  C    0.050235
    29  C    0.057580
    30  C    0.038852
    31  C    0.054134
    32  N    0.050214
    33  C    0.103243
    34  C   -0.139068
    35  C   -0.019919
    36  C    0.046107
    37  C   -0.006248
    38  C    0.083128
    39  O   -0.134176
    40  C   -0.071367
    41  C    0.233749
    42  O   -0.300643
    43  O   -0.294932
    44  C    0.100201
    45  C    0.317352
    46  C   -0.120932
    47  C   -0.070641
    48  C   -0.030031
    49  C    0.273974
    50  C   -0.025164
    51  C    0.008298
    52  C   -0.078765
    53  C    0.021297
    54  C    0.115526
    55  C    0.071507
    56  C   -0.042017
    57  C    0.006465
    58  C   -0.053351
    59  C    0.088489
    60  C    0.008611
    61  C    0.093949
    62  C   -0.083197
    63  C    0.067258
    64  C    0.102991
    65  H   -0.017886
    66  H   -0.045764
    67  H    0.011124
    68  H    0.059022
    69  H    0.021291
    70  H    0.001545
    71  H    0.014767
    72  H    0.030369
    73  H    0.003436
    74  H   -0.037393
    75  H    0.040711
    76  H    0.039282
    77  H    0.053753
    78  H    0.055734
    79  H    0.055112
    80  H   -0.017667
    81  H    0.039903
    82  H    0.042451
    83  H    0.046555
    84  H    0.046451
    85  H    0.023571
    86  H    0.004919
    87  H    0.012537
    88  H    0.027235
    89  H   -0.007436
    90  H   -0.032941
    91  H    0.060150
    92  H    0.056832
    93  H    0.051393
    94  H    0.059111
    95  H    0.077185
    96  H    0.052803
    97  H    0.051948
    98  H    0.052964
    99  H   -0.031117
   100  H    0.003833
   101  H    0.026169
   102  H    0.037692
   103  H    0.024734
   104  H   -0.049167
   105  H   -0.080618
   106  H   -0.002691
   107  H   -0.008573
   108  H   -0.016195
   109  H   -0.011474
   110  H    0.010081
   111  H    0.005791
   112  H   -0.001638
   113  H   -0.016305
   114  H   -0.052113
   115  H   -0.009969
   116  H    0.003382
   117  H   -0.025644
   118  H    0.004167
   119  H   -0.000410
   120  H   -0.027553
   121  H    0.036130
   122  H    0.034053
   123  H    0.027232
   124  H   -0.007868
   125  H   -0.083817
   126  H   -0.004696
   127  H    0.000456
   128  H   -0.114211
   129  H    0.004265
   130  H   -0.006946
   131  H    0.002732
   132  H   -0.001592
   133  H    0.018046
   134  H   -0.074263
   135  H    0.004219
   136  H   -0.016228
   137  H    0.101514
   138  H    0.154476
 Sum of Mulliken charges =  -0.00000

 Dipole moment (field-independent basis, Debye):
    X=              3.9770    Y=              2.9952    Z=              0.3130  Tot=              4.9886
 Quadrupole moment (field-independent basis, Debye-Ang):
   XX=           -357.0791   YY=           -383.0464   ZZ=           -393.7185
   XY=            -17.4772   XZ=             14.9007   YZ=              0.9959

 Normal termination of Gaussian 16 at Wed Aug 21 21:42:49 2019.
