 Gaussian 16, Revision A.03,
 Gaussian 16:  ES64L-G16RevA.03 25-Dec-2016

 --------------------------
 # td=(NStates=1) B3LYP/SVP
 --------------------------

 --
 TD
 --
 Symbolic Z-matrix:
 Charge =  0 Multiplicity = 1

                         Standard orientation:
 ---------------------------------------------------------------------
 Center     Atomic      Atomic             Coordinates (Angstroms)
 Number     Number       Type             X           Y           Z
 ---------------------------------------------------------------------
      1          6           0       -5.130125   -1.939059    0.433297
      2          6           0       -4.678619    2.669659    1.446496
      3          6           0       -9.283187    3.506529   -0.266588
      4          6           0       -9.788010   -1.331639   -0.907811
      5          7           0       -5.260402    0.428391    0.858195
      6          6           0       -4.529402   -0.824189    0.880684
      7          6           0       -3.141093   -0.605972    1.317812
      8          6           0       -3.090818    0.771801    2.005880
      9          6           0       -4.366184    1.387510    1.327328
     10          6           0       -2.950112    0.698894    3.477617
     11          6           0       -2.063130   -0.826573    0.236504
     12          6           0       -0.585421   -0.776919    0.587188
     13          6           0        0.354608   -1.128166   -0.545859
     14          8           0       -0.067642   -1.550598   -1.571925
     15          8           0        1.673344   -1.050298   -0.165343
     16          7           0       -6.926631    2.761260    0.412106
     17          6           0       -5.839674    3.457703    1.053233
     18          6           0       -6.173829    4.795960    1.223313
     19          6           0       -7.387083    5.028292    0.664910
     20          6           0       -7.975326    3.684273    0.123681
     21          6           0       -5.214804    5.882391    1.826274
     22          6           0       -8.079673    6.302840    0.570877
     23          6           0       -9.001445    6.779710   -0.369773
     24          7           0       -9.087409    0.971632   -0.536950
     25          6           0       -9.685530    2.200944   -0.734789
     26          6           0      -11.127122    1.992862   -1.084852
     27          6           0      -11.275377    0.634036   -1.302123
     28          6           0       -9.980264    0.047628   -0.947457
     29          6           0      -12.140298    3.097533   -1.258145
     30          6           0      -12.543075   -0.073225   -1.824724
     31          6           0      -12.563590   -0.267102   -3.275789
     32          7           0       -7.450976   -1.232865   -0.282060
     33          6           0       -8.552443   -1.976102   -0.728270
     34          6           0       -8.174720   -3.395136   -0.640636
     35          6           0       -6.848841   -3.469596   -0.246385
     36          6           0       -6.445260   -2.061333   -0.041245
     37          6           0       -9.051080   -4.552133   -1.056352
     38          6           0       -5.736966   -4.293069    0.141047
     39          8           0       -5.647192   -5.545397   -0.008956
     40          6           0       -4.625618   -3.375194    0.557234
     41          6           0       -3.947952   -3.860647    1.766845
     42          8           0       -4.160879   -3.386386    2.844696
     43          8           0       -3.167554   -4.958536    1.492203
     44          6           0       -2.762173   -5.684332    2.670199
     45          6           0        2.598985   -1.314516   -1.214444
     46          6           0        3.976401   -0.854954   -0.631612
     47          6           0        4.891992   -0.060244   -1.291053
     48          6           0        4.761250    0.514767   -2.687395
     49          6           0        6.224110    0.315331   -0.471671
     50          6           0        7.425402   -0.422824   -0.975359
     51          6           0        8.726177   -0.182926   -0.274256
     52          6           0       10.041472   -0.766105   -0.693128
     53          6           0       10.058303   -2.305321   -0.799718
     54          6           0       11.295493   -0.185234   -0.072939
     55          6           0       12.658387   -0.410719   -0.604237
     56          6           0       13.849816    0.097412    0.269353
     57          6           0       15.067091   -0.209886   -0.326539
     58          6           0       15.512571   -1.685157   -0.311307
     59          6           0       16.256877    0.615696    0.420218
     60          6           0       17.658633    0.733800   -0.103817
     61          6           0       18.562680    1.671036    0.621569
     62          6           0       20.006327    1.742002   -0.014019
     63          6           0       20.144309    2.371170   -1.362543
     64          6           0       20.944287    2.426161    0.923089
     65          1           0       -3.903543    3.520780    1.834958
     66          1           0      -10.075458    4.273285   -0.359154
     67          1           0      -10.602158   -2.067451   -1.284157
     68          1           0       -2.883102   -1.457638    2.064138
     69          1           0       -2.194396    1.366248    1.661289
     70          1           0       -1.911915    0.315160    3.678614
     71          1           0       -3.250650    1.676167    3.955264
     72          1           0       -3.790566    0.037147    3.884600
     73          1           0       -2.192568   -1.824877   -0.223546
     74          1           0       -2.328563   -0.135005   -0.674292
     75          1           0       -0.333602    0.112017    0.951022
     76          1           0       -0.301960   -1.337183    1.566140
     77          1           0       -4.349038    6.323011    1.106916
     78          1           0       -5.703971    6.789551    2.345693
     79          1           0       -4.663661    5.354373    2.734215
     80          1           0       -7.971873    7.109202    1.272182
     81          1           0       -9.078290    6.040816   -1.251621
     82          1           0       -9.408066    7.695742   -0.409539
     83          1           0      -12.344280    3.623606   -0.310579
     84          1           0      -11.899195    3.816033   -2.043859
     85          1           0      -13.210966    2.670949   -1.624497
     86          1           0      -12.623240   -1.093116   -1.458360
     87          1           0      -13.463516    0.328231   -1.483557
     88          1           0      -12.414478    0.687859   -4.056643
     89          1           0      -11.732573   -0.661338   -3.860804
     90          1           0      -13.376543   -0.574371   -3.705233
     91          1           0       -9.726161   -4.510897   -0.293137
     92          1           0       -9.454798   -4.624925   -1.968656
     93          1           0       -8.543502   -5.551385   -0.821207
     94          1           0       -3.954336   -3.696154   -0.254920
     95          1           0       -2.296953   -6.791305    2.147702
     96          1           0       -1.923450   -5.262202    3.316777
     97          1           0       -3.728235   -5.830929    3.181934
     98          1           0        2.569974   -2.463138   -1.484158
     99          1           0        2.502591   -0.667680   -1.972217
    100          1           0        4.232734   -1.209065    0.477160
    101          1           0        4.986768    1.601640   -2.682483
    102          1           0        5.629656    0.096548   -3.198329
    103          1           0        3.597376    0.422514   -3.076129
    104          1           0        6.375093    1.347617   -0.531497
    105          1           0        5.806136    0.156108    0.593805
    106          1           0        7.083659   -1.360527   -0.994687
    107          1           0        7.486101   -0.372182   -2.175928
    108          1           0        8.871117    0.819838   -0.059161
    109          1           0        8.589998   -0.453414    0.855312
    110          1           0       10.089384   -0.387325   -1.741612
    111          1           0        9.086943   -2.604585   -1.119845
    112          1           0       10.972450   -2.963278   -1.470068
    113          1           0        9.876820   -2.652911    0.318683
    114          1           0       11.153084    0.920467   -0.026054
    115          1           0       11.203679   -0.449051    0.986752
    116          1           0       12.810994   -1.600622   -0.714846
    117          1           0       12.743773   -0.075989   -1.616508
    118          1           0       13.843317    1.328597    0.338354
    119          1           0       13.582998   -0.131127    1.231081
    120          1           0       14.956412    0.097332   -1.441791
    121          1           0       14.860724   -2.168544   -1.123733
    122          1           0       16.547370   -1.734819   -0.856578
    123          1           0       15.420206   -2.182051    0.602115
    124          1           0       15.716239    1.604537    0.753699
    125          1           0       16.370424    0.264859    1.279511
    126          1           0       18.282622   -0.318105    0.017091
    127          1           0       17.630094    0.982031   -1.139101
    128          1           0       18.114842    2.530752    0.750989
    129          1           0       18.968421    1.562558    1.788331
    130          1           0       20.258615    0.751354    0.074818
    131          1           0       19.827893    3.342098   -1.348146
    132          1           0       21.152382    2.507388   -1.595702
    133          1           0       19.559272    1.779158   -2.202682
    134          1           0       21.083306    2.036768    2.085630
    135          1           0       21.968888    2.255889    0.675177
    136          1           0       20.358248    3.477750    1.325996
    137          1           0       -6.778124    1.801062    0.082707
    138          1           0       -7.381133   -0.309057   -0.046948
 ---------------------------------------------------------------------

 SCF Done:  E(RB3LYP) =  -2732.98518925     A.U. after   16 cycles

 Excitation energies and oscillator strengths:

 Excited State   1:      Singlet-A      2.0010 eV  619.62 nm  f=0.1743  <S**2>=0.000
     235 -> 237       -0.12846
     235 -> 238       -0.29574
     236 -> 237        0.62385
 This state for optimization and/or second-order correction.
 Total Energy, E(TD-HF/TD-DFT) =  -2732.91165500
 Copying the excited state density for this state as the 1-particle RhoCI density.

 The electronic state is 1-A.
 Alpha  occ. eigenvalues --  -19.17939 -19.17899 -19.13033 -19.12951 -19.11321
 Alpha  occ. eigenvalues --  -14.37148 -14.37131 -14.32760 -14.30020 -10.31731
 Alpha  occ. eigenvalues --  -10.31673 -10.27669 -10.26362 -10.25044 -10.24940
 Alpha  occ. eigenvalues --  -10.24731 -10.23933 -10.23574 -10.22966 -10.22789
 Alpha  occ. eigenvalues --  -10.22741 -10.22443 -10.21765 -10.21550 -10.21238
 Alpha  occ. eigenvalues --  -10.21157 -10.21121 -10.21063 -10.21044 -10.20973
 Alpha  occ. eigenvalues --  -10.20955 -10.20890 -10.20392 -10.20222 -10.20115
 Alpha  occ. eigenvalues --  -10.20092 -10.20037 -10.20028 -10.20010 -10.19918
 Alpha  occ. eigenvalues --  -10.19897 -10.19791 -10.19644 -10.19539 -10.19446
 Alpha  occ. eigenvalues --  -10.19200 -10.19141 -10.19123 -10.19061 -10.19023
 Alpha  occ. eigenvalues --  -10.18732 -10.18691 -10.18563 -10.18460 -10.18412
 Alpha  occ. eigenvalues --  -10.18269 -10.18114 -10.17973 -10.17804 -10.17776
 Alpha  occ. eigenvalues --  -10.17467 -10.17362 -10.17067 -10.16687  -1.09715
 Alpha  occ. eigenvalues --   -1.09304  -1.02232  -1.01536  -0.99981  -0.98983
 Alpha  occ. eigenvalues --   -0.95618  -0.92910  -0.92228  -0.85655  -0.83220
 Alpha  occ. eigenvalues --   -0.82446  -0.81705  -0.81554  -0.81443  -0.81125
 Alpha  occ. eigenvalues --   -0.80503  -0.80127  -0.79276  -0.78793  -0.78005
 Alpha  occ. eigenvalues --   -0.77323  -0.76756  -0.75829  -0.75758  -0.74667
 Alpha  occ. eigenvalues --   -0.73887  -0.73529  -0.72888  -0.72245  -0.71129
 Alpha  occ. eigenvalues --   -0.69656  -0.69093  -0.68689  -0.68192  -0.67985
 Alpha  occ. eigenvalues --   -0.67440  -0.67319  -0.66706  -0.66531  -0.65649
 Alpha  occ. eigenvalues --   -0.63964  -0.63066  -0.62937  -0.62583  -0.61898
 Alpha  occ. eigenvalues --   -0.61347  -0.59764  -0.59281  -0.57968  -0.57741
 Alpha  occ. eigenvalues --   -0.57245  -0.56822  -0.56792  -0.56399  -0.55848
 Alpha  occ. eigenvalues --   -0.55149  -0.54902  -0.54859  -0.54133  -0.53085
 Alpha  occ. eigenvalues --   -0.52803  -0.52091  -0.51567  -0.50822  -0.50595
 Alpha  occ. eigenvalues --   -0.50047  -0.49392  -0.49333  -0.48978  -0.48126
 Alpha  occ. eigenvalues --   -0.47834  -0.47516  -0.47437  -0.47131  -0.46981
 Alpha  occ. eigenvalues --   -0.46729  -0.46514  -0.46051  -0.45970  -0.45888
 Alpha  occ. eigenvalues --   -0.45737  -0.45499  -0.45394  -0.45285  -0.44747
 Alpha  occ. eigenvalues --   -0.44397  -0.44336  -0.44161  -0.44048  -0.43759
 Alpha  occ. eigenvalues --   -0.43588  -0.43150  -0.43031  -0.42818  -0.42731
 Alpha  occ. eigenvalues --   -0.42400  -0.42252  -0.42139  -0.42030  -0.41887
 Alpha  occ. eigenvalues --   -0.41539  -0.41334  -0.41190  -0.40984  -0.40492
 Alpha  occ. eigenvalues --   -0.40214  -0.40066  -0.39829  -0.39540  -0.39367
 Alpha  occ. eigenvalues --   -0.39165  -0.39052  -0.38914  -0.38774  -0.38607
 Alpha  occ. eigenvalues --   -0.38521  -0.38343  -0.38207  -0.37889  -0.37695
 Alpha  occ. eigenvalues --   -0.37606  -0.37385  -0.37208  -0.36852  -0.36648
 Alpha  occ. eigenvalues --   -0.36602  -0.36342  -0.36171  -0.36077  -0.35538
 Alpha  occ. eigenvalues --   -0.35446  -0.35002  -0.34909  -0.34893  -0.34876
 Alpha  occ. eigenvalues --   -0.34499  -0.34445  -0.33999  -0.33808  -0.33591
 Alpha  occ. eigenvalues --   -0.33393  -0.33136  -0.32645  -0.31942  -0.31791
 Alpha  occ. eigenvalues --   -0.31649  -0.31554  -0.31108  -0.31069  -0.30842
 Alpha  occ. eigenvalues --   -0.30743  -0.30494  -0.30452  -0.29786  -0.29461
 Alpha  occ. eigenvalues --   -0.29132  -0.28742  -0.28686  -0.28531  -0.28015
 Alpha  occ. eigenvalues --   -0.27995  -0.27750  -0.26867  -0.26642  -0.26138
 Alpha  occ. eigenvalues --   -0.24877  -0.24764  -0.24409  -0.22555  -0.20050
 Alpha  occ. eigenvalues --   -0.19191
 Alpha virt. eigenvalues --   -0.10705  -0.08166  -0.04802  -0.02408  -0.00266
 Alpha virt. eigenvalues --   -0.00241   0.00395   0.00563   0.01449   0.03557
 Alpha virt. eigenvalues --    0.03896   0.04047   0.04260   0.04485   0.04710

 Mulliken charges:
               1
     1  C    0.109345
     2  C   -0.074498
     3  C   -0.087479
     4  C   -0.103638
     5  N   -0.276979
     6  C   -0.064251
     7  C   -0.035643
     8  C   -0.035554
     9  C    0.069821
    10  C    0.075602
    11  C    0.029131
    12  C    0.087060
    13  C    0.172184
    14  O   -0.201424
    15  O   -0.332179
    16  N   -0.144366
    17  C    0.036983
    18  C   -0.059024
    19  C    0.062226
    20  C    0.180086
    21  C   -0.017954
    22  C   -0.101983
    23  C   -0.015327
    24  N   -0.235529
    25  C    0.042157
    26  C   -0.153640
    27  C   -0.081197
    28  C    0.076213
    29  C    0.049461
    30  C    0.170930
    31  C    0.019237
    32  N    0.053133
    33  C    0.067020
    34  C   -0.186648
    35  C    0.070302
    36  C   -0.031763
    37  C    0.175978
    38  C    0.014379
    39  O   -0.223764
    40  C    0.028040
    41  C    0.177086
    42  O   -0.208023
    43  O   -0.307532
    44  C    0.114591
    45  C    0.355522
    46  C   -0.159439
    47  C   -0.202661
    48  C    0.068247
    49  C    0.058461
    50  C    0.089917
    51  C    0.072230
    52  C   -0.037154
    53  C    0.005262
    54  C    0.054216
    55  C    0.013549
    56  C    0.042426
    57  C   -0.066891
    58  C    0.039499
    59  C    0.109487
    60  C    0.069543
    61  C    0.004220
    62  C   -0.029411
    63  C    0.125448
    64  C   -0.068775
    65  H    0.007343
    66  H    0.011045
    67  H    0.017146
    68  H    0.019494
    69  H   -0.001163
    70  H    0.030579
    71  H    0.011575
    72  H    0.029705
    73  H    0.011901
    74  H    0.015465
    75  H   -0.038720
    76  H    0.029181
    77  H    0.063247
    78  H    0.039031
    79  H    0.038081
    80  H   -0.006296
    81  H    0.039668
    82  H   -0.003313
    83  H    0.031677
    84  H    0.026697
    85  H    0.022614
    86  H   -0.016690
    87  H   -0.012671
    88  H   -0.024608
    89  H   -0.000061
    90  H   -0.038799
    91  H   -0.005806
    92  H    0.013716
    93  H    0.030990
    94  H    0.060937
    95  H    0.058801
    96  H    0.054641
    97  H    0.048794
    98  H    0.051333
    99  H   -0.051224
   100  H    0.024891
   101  H    0.017838
   102  H    0.025964
   103  H    0.052383
   104  H   -0.022001
   105  H    0.014102
   106  H   -0.044145
   107  H   -0.004647
   108  H   -0.044666
   109  H   -0.024183
   110  H   -0.023994
   111  H   -0.015069
   112  H    0.059091
   113  H   -0.004207
   114  H   -0.022713
   115  H   -0.027078
   116  H    0.004053
   117  H   -0.022056
   118  H   -0.002645
   119  H   -0.036426
   120  H   -0.004872
   121  H    0.005076
   122  H    0.019281
   123  H    0.005558
   124  H   -0.021768
   125  H   -0.086755
   126  H    0.010559
   127  H   -0.012991
   128  H   -0.063509
   129  H   -0.003332
   130  H   -0.036730
   131  H   -0.029891
   132  H   -0.020858
   133  H    0.024476
   134  H    0.005682
   135  H    0.013377
   136  H    0.026328
   137  H    0.157568
   138  H    0.097729
 Sum of Mulliken charges =  -0.00000

 Dipole moment (field-independent basis, Debye):
    X=              1.7555    Y=              4.7048    Z=              0.4161  Tot=              5.0389
 Quadrupole moment (field-independent basis, Debye-Ang):
   XX=           -354.1892   YY=           -383.0733   ZZ=           -394.3945
   XY=            -24.1107   XZ=              5.3745   YZ=             -0.3268

 Normal termination of Gaussian 16 at Thu Aug 15 07:00:27 2019.
