 Gaussian 16, Revision A.03,
 Gaussian 16:  ES64L-G16RevA.03 25-Dec-2016

 --------------------------
 # td=(NStates=1) B3LYP/SVP
 --------------------------

 --
 TD
 --
 Symbolic Z-matrix:
 Charge =  0 Multiplicity = 1

                         Standard orientation:
 ---------------------------------------------------------------------
 Center     Atomic      Atomic             Coordinates (Angstroms)
 Number     Number       Type             X           Y           Z
 ---------------------------------------------------------------------
      1          6           0       -4.950922   -1.992177    0.368612
      2          6           0       -4.866658    2.774239    1.461723
      3          6           0       -9.364856    3.350369   -0.267580
      4          6           0       -9.789675   -1.518464   -0.925750
      5          7           0       -5.241427    0.372824    1.046795
      6          6           0       -4.494110   -0.794544    0.848080
      7          6           0       -2.985549   -0.559210    1.326574
      8          6           0       -3.042515    0.828957    1.859245
      9          6           0       -4.400974    1.409788    1.478185
     10          6           0       -2.874164    0.915085    3.426621
     11          6           0       -2.072051   -0.751226    0.117477
     12          6           0       -0.526949   -0.586588    0.542672
     13          6           0        0.354801   -0.963853   -0.511527
     14          8           0        0.070723   -1.564019   -1.523287
     15          8           0        1.644693   -0.833330   -0.266020
     16          7           0       -7.077430    2.782417    0.587582
     17          6           0       -6.017041    3.453961    1.119756
     18          6           0       -6.239803    4.805716    1.125725
     19          6           0       -7.509583    4.937551    0.568568
     20          6           0       -8.010725    3.650618    0.185293
     21          6           0       -5.201314    5.839593    1.630782
     22          6           0       -8.186972    6.181922    0.419530
     23          6           0       -9.005031    6.697766   -0.587938
     24          7           0       -9.164018    0.938455   -0.631956
     25          6           0       -9.849616    2.118194   -0.589005
     26          6           0      -11.232407    1.814953   -1.039490
     27          6           0      -11.335835    0.566694   -1.268290
     28          6           0      -10.092622   -0.040240   -0.928612
     29          6           0      -12.260936    3.014457   -1.199771
     30          6           0      -12.576082   -0.315981   -1.705126
     31          6           0      -12.593222   -0.649650   -3.294446
     32          7           0       -7.432203   -1.226670   -0.233249
     33          6           0       -8.537377   -2.004774   -0.568824
     34          6           0       -8.126606   -3.399737   -0.666076
     35          6           0       -6.777160   -3.406274   -0.238248
     36          6           0       -6.366290   -2.072619    0.031742
     37          6           0       -8.968721   -4.597669   -1.082568
     38          6           0       -5.702197   -4.296737    0.010616
     39          8           0       -5.586619   -5.499291   -0.173903
     40          6           0       -4.412402   -3.367986    0.373827
     41          6           0       -3.887572   -3.792275    1.720695
     42          8           0       -4.181316   -3.391369    2.792608
     43          8           0       -3.120991   -4.868675    1.574524
     44          6           0       -2.641485   -5.546829    2.690578
     45          6           0        2.685306   -0.933484   -1.306800
     46          6           0        4.036471   -0.650268   -0.641697
     47          6           0        4.937249    0.143764   -1.179052
     48          6           0        4.940687    1.040287   -2.360775
     49          6           0        6.151732    0.266588   -0.268432
     50          6           0        7.397116   -0.174924   -0.979588
     51          6           0        8.735756   -0.187830   -0.132255
     52          6           0       10.027913   -0.734851   -0.724404
     53          6           0        9.987478   -2.285281   -0.865586
     54          6           0       11.259071   -0.403601    0.057451
     55          6           0       12.642236   -0.716225   -0.565403
     56          6           0       13.688970   -0.025630    0.304282
     57          6           0       15.120227   -0.212002   -0.375951
     58          6           0       15.487084   -1.747783   -0.391205
     59          6           0       16.225356    0.561174    0.390727
     60          6           0       17.652078    0.567924   -0.297721
     61          6           0       18.632193    1.564545    0.562721
     62          6           0       19.953871    1.664551    0.012939
     63          6           0       20.046162    2.411387   -1.301736
     64          6           0       21.003168    2.357166    0.952393
     65          1           0       -3.997804    3.329294    1.912967
     66          1           0      -10.013354    4.157029   -0.436572
     67          1           0      -10.578457   -2.193304   -1.338585
     68          1           0       -2.628279   -1.261034    2.240417
     69          1           0       -2.262842    1.360206    1.389995
     70          1           0       -2.041921    0.526328    3.840786
     71          1           0       -2.996522    1.883200    3.788952
     72          1           0       -3.677273    0.564270    3.745986
     73          1           0       -2.274439   -1.549621   -0.416304
     74          1           0       -2.271760    0.165536   -0.495483
     75          1           0       -0.415503    0.382374    0.925349
     76          1           0       -0.141379   -1.194407    1.504299
     77          1           0       -4.332486    5.893542    1.066821
     78          1           0       -5.851911    6.775172    1.373891
     79          1           0       -5.256209    5.638735    2.791172
     80          1           0       -7.623877    6.949217    1.094806
     81          1           0       -9.116961    6.167044   -1.567449
     82          1           0       -9.243295    7.616646   -0.546765
     83          1           0      -12.461580    3.423333   -0.128767
     84          1           0      -12.077751    3.845380   -2.009046
     85          1           0      -13.021180    2.437216   -1.613097
     86          1           0      -12.471442   -1.329126   -1.106773
     87          1           0      -13.642288    0.304319   -1.466877
     88          1           0      -12.684442    0.149667   -4.001436
     89          1           0      -11.603238   -1.075206   -3.426562
     90          1           0      -13.365705   -1.324197   -3.519564
     91          1           0       -9.837217   -4.503707   -0.415541
     92          1           0       -9.302146   -4.600184   -2.083451
     93          1           0       -8.392912   -5.448881   -0.757015
     94          1           0       -3.634276   -3.466145   -0.375983
     95          1           0       -2.348439   -6.686475    2.418217
     96          1           0       -1.674101   -5.101148    3.154674
     97          1           0       -3.505053   -5.742306    3.466359
     98          1           0        2.673587   -2.029238   -1.635541
     99          1           0        2.570165   -0.282697   -2.149927
    100          1           0        4.326657   -1.127420    0.208605
    101          1           0        4.965983    2.079458   -1.763127
    102          1           0        5.880195    1.018601   -2.981534
    103          1           0        3.874649    0.936927   -3.129156
    104          1           0        6.392282    1.271365    0.047230
    105          1           0        5.872940   -0.154172    0.765957
    106          1           0        7.233914   -1.276461   -1.265243
    107          1           0        7.599116    0.333540   -1.884352
    108          1           0        8.791832    0.797590    0.106038
    109          1           0        8.637380   -0.827948    0.902836
    110          1           0       10.125252   -0.329566   -1.773119
    111          1           0        8.874642   -2.790768   -1.074701
    112          1           0       10.723904   -2.908770   -1.581902
    113          1           0       10.065406   -3.018616    0.109180
    114          1           0       11.424026    0.824031    0.447677
    115          1           0       11.071873   -0.961327    1.130656
    116          1           0       12.675872   -1.760154   -0.480966
    117          1           0       12.523375   -0.451614   -1.667555
    118          1           0       13.512255    0.921872    0.452084
    119          1           0       13.709027   -0.354407    1.187045
    120          1           0       14.987325    0.058521   -1.501185
    121          1           0       14.750539   -2.269088   -0.959207
    122          1           0       16.578554   -1.806381   -0.929982
    123          1           0       15.451453   -2.125578    0.723655
    124          1           0       15.995802    1.619862    0.470097
    125          1           0       16.332212    0.085033    1.360651
    126          1           0       18.159538   -0.407727   -0.197257
    127          1           0       17.547256    0.905723   -1.237735
    128          1           0       18.217577    2.673603    0.473195
    129          1           0       18.535121    1.285474    1.556186
    130          1           0       20.352791    0.549859    0.067902
    131          1           0       19.541173    3.435747   -1.280210
    132          1           0       21.148840    2.721420   -1.630206
    133          1           0       19.657352    1.880685   -2.210710
    134          1           0       21.120106    2.018161    1.996470
    135          1           0       22.128822    2.454244    0.365130
    136          1           0       20.485330    3.382098    1.250333
    137          1           0       -6.979021    1.805938    0.285339
    138          1           0       -7.388445   -0.337536   -0.135394
 ---------------------------------------------------------------------

 SCF Done:  E(RB3LYP) =  -2733.00391568     A.U. after   17 cycles

 Excitation energies and oscillator strengths:

 Excited State   1:      Singlet-A      1.9211 eV  645.37 nm  f=0.1951  <S**2>=0.000
     235 -> 237       -0.16867
     235 -> 238       -0.23581
     236 -> 237        0.63019
     236 -> 238       -0.12900
 This state for optimization and/or second-order correction.
 Total Energy, E(TD-HF/TD-DFT) =  -2732.93331548
 Copying the excited state density for this state as the 1-particle RhoCI density.

 The electronic state is 1-A.
 Alpha  occ. eigenvalues --  -19.17252 -19.15939 -19.12548 -19.11842 -19.10337
 Alpha  occ. eigenvalues --  -14.37058 -14.36812 -14.32627 -14.29710 -10.30993
 Alpha  occ. eigenvalues --  -10.30197 -10.28141 -10.25900 -10.25043 -10.24242
 Alpha  occ. eigenvalues --  -10.24198 -10.23739 -10.23731 -10.23242 -10.22842
 Alpha  occ. eigenvalues --  -10.22789 -10.22391 -10.22364 -10.22065 -10.21622
 Alpha  occ. eigenvalues --  -10.21438 -10.21264 -10.21232 -10.21170 -10.20939
 Alpha  occ. eigenvalues --  -10.20544 -10.20515 -10.20478 -10.20471 -10.20418
 Alpha  occ. eigenvalues --  -10.20036 -10.19964 -10.19946 -10.19902 -10.19898
 Alpha  occ. eigenvalues --  -10.19863 -10.19839 -10.19742 -10.19576 -10.19554
 Alpha  occ. eigenvalues --  -10.19407 -10.19326 -10.19228 -10.19195 -10.19175
 Alpha  occ. eigenvalues --  -10.19168 -10.18983 -10.18959 -10.18924 -10.18272
 Alpha  occ. eigenvalues --  -10.18149 -10.18112 -10.18068 -10.17982 -10.17872
 Alpha  occ. eigenvalues --  -10.17742 -10.17724 -10.15963 -10.15681  -1.10876
 Alpha  occ. eigenvalues --   -1.08989  -1.02469  -1.01437  -0.99799  -0.98629
 Alpha  occ. eigenvalues --   -0.98332  -0.93477  -0.92252  -0.85464  -0.83562
 Alpha  occ. eigenvalues --   -0.82337  -0.82002  -0.81525  -0.81452  -0.81246
 Alpha  occ. eigenvalues --   -0.80519  -0.79757  -0.78676  -0.78418  -0.78020
 Alpha  occ. eigenvalues --   -0.76749  -0.76015  -0.75751  -0.74974  -0.74008
 Alpha  occ. eigenvalues --   -0.73512  -0.73058  -0.72759  -0.71502  -0.71072
 Alpha  occ. eigenvalues --   -0.70806  -0.69882  -0.69023  -0.68261  -0.67471
 Alpha  occ. eigenvalues --   -0.67127  -0.66488  -0.66476  -0.65797  -0.65493
 Alpha  occ. eigenvalues --   -0.64792  -0.64226  -0.63164  -0.62654  -0.61550
 Alpha  occ. eigenvalues --   -0.61068  -0.59828  -0.59250  -0.57923  -0.57744
 Alpha  occ. eigenvalues --   -0.57389  -0.56318  -0.55996  -0.55645  -0.55535
 Alpha  occ. eigenvalues --   -0.54897  -0.54663  -0.53752  -0.53584  -0.53318
 Alpha  occ. eigenvalues --   -0.52347  -0.52116  -0.51575  -0.51403  -0.50849
 Alpha  occ. eigenvalues --   -0.49825  -0.49425  -0.49052  -0.48940  -0.48506
 Alpha  occ. eigenvalues --   -0.48317  -0.47882  -0.47653  -0.47519  -0.47281
 Alpha  occ. eigenvalues --   -0.47102  -0.46728  -0.46312  -0.45950  -0.45867
 Alpha  occ. eigenvalues --   -0.45686  -0.45254  -0.44980  -0.44793  -0.44558
 Alpha  occ. eigenvalues --   -0.44538  -0.44277  -0.44215  -0.43955  -0.43605
 Alpha  occ. eigenvalues --   -0.43562  -0.43183  -0.43111  -0.42871  -0.42569
 Alpha  occ. eigenvalues --   -0.42560  -0.42393  -0.42258  -0.42195  -0.41604
 Alpha  occ. eigenvalues --   -0.41520  -0.41466  -0.41167  -0.40855  -0.40532
 Alpha  occ. eigenvalues --   -0.40009  -0.39769  -0.39665  -0.39558  -0.39291
 Alpha  occ. eigenvalues --   -0.39230  -0.39163  -0.39114  -0.38917  -0.38431
 Alpha  occ. eigenvalues --   -0.38351  -0.38271  -0.38087  -0.37833  -0.37678
 Alpha  occ. eigenvalues --   -0.37515  -0.37382  -0.37160  -0.36909  -0.36819
 Alpha  occ. eigenvalues --   -0.36511  -0.36407  -0.36063  -0.35685  -0.35585
 Alpha  occ. eigenvalues --   -0.35534  -0.34937  -0.34704  -0.34606  -0.34492
 Alpha  occ. eigenvalues --   -0.34425  -0.33992  -0.33896  -0.33619  -0.33531
 Alpha  occ. eigenvalues --   -0.33448  -0.33299  -0.32961  -0.32728  -0.32634
 Alpha  occ. eigenvalues --   -0.32408  -0.32160  -0.32086  -0.31895  -0.31375
 Alpha  occ. eigenvalues --   -0.30845  -0.30657  -0.30288  -0.30227  -0.29877
 Alpha  occ. eigenvalues --   -0.29392  -0.29219  -0.28590  -0.28241  -0.27864
 Alpha  occ. eigenvalues --   -0.27037  -0.26784  -0.26524  -0.26364  -0.25939
 Alpha  occ. eigenvalues --   -0.25276  -0.25071  -0.23886  -0.23372  -0.20165
 Alpha  occ. eigenvalues --   -0.18719
 Alpha virt. eigenvalues --   -0.10977  -0.07815  -0.04915  -0.03031  -0.00237
 Alpha virt. eigenvalues --   -0.00016   0.00699   0.00916   0.02290   0.03318
 Alpha virt. eigenvalues --    0.03867   0.04069   0.04435   0.04523   0.05263

 Mulliken charges:
               1
     1  C   -0.018702
     2  C   -0.071458
     3  C   -0.051728
     4  C   -0.096649
     5  N   -0.238370
     6  C   -0.019082
     7  C   -0.113227
     8  C    0.038104
     9  C   -0.094526
    10  C    0.244908
    11  C    0.140323
    12  C    0.024217
    13  C    0.161476
    14  O   -0.248912
    15  O   -0.324783
    16  N   -0.010699
    17  C    0.133926
    18  C   -0.162489
    19  C    0.012284
    20  C    0.062203
    21  C    0.127740
    22  C   -0.116148
    23  C    0.040068
    24  N   -0.240224
    25  C    0.064536
    26  C   -0.149489
    27  C   -0.045043
    28  C    0.010810
    29  C    0.077740
    30  C   -0.057468
    31  C    0.046760
    32  N    0.052696
    33  C    0.137211
    34  C   -0.185692
    35  C    0.028950
    36  C    0.063211
    37  C    0.163516
    38  C    0.037157
    39  O   -0.171700
    40  C    0.003941
    41  C    0.168607
    42  O   -0.193732
    43  O   -0.261161
    44  C    0.096696
    45  C    0.330062
    46  C   -0.072812
    47  C   -0.098091
    48  C   -0.022784
    49  C    0.055161
    50  C    0.014974
    51  C    0.038355
    52  C    0.032509
    53  C   -0.120291
    54  C   -0.121942
    55  C    0.076251
    56  C    0.224518
    57  C   -0.124660
    58  C   -0.026560
    59  C    0.064529
    60  C    0.052425
    61  C    0.011138
    62  C   -0.060725
    63  C   -0.006936
    64  C   -0.041706
    65  H   -0.022929
    66  H   -0.048080
    67  H    0.003671
    68  H    0.040547
    69  H   -0.031653
    70  H   -0.010467
    71  H   -0.033141
    72  H   -0.058165
    73  H   -0.033412
    74  H    0.009832
    75  H    0.000403
    76  H    0.053113
    77  H    0.030434
    78  H    0.011859
    79  H    0.062866
    80  H    0.019436
    81  H    0.041794
    82  H   -0.031022
    83  H    0.049325
    84  H    0.043294
    85  H   -0.015352
    86  H    0.036028
    87  H    0.034555
    88  H    0.009745
    89  H    0.005249
    90  H    0.007162
    91  H    0.021161
    92  H    0.028666
    93  H    0.033888
    94  H    0.052667
    95  H    0.043532
    96  H    0.043400
    97  H    0.048006
    98  H    0.032632
    99  H   -0.001354
   100  H   -0.047643
   101  H    0.048105
   102  H    0.049517
   103  H    0.052757
   104  H   -0.019567
   105  H    0.006958
   106  H   -0.002164
   107  H   -0.009472
   108  H   -0.034491
   109  H    0.006184
   110  H   -0.004751
   111  H    0.022399
   112  H    0.042027
   113  H    0.014732
   114  H    0.001017
   115  H    0.009500
   116  H   -0.006959
   117  H    0.007595
   118  H   -0.067043
   119  H   -0.087077
   120  H   -0.002268
   121  H    0.009341
   122  H    0.033585
   123  H    0.018907
   124  H   -0.008225
   125  H   -0.012155
   126  H    0.008191
   127  H   -0.028158
   128  H   -0.009407
   129  H   -0.023564
   130  H    0.003934
   131  H    0.014719
   132  H    0.015314
   133  H    0.019670
   134  H    0.004471
   135  H    0.043116
   136  H   -0.001989
   137  H    0.154778
   138  H    0.031213
 Sum of Mulliken charges =  -0.00000

 Dipole moment (field-independent basis, Debye):
    X=              2.0579    Y=              4.5711    Z=             -0.0094  Tot=              5.0130
 Quadrupole moment (field-independent basis, Debye-Ang):
   XX=           -371.2384   YY=           -387.2660   ZZ=           -391.9526
   XY=            -14.9663   XZ=             13.9782   YZ=             -4.8121

 Normal termination of Gaussian 16 at Tue Aug 20 11:00:13 2019.
