 Gaussian 16, Revision A.03,
 Gaussian 16:  ES64L-G16RevA.03 25-Dec-2016

 --------------------------
 # td=(NStates=1) B3LYP/SVP
 --------------------------

 --
 TD
 --
 Symbolic Z-matrix:
 Charge =  0 Multiplicity = 1

                         Standard orientation:
 ---------------------------------------------------------------------
 Center     Atomic      Atomic             Coordinates (Angstroms)
 Number     Number       Type             X           Y           Z
 ---------------------------------------------------------------------
      1          6           0       -5.105145   -1.942905    0.440043
      2          6           0       -4.638551    2.674256    1.554291
      3          6           0       -9.298822    3.350501   -0.054126
      4          6           0       -9.849674   -1.381346   -0.831838
      5          7           0       -5.162130    0.404668    0.939596
      6          6           0       -4.485152   -0.766750    0.851370
      7          6           0       -3.023200   -0.685208    1.306938
      8          6           0       -3.082412    0.698621    2.013239
      9          6           0       -4.350669    1.194912    1.509764
     10          6           0       -3.105246    0.509892    3.494472
     11          6           0       -2.125751   -0.787375    0.053613
     12          6           0       -0.559993   -0.856372    0.405671
     13          6           0        0.313874   -0.987177   -0.791910
     14          8           0        0.067533   -1.421846   -1.969494
     15          8           0        1.598782   -0.783938   -0.285225
     16          7           0       -7.002801    2.687995    0.693690
     17          6           0       -5.892901    3.338705    1.167097
     18          6           0       -6.169854    4.762474    1.140279
     19          6           0       -7.372435    4.951897    0.613941
     20          6           0       -7.941846    3.661299    0.292374
     21          6           0       -5.141462    5.812279    1.507232
     22          6           0       -7.851303    6.225789    0.179945
     23          6           0       -8.826202    6.560056   -0.676699
     24          7           0       -9.241508    0.924919   -0.432430
     25          6           0       -9.955843    2.085319   -0.447356
     26          6           0      -11.237329    1.998900   -0.891609
     27          6           0      -11.431241    0.613838   -1.116484
     28          6           0      -10.083755    0.082531   -0.839646
     29          6           0      -12.285907    3.016266   -1.012390
     30          6           0      -12.580076   -0.086122   -1.722971
     31          6           0      -12.675725   -0.026100   -3.263952
     32          7           0       -7.536190   -1.231878   -0.276553
     33          6           0       -8.614422   -2.017708   -0.600929
     34          6           0       -8.258698   -3.412030   -0.551502
     35          6           0       -6.903305   -3.405209   -0.210482
     36          6           0       -6.559356   -2.134335    0.152924
     37          6           0       -9.226839   -4.486418   -0.977260
     38          6           0       -5.732018   -4.364587   -0.007137
     39          8           0       -5.556706   -5.521979   -0.111198
     40          6           0       -4.528539   -3.390890    0.383461
     41          6           0       -4.035723   -3.915603    1.652619
     42          8           0       -4.244474   -3.461930    2.775984
     43          8           0       -3.073212   -4.900124    1.396098
     44          6           0       -2.378031   -5.475956    2.505913
     45          6           0        2.695138   -1.058281   -1.273235
     46          6           0        4.022225   -0.633236   -0.719373
     47          6           0        4.934618    0.215768   -1.122969
     48          6           0        4.856386    0.919558   -2.377884
     49          6           0        6.221773    0.388931   -0.313156
     50          6           0        7.365836   -0.423815   -0.977471
     51          6           0        8.690721   -0.143775   -0.258789
     52          6           0       10.031120   -0.647168   -0.803724
     53          6           0       10.011330   -2.155875   -1.195374
     54          6           0       11.335572   -0.313591    0.036812
     55          6           0       12.668715   -0.468881   -0.676164
     56          6           0       13.798930   -0.030970    0.200863
     57          6           0       15.192080   -0.246159   -0.379144
     58          6           0       15.639139   -1.677276   -0.587040
     59          6           0       16.271276    0.489153    0.491623
     60          6           0       17.655108    0.675998   -0.092416
     61          6           0       18.631001    1.426022    0.747196
     62          6           0       20.067377    1.689607    0.208640
     63          6           0       20.085780    2.490652   -1.111382
     64          6           0       21.040392    2.295441    1.224421
     65          1           0       -3.851310    3.420687    1.834354
     66          1           0       -9.916140    4.149532   -0.117938
     67          1           0      -10.732756   -2.083129   -1.139973
     68          1           0       -2.906196   -1.687005    2.101484
     69          1           0       -2.174063    1.313827    1.643797
     70          1           0       -2.122327    0.034849    3.712649
     71          1           0       -3.023715    1.636374    3.818537
     72          1           0       -3.821565   -0.048311    3.784255
     73          1           0       -2.338542   -1.591878   -0.644737
     74          1           0       -2.119925    0.108534   -0.483847
     75          1           0       -0.142858   -0.155487    1.038080
     76          1           0       -0.376982   -1.765196    1.037196
     77          1           0       -4.410737    5.728962    0.880672
     78          1           0       -5.532370    6.762216    1.176549
     79          1           0       -4.826950    5.885640    2.541542
     80          1           0       -7.517818    7.030252    0.832464
     81          1           0       -9.106307    5.787055   -1.466813
     82          1           0       -9.319731    7.608593   -0.806383
     83          1           0      -12.177653    3.781545   -0.098345
     84          1           0      -12.053208    3.762698   -1.721220
     85          1           0      -13.342406    2.737412   -1.153305
     86          1           0      -12.571688   -1.243498   -1.359770
     87          1           0      -13.524865    0.354445   -1.287122
     88          1           0      -12.935573    1.008937   -3.622137
     89          1           0      -11.821648   -0.492905   -3.971981
     90          1           0      -13.625440   -0.652622   -3.494006
     91          1           0      -10.167175   -4.584874   -0.341014
     92          1           0       -9.668180   -4.219271   -1.984613
     93          1           0       -8.648195   -5.416448   -1.059307
     94          1           0       -3.761247   -3.609018   -0.425454
     95          1           0       -1.720112   -6.357141    2.255243
     96          1           0       -1.676782   -4.676401    3.060400
     97          1           0       -3.072521   -5.925872    3.259032
     98          1           0        2.695595   -2.238176   -1.314655
     99          1           0        2.273761   -0.491840   -2.200984
    100          1           0        4.090208   -0.955118    0.400474
    101          1           0        5.170592    2.042038   -2.393280
    102          1           0        5.559956    0.330651   -3.102432
    103          1           0        3.840180    0.641571   -2.918256
    104          1           0        6.424756    1.342853   -0.179523
    105          1           0        5.888008   -0.010427    0.628128
    106          1           0        7.079161   -1.544241   -0.823839
    107          1           0        7.404512   -0.298996   -2.274102
    108          1           0        8.792886    1.026141   -0.097262
    109          1           0        8.581591   -0.611872    0.750271
    110          1           0       10.029187   -0.109907   -1.824457
    111          1           0        9.133115   -2.303224   -1.894113
    112          1           0       10.889962   -2.523276   -1.909132
    113          1           0        9.779881   -2.956000   -0.364022
    114          1           0       10.973677    0.828421    0.342316
    115          1           0       11.270591   -1.143772    0.931560
    116          1           0       12.642090   -1.694442   -0.952553
    117          1           0       12.660714   -0.136956   -1.720584
    118          1           0       13.623891    0.881085    0.608626
    119          1           0       13.917520   -0.578388    1.046788
    120          1           0       15.395238    0.272768   -1.419280
    121          1           0       14.886496   -2.152288   -1.295264
    122          1           0       16.703255   -1.921749   -0.798879
    123          1           0       15.435555   -2.197920    0.298301
    124          1           0       15.940559    1.520193    0.894489
    125          1           0       16.347377    0.038820    1.390621
    126          1           0       18.200255   -0.221663   -0.363494
    127          1           0       17.539593    1.255363   -1.103066
    128          1           0       17.969592    2.416992    0.819904
    129          1           0       18.911731    0.985098    1.834903
    130          1           0       20.542294    0.591726    0.132305
    131          1           0       19.561288    3.438000   -0.912691
    132          1           0       21.248389    2.520165   -1.624892
    133          1           0       19.491546    2.007884   -1.885163
    134          1           0       21.194864    1.828193    2.221615
    135          1           0       22.022809    2.564688    0.772690
    136          1           0       20.790228    3.411956    1.507851
    137          1           0       -7.313179    1.650050    0.945943
    138          1           0       -7.645527   -0.133598   -0.374591
 ---------------------------------------------------------------------

 SCF Done:  E(RB3LYP) =  -2733.08304450     A.U. after   17 cycles

 Excitation energies and oscillator strengths:

 Excited State   1:      Singlet-A      2.0383 eV  608.27 nm  f=0.0957  <S**2>=0.000
     235 -> 237       -0.36404
     235 -> 238        0.19999
     236 -> 237        0.47078
     236 -> 238        0.31814
 This state for optimization and/or second-order correction.
 Total Energy, E(TD-HF/TD-DFT) =  -2733.00813748
 Copying the excited state density for this state as the 1-particle RhoCI density.

 The electronic state is 1-A.
 Alpha  occ. eigenvalues --  -19.17433 -19.17231 -19.13778 -19.12880 -19.12827
 Alpha  occ. eigenvalues --  -14.37219 -14.36736 -14.32039 -14.29483 -10.32071
 Alpha  occ. eigenvalues --  -10.31883 -10.29147 -10.26042 -10.25410 -10.24125
 Alpha  occ. eigenvalues --  -10.23846 -10.23835 -10.23058 -10.22599 -10.22570
 Alpha  occ. eigenvalues --  -10.21724 -10.21456 -10.21443 -10.21355 -10.21130
 Alpha  occ. eigenvalues --  -10.20996 -10.20954 -10.20945 -10.20756 -10.20740
 Alpha  occ. eigenvalues --  -10.20564 -10.20521 -10.20399 -10.20396 -10.20329
 Alpha  occ. eigenvalues --  -10.20199 -10.20155 -10.20147 -10.20136 -10.20132
 Alpha  occ. eigenvalues --  -10.20078 -10.19976 -10.19870 -10.19787 -10.19741
 Alpha  occ. eigenvalues --  -10.19733 -10.19636 -10.19614 -10.19594 -10.19585
 Alpha  occ. eigenvalues --  -10.19430 -10.19385 -10.19385 -10.18935 -10.18503
 Alpha  occ. eigenvalues --  -10.18419 -10.18389 -10.18379 -10.18310 -10.18136
 Alpha  occ. eigenvalues --  -10.17966 -10.17493 -10.17460 -10.16970  -1.07719
 Alpha  occ. eigenvalues --   -1.06049  -1.05993  -0.99790  -0.98001  -0.97529
 Alpha  occ. eigenvalues --   -0.97482  -0.97024  -0.96236  -0.84107  -0.83539
 Alpha  occ. eigenvalues --   -0.82921  -0.82387  -0.81561  -0.80583  -0.80233
 Alpha  occ. eigenvalues --   -0.79937  -0.79639  -0.79140  -0.78773  -0.77724
 Alpha  occ. eigenvalues --   -0.76825  -0.76145  -0.75938  -0.74970  -0.74330
 Alpha  occ. eigenvalues --   -0.73208  -0.72510  -0.72011  -0.71930  -0.71204
 Alpha  occ. eigenvalues --   -0.70126  -0.68880  -0.68458  -0.68207  -0.67699
 Alpha  occ. eigenvalues --   -0.67226  -0.66825  -0.66211  -0.65692  -0.64848
 Alpha  occ. eigenvalues --   -0.64311  -0.63149  -0.62025  -0.61402  -0.61324
 Alpha  occ. eigenvalues --   -0.60795  -0.59053  -0.58091  -0.57222  -0.57081
 Alpha  occ. eigenvalues --   -0.56870  -0.56113  -0.55715  -0.54949  -0.54649
 Alpha  occ. eigenvalues --   -0.53853  -0.53806  -0.53455  -0.53269  -0.53137
 Alpha  occ. eigenvalues --   -0.52248  -0.51870  -0.51464  -0.50656  -0.50266
 Alpha  occ. eigenvalues --   -0.49510  -0.49085  -0.48571  -0.48315  -0.48102
 Alpha  occ. eigenvalues --   -0.47872  -0.47484  -0.47352  -0.46979  -0.46826
 Alpha  occ. eigenvalues --   -0.46663  -0.46321  -0.45690  -0.45516  -0.45339
 Alpha  occ. eigenvalues --   -0.45298  -0.44979  -0.44879  -0.44711  -0.44641
 Alpha  occ. eigenvalues --   -0.44445  -0.44249  -0.44219  -0.43998  -0.43679
 Alpha  occ. eigenvalues --   -0.43339  -0.43236  -0.43028  -0.42821  -0.42620
 Alpha  occ. eigenvalues --   -0.42419  -0.42240  -0.41902  -0.41689  -0.41542
 Alpha  occ. eigenvalues --   -0.41344  -0.41023  -0.40896  -0.40555  -0.40429
 Alpha  occ. eigenvalues --   -0.40030  -0.39733  -0.39534  -0.39444  -0.39358
 Alpha  occ. eigenvalues --   -0.39173  -0.38943  -0.38837  -0.38744  -0.38707
 Alpha  occ. eigenvalues --   -0.38545  -0.38393  -0.38096  -0.37926  -0.37797
 Alpha  occ. eigenvalues --   -0.37637  -0.37540  -0.37327  -0.37155  -0.37047
 Alpha  occ. eigenvalues --   -0.36569  -0.36413  -0.36325  -0.36203  -0.36000
 Alpha  occ. eigenvalues --   -0.35784  -0.35616  -0.35541  -0.34991  -0.34689
 Alpha  occ. eigenvalues --   -0.34525  -0.34506  -0.34209  -0.33955  -0.33724
 Alpha  occ. eigenvalues --   -0.33484  -0.33125  -0.32851  -0.32577  -0.32225
 Alpha  occ. eigenvalues --   -0.32097  -0.31989  -0.31804  -0.31311  -0.30731
 Alpha  occ. eigenvalues --   -0.30707  -0.30421  -0.30264  -0.29977  -0.29912
 Alpha  occ. eigenvalues --   -0.29783  -0.29286  -0.29126  -0.28243  -0.28233
 Alpha  occ. eigenvalues --   -0.27951  -0.27625  -0.27479  -0.26027  -0.25630
 Alpha  occ. eigenvalues --   -0.25479  -0.25225  -0.24365  -0.22464  -0.19654
 Alpha  occ. eigenvalues --   -0.18377
 Alpha virt. eigenvalues --   -0.10043  -0.08011  -0.04444  -0.01956  -0.01924
 Alpha virt. eigenvalues --   -0.01020  -0.00301  -0.00114   0.02577   0.03378
 Alpha virt. eigenvalues --    0.03843   0.03982   0.04160   0.04285   0.04765

 Mulliken charges:
               1
     1  C    0.005489
     2  C   -0.067386
     3  C   -0.021472
     4  C   -0.081181
     5  N   -0.080977
     6  C   -0.054765
     7  C   -0.150267
     8  C   -0.047490
     9  C   -0.035119
    10  C    0.179797
    11  C    0.122948
    12  C    0.047054
    13  C    0.225450
    14  O   -0.290557
    15  O   -0.371126
    16  N   -0.122543
    17  C    0.041959
    18  C   -0.161281
    19  C    0.071486
    20  C    0.068029
    21  C    0.236657
    22  C   -0.050287
    23  C   -0.081843
    24  N   -0.161553
    25  C    0.027232
    26  C   -0.099922
    27  C   -0.108458
    28  C    0.012710
    29  C    0.116423
    30  C    0.009632
    31  C   -0.033419
    32  N   -0.119131
    33  C    0.041130
    34  C   -0.129089
    35  C   -0.057158
    36  C    0.097003
    37  C    0.073920
    38  C    0.083188
    39  O   -0.101886
    40  C   -0.080311
    41  C    0.241245
    42  O   -0.239228
    43  O   -0.329424
    44  C    0.143575
    45  C    0.229519
    46  C   -0.102279
    47  C   -0.183924
    48  C    0.022815
    49  C    0.203936
    50  C   -0.079067
    51  C    0.024900
    52  C   -0.067036
    53  C   -0.058691
    54  C   -0.030932
    55  C    0.000426
    56  C    0.195091
    57  C   -0.086056
    58  C    0.058574
    59  C    0.060626
    60  C    0.039964
    61  C   -0.057467
    62  C   -0.090384
    63  C   -0.004553
    64  C    0.009424
    65  H   -0.019885
    66  H   -0.092134
    67  H    0.002889
    68  H    0.067593
    69  H    0.011544
    70  H    0.009660
    71  H    0.020326
    72  H   -0.021363
    73  H    0.024842
    74  H   -0.008164
    75  H   -0.005543
    76  H    0.034844
    77  H   -0.030502
    78  H   -0.023983
    79  H    0.031831
    80  H    0.005380
    81  H    0.040721
    82  H    0.048240
    83  H    0.015265
    84  H   -0.010666
    85  H    0.021278
    86  H    0.019690
    87  H    0.011575
    88  H    0.020870
    89  H    0.042488
    90  H    0.015538
    91  H    0.039867
    92  H    0.032321
    93  H    0.038094
    94  H    0.079443
    95  H    0.039842
    96  H    0.035312
    97  H    0.033383
    98  H    0.042412
    99  H    0.058582
   100  H    0.009638
   101  H    0.046808
   102  H    0.030952
   103  H    0.013014
   104  H   -0.048669
   105  H   -0.015759
   106  H    0.021240
   107  H    0.031091
   108  H    0.013010
   109  H   -0.002133
   110  H   -0.005676
   111  H    0.005940
   112  H    0.032568
   113  H    0.023296
   114  H    0.017536
   115  H    0.025419
   116  H    0.011147
   117  H   -0.001939
   118  H   -0.042397
   119  H   -0.049833
   120  H   -0.008887
   121  H    0.008534
   122  H    0.025103
   123  H   -0.031402
   124  H   -0.018612
   125  H   -0.056085
   126  H   -0.019400
   127  H    0.004223
   128  H   -0.000208
   129  H    0.014750
   130  H    0.007632
   131  H    0.018064
   132  H    0.033762
   133  H    0.011810
   134  H    0.017807
   135  H    0.003164
   136  H   -0.008641
   137  H    0.202784
   138  H    0.194816
 Sum of Mulliken charges =  -0.00000

 Dipole moment (field-independent basis, Debye):
    X=              1.6339    Y=              3.8347    Z=              0.8127  Tot=              4.2467
 Quadrupole moment (field-independent basis, Debye-Ang):
   XX=           -361.2821   YY=           -381.3272   ZZ=           -400.0533
   XY=            -25.2209   XZ=             11.9013   YZ=             -2.3499

 Normal termination of Gaussian 16 at Sat Aug 24 15:25:30 2019.
