 Gaussian 16, Revision A.03,
 Gaussian 16:  ES64L-G16RevA.03 25-Dec-2016

 --------------------------
 # td=(NStates=1) B3LYP/SVP
 --------------------------

 --
 TD
 --
 Symbolic Z-matrix:
 Charge =  0 Multiplicity = 1

                         Standard orientation:
 ---------------------------------------------------------------------
 Center     Atomic      Atomic             Coordinates (Angstroms)
 Number     Number       Type             X           Y           Z
 ---------------------------------------------------------------------
      1          6           0       -5.089648   -2.015969    0.434320
      2          6           0       -4.649231    2.698303    1.365446
      3          6           0       -9.316543    3.447401   -0.197680
      4          6           0       -9.815726   -1.366041   -0.944514
      5          7           0       -5.130215    0.345261    0.645368
      6          6           0       -4.456811   -0.797605    0.797710
      7          6           0       -3.029951   -0.637244    1.300877
      8          6           0       -2.992470    0.789196    1.851991
      9          6           0       -4.334625    1.295580    1.299418
     10          6           0       -2.945228    0.817608    3.315763
     11          6           0       -2.002904   -0.839624    0.044435
     12          6           0       -0.654402   -0.813421    0.569290
     13          6           0        0.395515   -0.999170   -0.601883
     14          8           0        0.080264   -1.521750   -1.723885
     15          8           0        1.585939   -0.794769   -0.216051
     16          7           0       -7.023970    2.768341    0.450325
     17          6           0       -5.863573    3.367201    1.017965
     18          6           0       -6.134615    4.752197    1.015227
     19          6           0       -7.437969    4.937938    0.532286
     20          6           0       -8.002804    3.710675    0.144579
     21          6           0       -5.106166    5.644390    1.578791
     22          6           0       -8.051490    6.321623    0.366640
     23          6           0       -8.995042    6.622505   -0.509267
     24          7           0       -9.194310    0.919193   -0.420249
     25          6           0       -9.841371    2.177983   -0.408903
     26          6           0      -11.272165    1.965224   -0.806643
     27          6           0      -11.451150    0.589099   -1.020978
     28          6           0      -10.108477    0.013647   -0.755727
     29          6           0      -12.220556    3.074494   -1.053294
     30          6           0      -12.636594   -0.164064   -1.599306
     31          6           0      -12.583009   -0.470469   -2.979244
     32          7           0       -7.495074   -1.190010   -0.126049
     33          6           0       -8.588830   -2.006496   -0.604104
     34          6           0       -8.277430   -3.420767   -0.543606
     35          6           0       -7.014092   -3.433225   -0.180759
     36          6           0       -6.463178   -2.071295    0.054867
     37          6           0       -9.238691   -4.472080   -0.848055
     38          6           0       -5.831270   -4.312828    0.043671
     39          8           0       -5.810663   -5.561210    0.107586
     40          6           0       -4.557260   -3.411700    0.402608
     41          6           0       -3.915791   -3.900043    1.583273
     42          8           0       -4.062045   -3.530320    2.808453
     43          8           0       -3.072840   -4.999800    1.365978
     44          6           0       -2.516008   -5.578595    2.436068
     45          6           0        2.667642   -1.102173   -1.183619
     46          6           0        4.002796   -0.629959   -0.737311
     47          6           0        4.906112    0.241295   -1.254527
     48          6           0        4.578676    0.891985   -2.580146
     49          6           0        6.205908    0.510083   -0.502689
     50          6           0        7.439454   -0.182624   -1.090017
     51          6           0        8.759539   -0.034501   -0.331261
     52          6           0       10.009155   -0.668853   -0.868233
     53          6           0        9.887197   -2.176053   -1.267234
     54          6           0       11.227393   -0.170316   -0.033757
     55          6           0       12.612894   -0.475618   -0.705074
     56          6           0       13.847980   -0.061241    0.197973
     57          6           0       15.247694   -0.215811   -0.324188
     58          6           0       15.696534   -1.660889   -0.505219
     59          6           0       16.314965    0.632878    0.525557
     60          6           0       17.671952    0.632853   -0.069541
     61          6           0       18.576575    1.515255    0.759326
     62          6           0       20.078629    1.545657    0.360164
     63          6           0       20.269089    2.150475   -1.082046
     64          6           0       20.996146    2.147984    1.461706
     65          1           0       -3.922020    3.191686    1.968944
     66          1           0      -10.066514    4.238352   -0.292234
     67          1           0      -10.789377   -2.025807   -1.009569
     68          1           0       -2.849495   -1.206034    2.069511
     69          1           0       -2.260590    1.431617    1.230385
     70          1           0       -2.061671    0.316153    3.558507
     71          1           0       -2.998949    1.860179    3.682436
     72          1           0       -3.637212    0.199122    3.738644
     73          1           0       -2.358600   -1.771110   -0.508122
     74          1           0       -1.951548    0.141018   -0.630031
     75          1           0       -0.401045   -0.012768    1.280510
     76          1           0       -0.499614   -1.751462    1.271626
     77          1           0       -4.187689    5.622225    1.103962
     78          1           0       -5.253663    6.640352    1.579094
     79          1           0       -4.934495    5.408392    2.673603
     80          1           0       -7.696225    6.942799    0.838884
     81          1           0       -9.415679    5.852261   -1.261364
     82          1           0       -9.444296    7.586172   -0.624750
     83          1           0      -12.210545    3.863475   -0.225460
     84          1           0      -11.866312    3.778070   -1.858108
     85          1           0      -13.308957    2.652972   -1.047978
     86          1           0      -12.627556   -1.073603   -0.747560
     87          1           0      -13.489260    0.362317   -1.250177
     88          1           0      -12.464164    0.373336   -3.489458
     89          1           0      -11.768979   -1.097833   -3.535421
     90          1           0      -13.437968   -0.912966   -3.304647
     91          1           0      -10.338485   -3.959933   -0.483454
     92          1           0       -9.465506   -4.626455   -1.970843
     93          1           0       -8.965156   -5.448397   -0.300911
     94          1           0       -3.669914   -3.406843   -0.464216
     95          1           0       -1.724562   -6.423383    2.201596
     96          1           0       -2.176367   -4.667776    3.171423
     97          1           0       -3.296446   -5.960664    3.234925
     98          1           0        2.860901   -2.118496   -1.386004
     99          1           0        2.351525   -0.658537   -2.240453
    100          1           0        4.199289   -0.749070    0.289084
    101          1           0        4.936606    2.012488   -2.574532
    102          1           0        5.216138    0.370422   -3.412494
    103          1           0        3.582236    1.025896   -2.974915
    104          1           0        6.352258    1.657164   -0.755576
    105          1           0        6.088849    0.148622    0.385478
    106          1           0        7.218494   -1.300377   -1.251008
    107          1           0        7.430830   -0.010305   -2.146946
    108          1           0        9.033681    1.037669   -0.233549
    109          1           0        8.576189   -0.639117    0.712749
    110          1           0       10.155582   -0.167543   -1.936034
    111          1           0        9.183184   -2.342198   -2.102178
    112          1           0       10.809228   -2.640957   -1.620427
    113          1           0        9.759511   -2.665264   -0.378978
    114          1           0       11.127434    0.835114    0.322789
    115          1           0       11.407529   -0.871914    0.782533
    116          1           0       12.734750   -1.559569   -0.975444
    117          1           0       12.846992    0.124548   -1.520841
    118          1           0       13.690206    0.973849    0.182259
    119          1           0       13.615545   -0.383064    1.193047
    120          1           0       15.426632    0.084834   -1.472266
    121          1           0       15.285109   -2.304439   -1.183348
    122          1           0       16.673103   -1.833705   -1.134084
    123          1           0       15.726344   -2.021369    0.476722
    124          1           0       15.905280    1.580567    0.623996
    125          1           0       16.336089    0.270845    1.671524
    126          1           0       18.240453   -0.360933   -0.252150
    127          1           0       17.660824    0.934760   -1.175123
    128          1           0       18.316251    2.641091    0.861705
    129          1           0       18.565167    1.239386    1.834762
    130          1           0       20.115713    0.522357    0.095116
    131          1           0       20.185996    3.326912   -1.048090
    132          1           0       21.281910    1.968283   -1.608759
    133          1           0       19.569895    1.698456   -1.859744
    134          1           0       21.074621    1.810550    2.567671
    135          1           0       21.912389    2.324417    1.253735
    136          1           0       20.923495    3.145985    1.559401
    137          1           0       -7.198150    1.867956    0.246186
    138          1           0       -7.480135   -0.156622   -0.224740
 ---------------------------------------------------------------------

 SCF Done:  E(RB3LYP) =  -2732.98596389     A.U. after   17 cycles

 Excitation energies and oscillator strengths:

 Excited State   1:      Singlet-A      1.9750 eV  627.78 nm  f=0.1719  <S**2>=0.000
     235 -> 238        0.29204
     236 -> 237        0.64086
 This state for optimization and/or second-order correction.
 Total Energy, E(TD-HF/TD-DFT) =  -2732.91338551
 Copying the excited state density for this state as the 1-particle RhoCI density.

 The electronic state is 1-A.
 Alpha  occ. eigenvalues --  -19.19950 -19.17800 -19.12987 -19.12853 -19.11244
 Alpha  occ. eigenvalues --  -14.37283 -14.35799 -14.32658 -14.30095 -10.32469
 Alpha  occ. eigenvalues --  -10.31819 -10.29313 -10.26113 -10.24891 -10.24298
 Alpha  occ. eigenvalues --  -10.24166 -10.23763 -10.23531 -10.23272 -10.23073
 Alpha  occ. eigenvalues --  -10.22803 -10.22149 -10.21703 -10.21367 -10.21336
 Alpha  occ. eigenvalues --  -10.21261 -10.21078 -10.21011 -10.20744 -10.20697
 Alpha  occ. eigenvalues --  -10.20551 -10.20378 -10.20225 -10.20101 -10.20061
 Alpha  occ. eigenvalues --  -10.20000 -10.19959 -10.19953 -10.19915 -10.19899
 Alpha  occ. eigenvalues --  -10.19628 -10.19606 -10.19538 -10.19412 -10.19275
 Alpha  occ. eigenvalues --  -10.19264 -10.19183 -10.18936 -10.18923 -10.18883
 Alpha  occ. eigenvalues --  -10.18780 -10.18708 -10.18511 -10.18508 -10.18338
 Alpha  occ. eigenvalues --  -10.18331 -10.18092 -10.17914 -10.17880 -10.17710
 Alpha  occ. eigenvalues --  -10.17274 -10.16917 -10.16751 -10.16401  -1.11656
 Alpha  occ. eigenvalues --   -1.09089  -1.01382  -0.98050  -0.97328  -0.97173
 Alpha  occ. eigenvalues --   -0.96905  -0.94374  -0.92395  -0.84816  -0.83220
 Alpha  occ. eigenvalues --   -0.82501  -0.82044  -0.81869  -0.81783  -0.81048
 Alpha  occ. eigenvalues --   -0.80952  -0.80317  -0.79613  -0.79217  -0.78357
 Alpha  occ. eigenvalues --   -0.77467  -0.76403  -0.76286  -0.75725  -0.75206
 Alpha  occ. eigenvalues --   -0.73922  -0.73319  -0.72800  -0.72517  -0.71677
 Alpha  occ. eigenvalues --   -0.70600  -0.69515  -0.69308  -0.68993  -0.68578
 Alpha  occ. eigenvalues --   -0.68294  -0.67059  -0.66738  -0.66157  -0.65895
 Alpha  occ. eigenvalues --   -0.64344  -0.62969  -0.62570  -0.62337  -0.61475
 Alpha  occ. eigenvalues --   -0.61210  -0.59923  -0.59505  -0.57899  -0.57585
 Alpha  occ. eigenvalues --   -0.57235  -0.57168  -0.56555  -0.56052  -0.55877
 Alpha  occ. eigenvalues --   -0.55278  -0.55173  -0.54561  -0.54466  -0.53420
 Alpha  occ. eigenvalues --   -0.52685  -0.52208  -0.51806  -0.51307  -0.50325
 Alpha  occ. eigenvalues --   -0.50225  -0.49565  -0.49078  -0.49003  -0.48832
 Alpha  occ. eigenvalues --   -0.48709  -0.47957  -0.47695  -0.47408  -0.47171
 Alpha  occ. eigenvalues --   -0.46882  -0.46472  -0.46380  -0.46145  -0.45927
 Alpha  occ. eigenvalues --   -0.45695  -0.45497  -0.45102  -0.45010  -0.44865
 Alpha  occ. eigenvalues --   -0.44688  -0.44553  -0.44391  -0.44234  -0.43976
 Alpha  occ. eigenvalues --   -0.43865  -0.43553  -0.43339  -0.42870  -0.42752
 Alpha  occ. eigenvalues --   -0.42706  -0.42340  -0.42079  -0.41970  -0.41807
 Alpha  occ. eigenvalues --   -0.41746  -0.41584  -0.41367  -0.41141  -0.40750
 Alpha  occ. eigenvalues --   -0.40586  -0.40410  -0.40111  -0.40044  -0.39886
 Alpha  occ. eigenvalues --   -0.39827  -0.39370  -0.38779  -0.38674  -0.38602
 Alpha  occ. eigenvalues --   -0.38546  -0.38399  -0.38129  -0.37872  -0.37609
 Alpha  occ. eigenvalues --   -0.37367  -0.37079  -0.37034  -0.36898  -0.36770
 Alpha  occ. eigenvalues --   -0.36521  -0.36334  -0.36192  -0.36101  -0.35867
 Alpha  occ. eigenvalues --   -0.35693  -0.35449  -0.34943  -0.34892  -0.34820
 Alpha  occ. eigenvalues --   -0.34398  -0.34263  -0.33967  -0.33838  -0.33666
 Alpha  occ. eigenvalues --   -0.33295  -0.33228  -0.33162  -0.33055  -0.32627
 Alpha  occ. eigenvalues --   -0.32271  -0.31926  -0.31648  -0.31296  -0.31224
 Alpha  occ. eigenvalues --   -0.30891  -0.30591  -0.30384  -0.30011  -0.29435
 Alpha  occ. eigenvalues --   -0.29014  -0.28392  -0.28295  -0.28238  -0.27720
 Alpha  occ. eigenvalues --   -0.27561  -0.27239  -0.26679  -0.26329  -0.26192
 Alpha  occ. eigenvalues --   -0.25582  -0.24819  -0.23748  -0.22289  -0.19893
 Alpha  occ. eigenvalues --   -0.18759
 Alpha virt. eigenvalues --   -0.10467  -0.07869  -0.04986  -0.02824  -0.01483
 Alpha virt. eigenvalues --   -0.00997  -0.00594   0.00130   0.01351   0.03541
 Alpha virt. eigenvalues --    0.03834   0.04027   0.04336   0.04418   0.04804

 Mulliken charges:
               1
     1  C    0.026156
     2  C   -0.033081
     3  C   -0.090103
     4  C   -0.108067
     5  N   -0.172295
     6  C   -0.075633
     7  C    0.085999
     8  C   -0.113503
     9  C   -0.045537
    10  C    0.208660
    11  C    0.032958
    12  C   -0.000046
    13  C    0.189073
    14  O   -0.315456
    15  O   -0.236386
    16  N   -0.052046
    17  C    0.131122
    18  C   -0.126474
    19  C   -0.012644
    20  C    0.108776
    21  C    0.185106
    22  C    0.183998
    23  C   -0.027359
    24  N   -0.255172
    25  C    0.078939
    26  C   -0.135911
    27  C   -0.137295
    28  C    0.021037
    29  C    0.063052
    30  C    0.062186
    31  C    0.141790
    32  N   -0.083628
    33  C    0.084809
    34  C   -0.128218
    35  C    0.056246
    36  C    0.057819
    37  C    0.002409
    38  C    0.105374
    39  O   -0.190422
    40  C   -0.056804
    41  C    0.231439
    42  O   -0.288970
    43  O   -0.263491
    44  C    0.094291
    45  C    0.294517
    46  C   -0.102844
    47  C   -0.188063
    48  C    0.009181
    49  C    0.214482
    50  C   -0.008169
    51  C    0.051680
    52  C   -0.119178
    53  C    0.080691
    54  C    0.068532
    55  C    0.013777
    56  C    0.082174
    57  C   -0.101052
    58  C    0.059067
    59  C    0.068898
    60  C    0.011263
    61  C   -0.016195
    62  C   -0.008209
    63  C   -0.065999
    64  C    0.165129
    65  H   -0.037868
    66  H   -0.027629
    67  H    0.017199
    68  H   -0.076256
    69  H    0.017824
    70  H   -0.017266
    71  H    0.016686
    72  H   -0.005137
    73  H    0.038654
    74  H    0.032380
    75  H    0.023159
    76  H    0.038126
    77  H   -0.004459
    78  H   -0.040524
    79  H    0.025893
    80  H   -0.202544
    81  H    0.037331
    82  H    0.013717
    83  H    0.017575
    84  H    0.025934
    85  H    0.033137
    86  H    0.011120
    87  H   -0.020461
    88  H   -0.029533
    89  H    0.016350
    90  H   -0.018598
    91  H    0.042729
    92  H    0.058412
    93  H    0.069009
    94  H    0.103639
    95  H    0.059053
    96  H    0.024573
    97  H    0.023735
    98  H    0.028556
    99  H    0.044215
   100  H   -0.025250
   101  H    0.016237
   102  H    0.039385
   103  H    0.024134
   104  H    0.015863
   105  H   -0.064370
   106  H   -0.012489
   107  H   -0.033550
   108  H    0.003176
   109  H    0.007051
   110  H   -0.013069
   111  H    0.025309
   112  H   -0.004920
   113  H   -0.020374
   114  H   -0.007151
   115  H   -0.010932
   116  H    0.006908
   117  H   -0.028803
   118  H   -0.032949
   119  H   -0.018795
   120  H   -0.004517
   121  H   -0.021055
   122  H   -0.004624
   123  H   -0.008107
   124  H   -0.025127
   125  H    0.004403
   126  H    0.011149
   127  H    0.000705
   128  H   -0.010892
   129  H   -0.007513
   130  H   -0.033223
   131  H    0.015951
   132  H    0.016447
   133  H    0.019319
   134  H    0.015793
   135  H   -0.075465
   136  H   -0.049880
   137  H    0.070544
   138  H    0.169571
 Sum of Mulliken charges =  -0.00000

 Dipole moment (field-independent basis, Debye):
    X=              2.9079    Y=              5.0059    Z=             -0.5206  Tot=              5.8126
 Quadrupole moment (field-independent basis, Debye-Ang):
   XX=           -341.0779   YY=           -389.6558   ZZ=           -395.1433
   XY=            -20.7687   XZ=             13.0695   YZ=              6.3192

 Normal termination of Gaussian 16 at Mon Aug 12 01:34:41 2019.
