 Gaussian 16, Revision A.03,
 Gaussian 16:  ES64L-G16RevA.03 25-Dec-2016

 --------------------------
 # td=(NStates=1) B3LYP/SVP
 --------------------------

 --
 TD
 --
 Symbolic Z-matrix:
 Charge =  0 Multiplicity = 1

                         Standard orientation:
 ---------------------------------------------------------------------
 Center     Atomic      Atomic             Coordinates (Angstroms)
 Number     Number       Type             X           Y           Z
 ---------------------------------------------------------------------
      1          6           0       -4.990551   -1.965927    0.430991
      2          6           0       -4.781738    2.806712    1.402681
      3          6           0       -9.403716    3.337621   -0.277109
      4          6           0       -9.890405   -1.524577   -0.749951
      5          7           0       -5.175203    0.352626    0.722645
      6          6           0       -4.470431   -0.734839    0.722586
      7          6           0       -2.960432   -0.581704    1.139473
      8          6           0       -2.927073    0.924482    1.714738
      9          6           0       -4.408042    1.457772    1.297936
     10          6           0       -2.867985    0.907713    3.260017
     11          6           0       -2.049369   -0.632784   -0.026186
     12          6           0       -0.576583   -0.679431    0.410337
     13          6           0        0.376557   -1.014452   -0.722635
     14          8           0        0.124256   -1.571458   -1.761002
     15          8           0        1.591670   -0.598269   -0.336485
     16          7           0       -7.085253    2.656789    0.616629
     17          6           0       -6.078519    3.373071    1.024718
     18          6           0       -6.264110    4.815481    0.913327
     19          6           0       -7.618554    4.867350    0.601073
     20          6           0       -8.108395    3.607161    0.066136
     21          6           0       -5.247354    5.832432    1.354365
     22          6           0       -8.257962    6.210647    0.363992
     23          6           0       -9.144665    6.516427   -0.683449
     24          7           0       -9.336929    0.818533   -0.362261
     25          6           0       -9.958597    2.051181   -0.412014
     26          6           0      -11.334628    1.770885   -0.740632
     27          6           0      -11.467552    0.447662   -1.005865
     28          6           0      -10.203543   -0.227813   -0.681546
     29          6           0      -12.338611    2.854221   -0.984965
     30          6           0      -12.642058   -0.327606   -1.515073
     31          6           0      -12.414899   -0.534325   -3.074644
     32          7           0       -7.501044   -1.264260   -0.089177
     33          6           0       -8.649767   -2.020935   -0.446474
     34          6           0       -8.294146   -3.393519   -0.628541
     35          6           0       -6.847477   -3.408996   -0.262430
     36          6           0       -6.490151   -2.104527    0.055898
     37          6           0       -9.038509   -4.581374   -0.903133
     38          6           0       -5.709565   -4.325684   -0.072531
     39          8           0       -5.563808   -5.510239   -0.165719
     40          6           0       -4.460846   -3.380336    0.360754
     41          6           0       -3.816436   -3.757901    1.684774
     42          8           0       -4.095251   -3.326388    2.775636
     43          8           0       -3.010242   -4.850201    1.551655
     44          6           0       -2.550684   -5.441535    2.723638
     45          6           0        2.645713   -0.834386   -1.396085
     46          6           0        4.023987   -0.431377   -0.740434
     47          6           0        4.936436    0.401671   -1.115216
     48          6           0        4.976115    1.138276   -2.369958
     49          6           0        6.248859    0.484146   -0.417184
     50          6           0        7.479352   -0.217386   -1.091014
     51          6           0        8.766362   -0.098494   -0.238056
     52          6           0        9.968026   -0.816875   -0.755557
     53          6           0       10.039436   -2.321512   -1.106523
     54          6           0       11.341291   -0.414626    0.067002
     55          6           0       12.691044   -0.531326   -0.563257
     56          6           0       13.783973   -0.049193    0.249895
     57          6           0       15.198621   -0.224813   -0.349752
     58          6           0       15.635851   -1.763002   -0.618931
     59          6           0       16.206019    0.514242    0.570452
     60          6           0       17.608718    0.640197   -0.090301
     61          6           0       18.612594    1.544771    0.679540
     62          6           0       20.052730    1.531807    0.237920
     63          6           0       20.259123    2.344408   -1.133635
     64          6           0       21.118769    2.132932    1.330268
     65          1           0       -3.949363    3.454419    1.769892
     66          1           0       -9.936700    4.223511   -0.483649
     67          1           0      -10.868519   -1.995756   -0.907203
     68          1           0       -2.790303   -1.444575    2.086250
     69          1           0       -2.172538    1.677961    1.330532
     70          1           0       -2.015917    0.437616    3.724095
     71          1           0       -2.983066    1.902414    4.143279
     72          1           0       -3.518652    0.232360    3.769006
     73          1           0       -2.179519   -1.592295   -0.620594
     74          1           0       -2.208059    0.184319   -0.788992
     75          1           0       -0.237209    0.224141    1.053911
     76          1           0       -0.529700   -1.711029    1.034162
     77          1           0       -4.354884    5.810463    0.639833
     78          1           0       -5.756543    6.837134    1.261336
     79          1           0       -4.881901    5.815864    2.466069
     80          1           0       -8.093973    7.002412    1.248776
     81          1           0       -9.362714    5.892697   -1.594162
     82          1           0       -9.358888    7.437810   -0.552821
     83          1           0      -12.051542    3.500310   -0.031191
     84          1           0      -12.382066    3.409361   -1.937516
     85          1           0      -13.440549    2.293050   -1.050625
     86          1           0      -12.664196   -1.270554   -1.031327
     87          1           0      -13.551051    0.245491   -1.305381
     88          1           0      -12.360471    0.366805   -3.490607
     89          1           0      -11.518398   -0.997947   -3.269497
     90          1           0      -13.304559   -1.150623   -3.610514
     91          1           0       -9.999694   -4.603468   -0.417221
     92          1           0       -9.340193   -4.787049   -2.138908
     93          1           0       -8.663436   -5.485953   -0.448217
     94          1           0       -3.597164   -3.599990   -0.367703
     95          1           0       -1.870541   -6.206315    2.414814
     96          1           0       -2.136004   -4.761825    3.396921
     97          1           0       -3.280032   -5.881740    3.358996
     98          1           0        2.676602   -1.935565   -1.720402
     99          1           0        2.571280   -0.115306   -2.213207
    100          1           0        4.214408   -0.847361    0.253453
    101          1           0        5.124561    2.231997   -1.949428
    102          1           0        5.805208    0.886012   -3.060386
    103          1           0        3.989027    1.091705   -2.930637
    104          1           0        6.463212    1.602892   -0.609127
    105          1           0        6.167181    0.121924    0.637951
    106          1           0        7.247674   -1.075378   -1.395825
    107          1           0        7.680230    0.353687   -2.017785
    108          1           0        9.076414    0.905541   -0.213924
    109          1           0        8.602951   -0.684909    0.833723
    110          1           0        9.951579   -0.145598   -1.696159
    111          1           0        9.203204   -2.501232   -1.918678
    112          1           0       11.160905   -2.554467   -1.438561
    113          1           0        9.724093   -2.851315   -0.277758
    114          1           0       11.240411    0.696923    0.531270
    115          1           0       11.299362   -1.079325    1.011653
    116          1           0       12.800019   -1.661855   -0.734714
    117          1           0       12.705333   -0.078818   -1.471100
    118          1           0       13.689882    1.055934    0.367507
    119          1           0       13.741975   -0.607585    1.325988
    120          1           0       15.231952    0.016132   -1.485608
    121          1           0       15.035153   -2.358314   -1.516656
    122          1           0       16.590293   -1.865961   -1.076526
    123          1           0       15.630035   -2.349021    0.329259
    124          1           0       15.973840    1.572993    0.635675
    125          1           0       16.246335    0.033359    1.616362
    126          1           0       18.168254   -0.405860   -0.072157
    127          1           0       17.174811    0.988892   -1.080365
    128          1           0       18.010412    2.543085    0.561590
    129          1           0       18.420338    1.257855    1.792369
    130          1           0       20.347205    0.499836    0.117283
    131          1           0       20.316899    3.612591   -0.716181
    132          1           0       21.267874    2.119922   -1.671815
    133          1           0       19.523766    2.124238   -1.759932
    134          1           0       20.893191    1.493029    2.377333
    135          1           0       22.098636    1.883308    1.032826
    136          1           0       21.078400    3.079963    1.500445
    137          1           0       -7.154642    1.595025    0.336146
    138          1           0       -7.551223   -0.233414    0.450241
 ---------------------------------------------------------------------

 SCF Done:  E(RB3LYP) =  -2732.98130885     A.U. after   17 cycles

 Excitation energies and oscillator strengths:

 Excited State   1:      Singlet-A      2.0115 eV  616.37 nm  f=0.1874  <S**2>=0.000
     235 -> 237        0.24404
     235 -> 238       -0.22242
     236 -> 237        0.59647
     236 -> 238        0.18473
 This state for optimization and/or second-order correction.
 Total Energy, E(TD-HF/TD-DFT) =  -2732.90738708
 Copying the excited state density for this state as the 1-particle RhoCI density.

 The electronic state is 1-A.
 Alpha  occ. eigenvalues --  -19.17767 -19.17014 -19.12202 -19.12131 -19.12122
 Alpha  occ. eigenvalues --  -14.38075 -14.37852 -14.32243 -14.29736 -10.31066
 Alpha  occ. eigenvalues --  -10.30968 -10.28101 -10.25937 -10.24907 -10.24279
 Alpha  occ. eigenvalues --  -10.24167 -10.23757 -10.23524 -10.22795 -10.22349
 Alpha  occ. eigenvalues --  -10.22311 -10.22170 -10.22073 -10.22047 -10.21749
 Alpha  occ. eigenvalues --  -10.21548 -10.21513 -10.21408 -10.21275 -10.21177
 Alpha  occ. eigenvalues --  -10.20681 -10.20654 -10.20439 -10.20390 -10.20334
 Alpha  occ. eigenvalues --  -10.20249 -10.20219 -10.20197 -10.20010 -10.19996
 Alpha  occ. eigenvalues --  -10.19925 -10.19813 -10.19696 -10.19585 -10.19498
 Alpha  occ. eigenvalues --  -10.19478 -10.19370 -10.19360 -10.19313 -10.19298
 Alpha  occ. eigenvalues --  -10.19196 -10.19121 -10.18995 -10.18961 -10.18954
 Alpha  occ. eigenvalues --  -10.18943 -10.18789 -10.18140 -10.17867 -10.17829
 Alpha  occ. eigenvalues --  -10.17824 -10.17800 -10.17770 -10.17164  -1.09389
 Alpha  occ. eigenvalues --   -1.08705  -1.03374  -1.00463  -1.00110  -0.98029
 Alpha  occ. eigenvalues --   -0.97892  -0.92776  -0.92406  -0.83637  -0.83218
 Alpha  occ. eigenvalues --   -0.82248  -0.81985  -0.81563  -0.80697  -0.80492
 Alpha  occ. eigenvalues --   -0.80256  -0.79265  -0.79209  -0.78989  -0.77030
 Alpha  occ. eigenvalues --   -0.76765  -0.75971  -0.75542  -0.74891  -0.74165
 Alpha  occ. eigenvalues --   -0.73791  -0.72831  -0.72141  -0.71596  -0.70847
 Alpha  occ. eigenvalues --   -0.69636  -0.69285  -0.68341  -0.67995  -0.67336
 Alpha  occ. eigenvalues --   -0.67059  -0.66546  -0.66213  -0.65826  -0.65387
 Alpha  occ. eigenvalues --   -0.63630  -0.62625  -0.62498  -0.61903  -0.61791
 Alpha  occ. eigenvalues --   -0.60448  -0.59468  -0.58453  -0.57472  -0.57174
 Alpha  occ. eigenvalues --   -0.56647  -0.56525  -0.55680  -0.54951  -0.54824
 Alpha  occ. eigenvalues --   -0.54607  -0.54580  -0.53682  -0.53060  -0.52586
 Alpha  occ. eigenvalues --   -0.51758  -0.51602  -0.51245  -0.50504  -0.49619
 Alpha  occ. eigenvalues --   -0.49396  -0.49265  -0.48756  -0.48642  -0.48431
 Alpha  occ. eigenvalues --   -0.47730  -0.47413  -0.47397  -0.47245  -0.46866
 Alpha  occ. eigenvalues --   -0.46692  -0.46056  -0.45947  -0.45846  -0.45511
 Alpha  occ. eigenvalues --   -0.45189  -0.45082  -0.44976  -0.44877  -0.44768
 Alpha  occ. eigenvalues --   -0.44375  -0.44120  -0.43927  -0.43622  -0.43495
 Alpha  occ. eigenvalues --   -0.43285  -0.43126  -0.43065  -0.42834  -0.42558
 Alpha  occ. eigenvalues --   -0.42427  -0.42195  -0.42020  -0.41953  -0.41529
 Alpha  occ. eigenvalues --   -0.41457  -0.41360  -0.41012  -0.40868  -0.40202
 Alpha  occ. eigenvalues --   -0.40105  -0.39967  -0.39774  -0.39559  -0.39400
 Alpha  occ. eigenvalues --   -0.39099  -0.39030  -0.38682  -0.38534  -0.38446
 Alpha  occ. eigenvalues --   -0.38319  -0.37800  -0.37652  -0.37521  -0.37347
 Alpha  occ. eigenvalues --   -0.37200  -0.37112  -0.36962  -0.36911  -0.36484
 Alpha  occ. eigenvalues --   -0.36413  -0.36323  -0.36213  -0.36084  -0.35603
 Alpha  occ. eigenvalues --   -0.35452  -0.35338  -0.35149  -0.35023  -0.34755
 Alpha  occ. eigenvalues --   -0.34671  -0.34652  -0.34340  -0.33831  -0.33653
 Alpha  occ. eigenvalues --   -0.33297  -0.33012  -0.32729  -0.32718  -0.32531
 Alpha  occ. eigenvalues --   -0.32302  -0.31719  -0.31442  -0.31079  -0.30936
 Alpha  occ. eigenvalues --   -0.30883  -0.30639  -0.30568  -0.30234  -0.29699
 Alpha  occ. eigenvalues --   -0.29664  -0.29424  -0.28165  -0.28103  -0.27999
 Alpha  occ. eigenvalues --   -0.27652  -0.26676  -0.26188  -0.25625  -0.25246
 Alpha  occ. eigenvalues --   -0.24962  -0.24836  -0.24398  -0.22029  -0.20315
 Alpha  occ. eigenvalues --   -0.18983
 Alpha virt. eigenvalues --   -0.11065  -0.07835  -0.03852  -0.03020  -0.01001
 Alpha virt. eigenvalues --    0.00084   0.00623   0.00949   0.02210   0.03491
 Alpha virt. eigenvalues --    0.03602   0.03866   0.04121   0.04183   0.04274

 Mulliken charges:
               1
     1  C    0.077432
     2  C   -0.072685
     3  C   -0.049456
     4  C   -0.056670
     5  N   -0.201753
     6  C   -0.076935
     7  C   -0.125643
     8  C   -0.031926
     9  C    0.033415
    10  C    0.007523
    11  C    0.051010
    12  C   -0.019869
    13  C    0.175869
    14  O   -0.230465
    15  O   -0.325029
    16  N   -0.117745
    17  C    0.113911
    18  C   -0.135097
    19  C   -0.010481
    20  C    0.083200
    21  C    0.056692
    22  C   -0.125086
    23  C    0.046984
    24  N   -0.285101
    25  C    0.106130
    26  C   -0.117747
    27  C   -0.092502
    28  C   -0.007333
    29  C   -0.006699
    30  C    0.098376
    31  C    0.062510
    32  N   -0.085078
    33  C    0.171618
    34  C   -0.081537
    35  C   -0.053289
    36  C    0.014298
    37  C    0.055060
    38  C    0.090078
    39  O   -0.140963
    40  C   -0.061924
    41  C    0.172862
    42  O   -0.227437
    43  O   -0.292556
    44  C    0.247788
    45  C    0.290332
    46  C   -0.111545
    47  C   -0.122662
    48  C    0.014666
    49  C    0.049889
    50  C    0.114274
    51  C    0.045862
    52  C   -0.101915
    53  C    0.047000
    54  C   -0.063011
    55  C    0.122222
    56  C    0.028958
    57  C   -0.126232
    58  C   -0.030477
    59  C    0.048549
    60  C   -0.062325
    61  C    0.010860
    62  C   -0.054308
    63  C   -0.003241
    64  C    0.061390
    65  H   -0.009578
    66  H   -0.037607
    67  H   -0.022140
    68  H    0.080974
    69  H    0.025609
    70  H   -0.006977
    71  H    0.017355
    72  H    0.004673
    73  H    0.024608
    74  H    0.022044
    75  H    0.052511
    76  H    0.048661
    77  H    0.049143
    78  H    0.018298
    79  H    0.056148
    80  H    0.051013
    81  H    0.060611
    82  H   -0.024377
    83  H    0.051143
    84  H    0.037452
    85  H    0.022441
    86  H   -0.007287
    87  H   -0.006756
    88  H   -0.024028
    89  H   -0.007987
    90  H    0.021337
    91  H    0.003075
    92  H    0.054703
    93  H    0.031705
    94  H    0.063000
    95  H    0.018640
    96  H   -0.007566
    97  H    0.000649
    98  H    0.060145
    99  H    0.014821
   100  H   -0.022480
   101  H    0.030245
   102  H    0.045316
   103  H    0.012814
   104  H   -0.009019
   105  H    0.009078
   106  H   -0.073506
   107  H   -0.017475
   108  H   -0.009900
   109  H   -0.002752
   110  H   -0.025868
   111  H    0.023098
   112  H    0.046481
   113  H   -0.008453
   114  H   -0.006406
   115  H   -0.003376
   116  H    0.002143
   117  H   -0.042135
   118  H   -0.004831
   119  H    0.009084
   120  H    0.009564
   121  H    0.019498
   122  H    0.003625
   123  H    0.012240
   124  H   -0.009703
   125  H    0.012528
   126  H    0.012000
   127  H    0.016400
   128  H   -0.003915
   129  H    0.006859
   130  H   -0.007214
   131  H    0.027627
   132  H    0.026980
   133  H   -0.011775
   134  H    0.012813
   135  H   -0.000588
   136  H   -0.026786
   137  H    0.195081
   138  H    0.224215
 Sum of Mulliken charges =  -0.00000

 Dipole moment (field-independent basis, Debye):
    X=              1.6938    Y=              5.1739    Z=             -0.1015  Tot=              5.4451
 Quadrupole moment (field-independent basis, Debye-Ang):
   XX=           -345.0678   YY=           -380.9753   ZZ=           -396.4745
   XY=            -27.4343   XZ=             -0.2330   YZ=             -4.5324

 Normal termination of Gaussian 16 at Fri Aug 30 03:36:59 2019.
