 Gaussian 16, Revision A.03,
 Gaussian 16:  ES64L-G16RevA.03 25-Dec-2016

 --------------------------
 # td=(NStates=1) B3LYP/SVP
 --------------------------

 --
 TD
 --
 Symbolic Z-matrix:
 Charge =  0 Multiplicity = 1

                         Standard orientation:
 ---------------------------------------------------------------------
 Center     Atomic      Atomic             Coordinates (Angstroms)
 Number     Number       Type             X           Y           Z
 ---------------------------------------------------------------------
      1          6           0       -5.171243   -1.903794    0.515293
      2          6           0       -4.865295    2.810581    1.336699
      3          6           0       -9.398643    3.202255   -0.344555
      4          6           0       -9.860408   -1.638977   -0.763027
      5          7           0       -5.151661    0.416237    0.786042
      6          6           0       -4.499731   -0.665515    0.738799
      7          6           0       -3.067312   -0.476222    1.310787
      8          6           0       -3.102213    0.993521    1.878862
      9          6           0       -4.373292    1.524565    1.238582
     10          6           0       -3.116142    1.007921    3.400369
     11          6           0       -1.977390   -0.686200    0.152704
     12          6           0       -0.508948   -0.691450    0.580973
     13          6           0        0.412168   -0.894794   -0.584900
     14          8           0        0.127514   -1.376723   -1.578013
     15          8           0        1.764419   -0.505555   -0.161543
     16          7           0       -7.054136    2.790795    0.415942
     17          6           0       -6.076840    3.395711    0.968609
     18          6           0       -6.390463    4.819491    0.996669
     19          6           0       -7.670144    4.955757    0.521849
     20          6           0       -8.127825    3.639670    0.193312
     21          6           0       -5.466038    5.763780    1.494121
     22          6           0       -8.415590    6.239197    0.304861
     23          6           0       -9.461810    6.610460   -0.618880
     24          7           0       -9.297605    0.814700   -0.432508
     25          6           0       -9.981279    1.996654   -0.480044
     26          6           0      -11.313452    1.728406   -0.836452
     27          6           0      -11.516339    0.358837   -0.996882
     28          6           0      -10.109577   -0.196800   -0.768583
     29          6           0      -12.375951    2.898420   -1.109583
     30          6           0      -12.646791   -0.392020   -1.625838
     31          6           0      -12.521332   -0.725003   -3.185271
     32          7           0       -7.500723   -1.277278   -0.203944
     33          6           0       -8.602894   -2.142230   -0.556356
     34          6           0       -8.178339   -3.401653   -0.526004
     35          6           0       -6.829826   -3.377392   -0.187124
     36          6           0       -6.388604   -2.073844   -0.007894
     37          6           0       -8.927690   -4.659296   -0.944533
     38          6           0       -5.649351   -4.224211   -0.022790
     39          8           0       -5.546453   -5.451689   -0.103716
     40          6           0       -4.488875   -3.273429    0.553080
     41          6           0       -3.914040   -3.804259    1.781370
     42          8           0       -4.264394   -3.415697    2.890708
     43          8           0       -3.217193   -4.830177    1.524666
     44          6           0       -2.445678   -5.492305    2.628868
     45          6           0        2.677617   -0.833999   -1.167716
     46          6           0        3.999858   -0.389843   -0.614411
     47          6           0        5.029915    0.167185   -1.236183
     48          6           0        4.966056    0.604756   -2.804464
     49          6           0        6.331200    0.551706   -0.574479
     50          6           0        7.601827   -0.334165   -1.108240
     51          6           0        8.953065   -0.035338   -0.409431
     52          6           0       10.234023   -0.813080   -0.904330
     53          6           0       10.017873   -2.276155   -0.715675
     54          6           0       11.457482   -0.185865   -0.165658
     55          6           0       12.793338   -0.737713   -0.671163
     56          6           0       13.897913   -0.176677    0.133058
     57          6           0       15.292260   -0.242340   -0.339161
     58          6           0       15.630530   -1.786724   -0.392113
     59          6           0       16.204848    0.550956    0.503576
     60          6           0       17.631206    0.751411   -0.188361
     61          6           0       18.634743    1.536217    0.794838
     62          6           0       20.099492    1.647701    0.235198
     63          6           0       20.283407    2.232323   -1.183048
     64          6           0       20.999969    2.386244    1.299140
     65          1           0       -3.952401    3.511286    1.652917
     66          1           0      -10.200706    4.065390   -0.307755
     67          1           0      -10.618861   -2.250347   -0.996162
     68          1           0       -2.832363   -1.228017    2.101035
     69          1           0       -2.169992    1.482004    1.617581
     70          1           0       -2.133970    0.556652    3.728696
     71          1           0       -3.129984    2.027138    3.772415
     72          1           0       -4.073734    0.388848    3.615351
     73          1           0       -2.352829   -1.747636   -0.421787
     74          1           0       -2.137114    0.012503   -0.706965
     75          1           0       -0.242768    0.209086    1.332978
     76          1           0       -0.324434   -1.794967    1.365728
     77          1           0       -4.507064    5.677424    0.756175
     78          1           0       -5.707942    6.851229    1.486536
     79          1           0       -5.247336    5.700708    2.405264
     80          1           0       -7.945001    7.040820    1.004387
     81          1           0       -9.627305    5.884984   -1.424762
     82          1           0       -9.576367    7.743158   -0.609582
     83          1           0      -12.371803    3.572653   -0.209130
     84          1           0      -11.868632    3.371519   -1.984912
     85          1           0      -13.343924    2.564121   -1.370881
     86          1           0      -12.569490   -1.358365   -1.089118
     87          1           0      -13.544705    0.129258   -1.509556
     88          1           0      -12.767920    0.244929   -3.666762
     89          1           0      -11.527936   -1.073544   -3.435192
     90          1           0      -13.444705   -1.451743   -3.446587
     91          1           0       -9.823111   -5.052926   -0.145433
     92          1           0       -9.508849   -4.535689   -1.861573
     93          1           0       -8.062258   -5.468134   -1.548941
     94          1           0       -3.726829   -3.392506   -0.399748
     95          1           0       -1.437692   -5.982466    2.212620
     96          1           0       -2.304076   -4.523972    3.405313
     97          1           0       -3.192503   -6.388688    3.124140
     98          1           0        2.475547   -1.709721   -1.475102
     99          1           0        2.386152   -0.041641   -1.987560
    100          1           0        4.219811   -0.853594    0.558323
    101          1           0        5.110001    1.705087   -2.910734
    102          1           0        5.719053   -0.011455   -3.250123
    103          1           0        3.980382    0.306953   -3.397056
    104          1           0        6.489877    1.529976   -0.697892
    105          1           0        6.157334    0.324937    0.383930
    106          1           0        7.147226   -1.471831   -0.894603
    107          1           0        7.720988   -0.094283   -2.082403
    108          1           0        9.134372    1.201402   -0.376569
    109          1           0        8.766764   -0.163619    0.590479
    110          1           0       10.576176   -0.516005   -1.889312
    111          1           0        9.091757   -2.800626   -1.223647
    112          1           0       10.894394   -2.729701   -1.410580
    113          1           0       10.070147   -2.718455    0.336524
    114          1           0       11.340695    0.908569   -0.222677
    115          1           0       11.332681   -0.360355    1.080821
    116          1           0       12.681993   -1.911349   -0.571488
    117          1           0       12.912087   -0.342964   -1.730428
    118          1           0       13.643559    1.011754    0.241990
    119          1           0       14.040640   -0.445794    1.152426
    120          1           0       15.312275   -0.013455   -1.356905
    121          1           0       14.921891   -2.530374   -0.621875
    122          1           0       16.496452   -1.805831   -1.069263
    123          1           0       16.217431   -2.025647    0.675119
    124          1           0       15.743258    1.707870    0.769817
    125          1           0       16.127224   -0.070090    1.435280
    126          1           0       18.088696   -0.265621   -0.404296
    127          1           0       17.552636    1.118783   -1.208049
    128          1           0       18.438837    2.619299    0.931942
    129          1           0       18.491846    1.091702    1.871673
    130          1           0       20.483714    0.605867    0.288664
    131          1           0       20.083906    3.325238   -1.124317
    132          1           0       21.303455    2.220169   -1.535342
    133          1           0       19.649584    1.595869   -1.944231
    134          1           0       21.243893    1.751568    2.273290
    135          1           0       22.203605    2.481200    0.846179
    136          1           0       20.653863    3.328038    1.645608
    137          1           0       -7.176880    1.833900    0.299544
    138          1           0       -7.591625   -0.197514   -0.149790
 ---------------------------------------------------------------------

 SCF Done:  E(RB3LYP) =  -2732.95956269     A.U. after   17 cycles

 Excitation energies and oscillator strengths:

 Excited State   1:      Singlet-A      2.0668 eV  599.89 nm  f=0.1657  <S**2>=0.000
     235 -> 237       -0.22552
     235 -> 238       -0.28519
     236 -> 237        0.58937
     236 -> 238       -0.12707
 This state for optimization and/or second-order correction.
 Total Energy, E(TD-HF/TD-DFT) =  -2732.88360938
 Copying the excited state density for this state as the 1-particle RhoCI density.

 The electronic state is 1-A.
 Alpha  occ. eigenvalues --  -19.18441 -19.15617 -19.15072 -19.12033 -19.10887
 Alpha  occ. eigenvalues --  -14.37726 -14.35611 -14.32014 -14.29841 -10.31898
 Alpha  occ. eigenvalues --  -10.30724 -10.28848 -10.27850 -10.23942 -10.23826
 Alpha  occ. eigenvalues --  -10.23666 -10.23230 -10.22915 -10.22889 -10.22714
 Alpha  occ. eigenvalues --  -10.22590 -10.22503 -10.22321 -10.22131 -10.21613
 Alpha  occ. eigenvalues --  -10.21497 -10.21130 -10.20965 -10.20947 -10.20724
 Alpha  occ. eigenvalues --  -10.20651 -10.20640 -10.20581 -10.20192 -10.20143
 Alpha  occ. eigenvalues --  -10.20034 -10.19951 -10.19915 -10.19863 -10.19809
 Alpha  occ. eigenvalues --  -10.19771 -10.19728 -10.19642 -10.19618 -10.19567
 Alpha  occ. eigenvalues --  -10.19523 -10.19499 -10.19478 -10.19472 -10.19456
 Alpha  occ. eigenvalues --  -10.19453 -10.19426 -10.19365 -10.19211 -10.19074
 Alpha  occ. eigenvalues --  -10.18966 -10.18921 -10.18804 -10.18561 -10.18523
 Alpha  occ. eigenvalues --  -10.18429 -10.17558 -10.17438 -10.17363  -1.11135
 Alpha  occ. eigenvalues --   -1.11038  -1.02390  -1.01467  -1.01286  -0.99363
 Alpha  occ. eigenvalues --   -0.97075  -0.94988  -0.93604  -0.85094  -0.83000
 Alpha  occ. eigenvalues --   -0.82994  -0.81388  -0.81358  -0.80630  -0.80395
 Alpha  occ. eigenvalues --   -0.80168  -0.79337  -0.78922  -0.78351  -0.77605
 Alpha  occ. eigenvalues --   -0.76172  -0.75945  -0.75474  -0.74167  -0.73865
 Alpha  occ. eigenvalues --   -0.73628  -0.72584  -0.72078  -0.71621  -0.70788
 Alpha  occ. eigenvalues --   -0.69233  -0.68640  -0.68223  -0.67504  -0.67219
 Alpha  occ. eigenvalues --   -0.66911  -0.66549  -0.66334  -0.65742  -0.64875
 Alpha  occ. eigenvalues --   -0.64607  -0.63083  -0.62092  -0.61864  -0.61114
 Alpha  occ. eigenvalues --   -0.60838  -0.59143  -0.58963  -0.58442  -0.57871
 Alpha  occ. eigenvalues --   -0.57079  -0.57005  -0.55863  -0.55789  -0.54920
 Alpha  occ. eigenvalues --   -0.54686  -0.54465  -0.54244  -0.53571  -0.53086
 Alpha  occ. eigenvalues --   -0.52653  -0.52068  -0.51438  -0.50755  -0.49940
 Alpha  occ. eigenvalues --   -0.49820  -0.49227  -0.49039  -0.48638  -0.48035
 Alpha  occ. eigenvalues --   -0.47857  -0.47720  -0.47538  -0.47187  -0.46975
 Alpha  occ. eigenvalues --   -0.46614  -0.46393  -0.46316  -0.46020  -0.45658
 Alpha  occ. eigenvalues --   -0.45530  -0.45346  -0.45241  -0.45091  -0.44824
 Alpha  occ. eigenvalues --   -0.44314  -0.44025  -0.43760  -0.43684  -0.43338
 Alpha  occ. eigenvalues --   -0.42941  -0.42756  -0.42563  -0.42261  -0.42155
 Alpha  occ. eigenvalues --   -0.41867  -0.41809  -0.41717  -0.41481  -0.41356
 Alpha  occ. eigenvalues --   -0.41193  -0.40972  -0.40482  -0.40370  -0.40255
 Alpha  occ. eigenvalues --   -0.40141  -0.40087  -0.39799  -0.39649  -0.39352
 Alpha  occ. eigenvalues --   -0.39198  -0.39094  -0.38826  -0.38428  -0.38252
 Alpha  occ. eigenvalues --   -0.38146  -0.37884  -0.37480  -0.37412  -0.37384
 Alpha  occ. eigenvalues --   -0.37058  -0.37007  -0.36838  -0.36464  -0.36255
 Alpha  occ. eigenvalues --   -0.36194  -0.36181  -0.35957  -0.35748  -0.35549
 Alpha  occ. eigenvalues --   -0.35442  -0.35339  -0.34984  -0.34965  -0.34553
 Alpha  occ. eigenvalues --   -0.34382  -0.34243  -0.34114  -0.33867  -0.33804
 Alpha  occ. eigenvalues --   -0.33563  -0.33087  -0.32621  -0.32570  -0.32514
 Alpha  occ. eigenvalues --   -0.32263  -0.31684  -0.31415  -0.31335  -0.31056
 Alpha  occ. eigenvalues --   -0.30949  -0.30810  -0.30514  -0.30283  -0.30186
 Alpha  occ. eigenvalues --   -0.29756  -0.29143  -0.28741  -0.28314  -0.28287
 Alpha  occ. eigenvalues --   -0.27367  -0.26820  -0.26413  -0.25953  -0.25789
 Alpha  occ. eigenvalues --   -0.24920  -0.24444  -0.23918  -0.22362  -0.20056
 Alpha  occ. eigenvalues --   -0.19404
 Alpha virt. eigenvalues --   -0.10749  -0.08088  -0.04711  -0.02853  -0.01980
 Alpha virt. eigenvalues --   -0.00728   0.00793   0.01244   0.02435   0.03202
 Alpha virt. eigenvalues --    0.03400   0.04075   0.04134   0.04314   0.04451

 Mulliken charges:
               1
     1  C    0.032777
     2  C   -0.077131
     3  C   -0.089823
     4  C   -0.034864
     5  N   -0.162620
     6  C   -0.064694
     7  C   -0.047432
     8  C   -0.004657
     9  C   -0.040776
    10  C    0.055116
    11  C   -0.035653
    12  C   -0.064438
    13  C    0.194512
    14  O   -0.131753
    15  O   -0.390590
    16  N    0.087118
    17  C    0.065674
    18  C   -0.124591
    19  C    0.037068
    20  C   -0.002799
    21  C    0.147480
    22  C   -0.098300
    23  C   -0.027813
    24  N   -0.239373
    25  C    0.066692
    26  C   -0.135744
    27  C   -0.126712
    28  C    0.023385
    29  C    0.100207
    30  C    0.073533
    31  C   -0.017934
    32  N   -0.162144
    33  C    0.182439
    34  C   -0.110501
    35  C    0.018141
    36  C    0.111061
    37  C   -0.016793
    38  C    0.043290
    39  O   -0.181272
    40  C   -0.100134
    41  C    0.194244
    42  O   -0.259475
    43  O   -0.242062
    44  C    0.047097
    45  C    0.343087
    46  C   -0.115653
    47  C   -0.179194
    48  C    0.018037
    49  C    0.207409
    50  C   -0.011747
    51  C    0.023454
    52  C    0.012058
    53  C   -0.032895
    54  C   -0.088510
    55  C    0.096241
    56  C    0.004792
    57  C   -0.012026
    58  C   -0.008825
    59  C   -0.028720
    60  C    0.026272
    61  C    0.010280
    62  C   -0.078900
    63  C    0.030993
    64  C   -0.059327
    65  H    0.013314
    66  H    0.017592
    67  H   -0.084190
    68  H    0.015524
    69  H   -0.021351
    70  H    0.019988
    71  H    0.008113
    72  H    0.051373
    73  H    0.040229
    74  H    0.017161
    75  H    0.066320
    76  H    0.061871
    77  H    0.042234
    78  H    0.001506
    79  H   -0.034157
    80  H    0.019449
    81  H    0.046471
    82  H    0.052568
    83  H    0.040920
    84  H    0.030947
    85  H   -0.000229
    86  H    0.009689
    87  H   -0.013613
    88  H    0.015244
    89  H    0.026657
    90  H    0.032130
    91  H    0.065438
    92  H    0.018423
    93  H    0.071663
    94  H    0.079821
    95  H    0.080695
    96  H    0.086782
    97  H    0.087516
    98  H   -0.044886
    99  H    0.012694
   100  H    0.018095
   101  H    0.034337
   102  H    0.021806
   103  H    0.023341
   104  H   -0.032061
   105  H   -0.050216
   106  H    0.031370
   107  H   -0.019819
   108  H   -0.005457
   109  H   -0.034974
   110  H   -0.015135
   111  H    0.031286
   112  H    0.017905
   113  H    0.030992
   114  H   -0.000229
   115  H   -0.001727
   116  H    0.027099
   117  H    0.002094
   118  H   -0.015294
   119  H   -0.033509
   120  H   -0.046678
   121  H    0.019064
   122  H    0.001616
   123  H    0.003096
   124  H    0.022272
   125  H    0.008720
   126  H   -0.003039
   127  H    0.002433
   128  H   -0.006229
   129  H    0.017734
   130  H   -0.004250
   131  H    0.010206
   132  H    0.004364
   133  H    0.031089
   134  H    0.022361
   135  H    0.015889
   136  H    0.011521
   137  H    0.100650
   138  H    0.178790
 Sum of Mulliken charges =  -0.00000

 Dipole moment (field-independent basis, Debye):
    X=              2.5852    Y=              3.6324    Z=             -0.7326  Tot=              4.5182
 Quadrupole moment (field-independent basis, Debye-Ang):
   XX=           -367.9830   YY=           -381.8480   ZZ=           -395.9409
   XY=            -23.3243   XZ=              7.2048   YZ=              1.2014

 Normal termination of Gaussian 16 at Wed Aug 14 18:14:30 2019.
