 Gaussian 16, Revision A.03,
 Gaussian 16:  ES64L-G16RevA.03 25-Dec-2016

 --------------------------
 # td=(NStates=1) B3LYP/SVP
 --------------------------

 --
 TD
 --
 Symbolic Z-matrix:
 Charge =  0 Multiplicity = 1

                         Standard orientation:
 ---------------------------------------------------------------------
 Center     Atomic      Atomic             Coordinates (Angstroms)
 Number     Number       Type             X           Y           Z
 ---------------------------------------------------------------------
      1          6           0       -5.127061   -1.888166    0.593331
      2          6           0       -4.634349    2.835853    1.326756
      3          6           0       -9.310941    3.367570   -0.277496
      4          6           0       -9.770864   -1.405117   -0.911869
      5          7           0       -5.193241    0.541659    0.944440
      6          6           0       -4.587311   -0.736069    0.949378
      7          6           0       -3.058829   -0.595814    1.254430
      8          6           0       -3.137723    0.810406    1.864448
      9          6           0       -4.355058    1.474127    1.317877
     10          6           0       -3.072328    0.931649    3.385100
     11          6           0       -2.093799   -0.674592    0.078200
     12          6           0       -0.675505   -0.854001    0.539144
     13          6           0        0.344166   -1.138183   -0.590235
     14          8           0        0.043071   -1.786807   -1.650507
     15          8           0        1.624345   -0.949592   -0.206199
     16          7           0       -7.012893    2.802101    0.449242
     17          6           0       -5.929639    3.464309    1.042317
     18          6           0       -6.260117    4.806206    1.079885
     19          6           0       -7.476903    5.000205    0.556870
     20          6           0       -8.052723    3.675467    0.187311
     21          6           0       -5.283294    5.880024    1.519544
     22          6           0       -8.086258    6.321408    0.299095
     23          6           0       -8.999047    6.732911   -0.579581
     24          7           0       -9.209937    0.914899   -0.468847
     25          6           0       -9.863207    2.059887   -0.541336
     26          6           0      -11.288499    1.900650   -1.040207
     27          6           0      -11.367231    0.528784   -1.286041
     28          6           0      -10.096380   -0.097124   -0.975044
     29          6           0      -12.326708    2.949015   -1.309570
     30          6           0      -12.547972   -0.217309   -1.723086
     31          6           0      -12.588221   -0.626245   -3.198710
     32          7           0       -7.540066   -1.206000   -0.214398
     33          6           0       -8.565811   -2.009819   -0.677439
     34          6           0       -8.135286   -3.396471   -0.701548
     35          6           0       -6.861751   -3.388126   -0.119972
     36          6           0       -6.523846   -2.008151    0.139412
     37          6           0       -9.020321   -4.442290   -0.994374
     38          6           0       -5.723329   -4.282653    0.038366
     39          8           0       -5.681280   -5.495347    0.037456
     40          6           0       -4.550475   -3.234770    0.587318
     41          6           0       -3.925196   -3.701434    1.779552
     42          8           0       -4.167470   -3.132462    2.924334
     43          8           0       -3.108349   -4.729414    1.679850
     44          6           0       -2.670893   -5.395691    2.844146
     45          6           0        2.687672   -1.302774   -1.088324
     46          6           0        3.968674   -0.982637   -0.606150
     47          6           0        4.905180   -0.221552   -1.249444
     48          6           0        4.845694    0.298931   -2.657291
     49          6           0        6.227820    0.066617   -0.453591
     50          6           0        7.559205   -0.496238   -0.956593
     51          6           0        8.727459   -0.131016   -0.133522
     52          6           0       10.062396   -0.832828   -0.716362
     53          6           0       10.053069   -2.305887   -0.825338
     54          6           0       11.295866   -0.246407    0.051512
     55          6           0       12.643575   -0.514670   -0.726961
     56          6           0       13.831854   -0.018638    0.157906
     57          6           0       15.232975   -0.114721   -0.508592
     58          6           0       15.624270   -1.581980   -0.625070
     59          6           0       16.330124    0.643673    0.375028
     60          6           0       17.697824    0.788527   -0.225925
     61          6           0       18.618123    1.684566    0.723843
     62          6           0       20.083597    1.827949    0.198532
     63          6           0       20.294386    2.204494   -1.360157
     64          6           0       20.937340    2.615723    1.157586
     65          1           0       -3.959494    3.710611    1.797116
     66          1           0      -10.038927    4.224014   -0.290824
     67          1           0      -10.632615   -2.062119   -1.163515
     68          1           0       -2.638272   -1.241759    1.945776
     69          1           0       -2.217791    1.220420    1.534843
     70          1           0       -2.131139    0.236887    3.683192
     71          1           0       -3.051749    1.973575    3.651774
     72          1           0       -3.917582    0.426983    3.878476
     73          1           0       -2.521249   -1.716264   -0.184266
     74          1           0       -2.221909    0.168650   -0.563352
     75          1           0       -0.448696    0.139755    0.966133
     76          1           0       -0.606748   -1.668353    1.165656
     77          1           0       -4.556119    5.830123    0.789699
     78          1           0       -5.719264    6.927520    1.458636
     79          1           0       -4.833931    5.618561    2.545073
     80          1           0       -7.486217    7.156258    0.981425
     81          1           0       -9.444492    6.304631   -1.365679
     82          1           0       -8.984936    7.963134   -0.785605
     83          1           0      -12.806725    3.316117   -0.190339
     84          1           0      -11.778514    3.561294   -1.887347
     85          1           0      -13.242528    2.624396   -1.750071
     86          1           0      -12.687529   -1.163652   -1.145946
     87          1           0      -13.477565    0.248426   -1.568429
     88          1           0      -12.223636    0.331319   -3.952187
     89          1           0      -11.950580   -1.460350   -3.325476
     90          1           0      -13.652641   -0.938328   -3.587147
     91          1           0       -9.718210   -4.575564   -0.185817
     92          1           0       -9.395763   -4.388653   -2.009068
     93          1           0       -8.354669   -5.318797   -1.093970
     94          1           0       -3.551167   -3.195007   -0.119988
     95          1           0       -2.186014   -6.209425    2.414771
     96          1           0       -2.057689   -4.850401    3.324441
     97          1           0       -3.448129   -5.675841    3.498567
     98          1           0        2.540657   -2.455946   -1.186164
     99          1           0        2.773075   -0.816160   -2.225919
    100          1           0        4.148205   -1.503097    0.516379
    101          1           0        4.853409    1.464639   -2.668831
    102          1           0        5.799990   -0.049216   -3.278696
    103          1           0        3.785143   -0.201857   -2.994957
    104          1           0        6.383068    1.257737   -0.229534
    105          1           0        6.097073   -0.114880    0.590114
    106          1           0        7.310154   -1.610763   -1.051742
    107          1           0        7.701090   -0.130372   -2.093924
    108          1           0        8.777006    0.891421   -0.068794
    109          1           0        8.764178   -0.236908    0.959064
    110          1           0       10.052834   -0.352541   -1.760085
    111          1           0        9.290765   -2.878100   -1.351468
    112          1           0       10.930690   -2.814748   -1.333311
    113          1           0        9.991174   -2.536466    0.253744
    114          1           0       11.094986    0.828287    0.089743
    115          1           0       11.233391   -0.697539    1.163170
    116          1           0       12.799618   -1.625654   -0.709963
    117          1           0       12.684975   -0.034839   -1.587379
    118          1           0       13.738159    0.955744    0.646193
    119          1           0       14.019514   -0.771023    1.130718
    120          1           0       15.306740    0.441321   -1.411436
    121          1           0       14.838157   -2.026774   -1.418612
    122          1           0       16.669886   -1.632109   -0.967216
    123          1           0       15.521822   -2.245965    0.480876
    124          1           0       15.794100    1.505631    0.627182
    125          1           0       16.495782    0.137641    1.340428
    126          1           0       18.278752   -0.260138   -0.368671
    127          1           0       17.705399    1.325242   -1.221786
    128          1           0       18.308941    2.731702    0.764344
    129          1           0       18.762320    1.275789    1.714113
    130          1           0       20.475125    0.742645    0.394850
    131          1           0       19.678403    3.114536   -1.256717
    132          1           0       21.348880    2.292693   -1.517042
    133          1           0       19.838818    1.514762   -2.066455
    134          1           0       20.989549    2.205259    2.235111
    135          1           0       22.021497    2.609460    0.852612
    136          1           0       20.702598    3.748601    1.539074
    137          1           0       -6.939831    1.808828    0.177644
    138          1           0       -7.639546   -0.160091   -0.348120
 ---------------------------------------------------------------------

 SCF Done:  E(RB3LYP) =  -2733.06091684     A.U. after   17 cycles

 Excitation energies and oscillator strengths:

 Excited State   1:      Singlet-A      2.1137 eV  586.58 nm  f=0.1612  <S**2>=0.000
     235 -> 238        0.29845
     236 -> 237        0.63491
 This state for optimization and/or second-order correction.
 Total Energy, E(TD-HF/TD-DFT) =  -2732.98324109
 Copying the excited state density for this state as the 1-particle RhoCI density.

 The electronic state is 1-A.
 Alpha  occ. eigenvalues --  -19.18811 -19.18241 -19.13251 -19.11940 -19.10307
 Alpha  occ. eigenvalues --  -14.37348 -14.36722 -14.31731 -14.30506 -10.32191
 Alpha  occ. eigenvalues --  -10.31013 -10.29009 -10.25714 -10.24327 -10.24146
 Alpha  occ. eigenvalues --  -10.24039 -10.22635 -10.22435 -10.22398 -10.22326
 Alpha  occ. eigenvalues --  -10.22269 -10.22187 -10.22185 -10.22072 -10.21592
 Alpha  occ. eigenvalues --  -10.21092 -10.20968 -10.20864 -10.20809 -10.20542
 Alpha  occ. eigenvalues --  -10.20523 -10.20406 -10.20271 -10.20153 -10.20150
 Alpha  occ. eigenvalues --  -10.20107 -10.19995 -10.19915 -10.19880 -10.19864
 Alpha  occ. eigenvalues --  -10.19854 -10.19829 -10.19739 -10.19669 -10.19510
 Alpha  occ. eigenvalues --  -10.19478 -10.19333 -10.19305 -10.19242 -10.19129
 Alpha  occ. eigenvalues --  -10.18947 -10.18782 -10.18646 -10.18565 -10.18546
 Alpha  occ. eigenvalues --  -10.18450 -10.18386 -10.18232 -10.18185 -10.18175
 Alpha  occ. eigenvalues --  -10.18174 -10.18023 -10.17990 -10.17278  -1.09829
 Alpha  occ. eigenvalues --   -1.08992  -1.03285  -0.98696  -0.97739  -0.97603
 Alpha  occ. eigenvalues --   -0.96024  -0.94169  -0.92889  -0.85067  -0.82842
 Alpha  occ. eigenvalues --   -0.82563  -0.82222  -0.81878  -0.81468  -0.80720
 Alpha  occ. eigenvalues --   -0.80704  -0.79704  -0.79446  -0.79183  -0.77701
 Alpha  occ. eigenvalues --   -0.77420  -0.76618  -0.76269  -0.75086  -0.75025
 Alpha  occ. eigenvalues --   -0.74644  -0.73514  -0.73360  -0.71610  -0.71319
 Alpha  occ. eigenvalues --   -0.70627  -0.70255  -0.69236  -0.68203  -0.68002
 Alpha  occ. eigenvalues --   -0.67556  -0.66312  -0.66158  -0.65876  -0.64995
 Alpha  occ. eigenvalues --   -0.64209  -0.63343  -0.62582  -0.62069  -0.61217
 Alpha  occ. eigenvalues --   -0.61113  -0.58993  -0.58636  -0.58427  -0.57620
 Alpha  occ. eigenvalues --   -0.57344  -0.56277  -0.56186  -0.55328  -0.55224
 Alpha  occ. eigenvalues --   -0.54855  -0.54584  -0.54243  -0.53489  -0.53465
 Alpha  occ. eigenvalues --   -0.52585  -0.51957  -0.51816  -0.51213  -0.50664
 Alpha  occ. eigenvalues --   -0.50608  -0.49860  -0.49256  -0.48999  -0.48527
 Alpha  occ. eigenvalues --   -0.47998  -0.47701  -0.47491  -0.47421  -0.47127
 Alpha  occ. eigenvalues --   -0.46870  -0.46646  -0.46492  -0.46372  -0.46352
 Alpha  occ. eigenvalues --   -0.45962  -0.45453  -0.45352  -0.44982  -0.44900
 Alpha  occ. eigenvalues --   -0.44603  -0.44561  -0.44475  -0.44278  -0.44162
 Alpha  occ. eigenvalues --   -0.43833  -0.43579  -0.43449  -0.42976  -0.42621
 Alpha  occ. eigenvalues --   -0.42219  -0.42008  -0.41907  -0.41655  -0.41489
 Alpha  occ. eigenvalues --   -0.41438  -0.41210  -0.41079  -0.40956  -0.40715
 Alpha  occ. eigenvalues --   -0.40238  -0.40145  -0.40021  -0.39867  -0.39566
 Alpha  occ. eigenvalues --   -0.39478  -0.39269  -0.38893  -0.38719  -0.38426
 Alpha  occ. eigenvalues --   -0.38259  -0.38202  -0.37921  -0.37835  -0.37563
 Alpha  occ. eigenvalues --   -0.37173  -0.37146  -0.36903  -0.36837  -0.36416
 Alpha  occ. eigenvalues --   -0.36373  -0.36155  -0.35736  -0.35579  -0.35445
 Alpha  occ. eigenvalues --   -0.35275  -0.35149  -0.35012  -0.34973  -0.34882
 Alpha  occ. eigenvalues --   -0.34726  -0.34502  -0.34333  -0.34104  -0.33542
 Alpha  occ. eigenvalues --   -0.33458  -0.32884  -0.32833  -0.32673  -0.32142
 Alpha  occ. eigenvalues --   -0.31895  -0.31758  -0.31522  -0.31513  -0.31302
 Alpha  occ. eigenvalues --   -0.30573  -0.30306  -0.29749  -0.29515  -0.29349
 Alpha  occ. eigenvalues --   -0.28882  -0.28620  -0.28102  -0.27864  -0.27365
 Alpha  occ. eigenvalues --   -0.27133  -0.26744  -0.26532  -0.26014  -0.25810
 Alpha  occ. eigenvalues --   -0.25108  -0.24924  -0.24594  -0.22723  -0.19912
 Alpha  occ. eigenvalues --   -0.19469
 Alpha virt. eigenvalues --   -0.10477  -0.07909  -0.04824  -0.01903  -0.01817
 Alpha virt. eigenvalues --   -0.01605  -0.00783   0.00443   0.02107   0.03050
 Alpha virt. eigenvalues --    0.03129   0.03698   0.04100   0.04294   0.04471

 Mulliken charges:
               1
     1  C    0.064648
     2  C   -0.091121
     3  C   -0.106713
     4  C   -0.079412
     5  N   -0.178352
     6  C   -0.028074
     7  C   -0.060118
     8  C   -0.006582
     9  C    0.031593
    10  C    0.080366
    11  C    0.095879
    12  C    0.084590
    13  C    0.201155
    14  O   -0.291677
    15  O   -0.289277
    16  N   -0.102660
    17  C    0.037985
    18  C   -0.131229
    19  C    0.030042
    20  C    0.112755
    21  C    0.117994
    22  C   -0.048105
    23  C   -0.046383
    24  N   -0.260274
    25  C    0.040010
    26  C   -0.176828
    27  C   -0.021582
    28  C    0.071688
    29  C    0.120968
    30  C    0.081058
    31  C   -0.057822
    32  N   -0.035582
    33  C    0.053373
    34  C   -0.131861
    35  C   -0.053225
    36  C    0.074883
    37  C    0.149633
    38  C    0.131851
    39  O   -0.159946
    40  C   -0.093207
    41  C    0.183039
    42  O   -0.328469
    43  O   -0.276085
    44  C    0.332656
    45  C    0.214947
    46  C   -0.118825
    47  C   -0.120134
    48  C    0.004771
    49  C    0.035951
    50  C    0.009916
    51  C    0.079437
    52  C   -0.089198
    53  C    0.044655
    54  C   -0.012705
    55  C    0.144319
    56  C   -0.048938
    57  C   -0.048735
    58  C   -0.034885
    59  C    0.067347
    60  C   -0.008750
    61  C    0.019782
    62  C   -0.125419
    63  C    0.046449
    64  C   -0.039082
    65  H    0.010513
    66  H    0.002436
    67  H   -0.019249
    68  H   -0.045301
    69  H   -0.053765
    70  H    0.021637
    71  H    0.010103
    72  H    0.022347
    73  H   -0.000701
    74  H    0.000274
    75  H    0.025195
    76  H    0.013987
    77  H    0.014769
    78  H    0.019524
    79  H    0.048247
    80  H    0.036826
    81  H   -0.010145
    82  H    0.039801
    83  H    0.043011
    84  H    0.015707
    85  H    0.000632
    86  H    0.000580
    87  H   -0.026670
    88  H    0.029759
    89  H    0.006438
    90  H    0.024869
    91  H    0.043730
    92  H    0.011922
    93  H    0.018756
    94  H    0.092734
    95  H    0.010166
    96  H   -0.040854
    97  H    0.016595
    98  H    0.030096
    99  H    0.034278
   100  H    0.027250
   101  H    0.051486
   102  H    0.060752
   103  H    0.032358
   104  H   -0.008314
   105  H   -0.024199
   106  H    0.015855
   107  H    0.011252
   108  H   -0.047379
   109  H   -0.025193
   110  H   -0.017943
   111  H    0.005524
   112  H    0.016565
   113  H   -0.001080
   114  H   -0.009023
   115  H    0.015421
   116  H    0.023867
   117  H   -0.037055
   118  H   -0.013131
   119  H   -0.000914
   120  H   -0.020809
   121  H    0.026879
   122  H    0.013841
   123  H    0.030183
   124  H   -0.032091
   125  H   -0.018865
   126  H    0.024456
   127  H    0.003372
   128  H   -0.004596
   129  H   -0.003287
   130  H   -0.005625
   131  H    0.015124
   132  H    0.014920
   133  H    0.022078
   134  H    0.008118
   135  H    0.012997
   136  H    0.011684
   137  H    0.144908
   138  H    0.169884
 Sum of Mulliken charges =  -0.00000

 Dipole moment (field-independent basis, Debye):
    X=              2.0018    Y=              4.1719    Z=             -0.4538  Tot=              4.6496
 Quadrupole moment (field-independent basis, Debye-Ang):
   XX=           -347.8671   YY=           -381.9101   ZZ=           -399.1063
   XY=            -16.7583   XZ=             14.0273   YZ=             -4.9623

 Normal termination of Gaussian 16 at Fri Aug 16 06:37:44 2019.
