 Gaussian 16, Revision A.03,
 Gaussian 16:  ES64L-G16RevA.03 25-Dec-2016

 --------------------------
 # td=(NStates=1) B3LYP/SVP
 --------------------------

 --
 TD
 --
 Symbolic Z-matrix:
 Charge =  0 Multiplicity = 1

                         Standard orientation:
 ---------------------------------------------------------------------
 Center     Atomic      Atomic             Coordinates (Angstroms)
 Number     Number       Type             X           Y           Z
 ---------------------------------------------------------------------
      1          6           0       -5.134036   -1.930834    0.534466
      2          6           0       -4.771913    2.759387    1.415800
      3          6           0       -9.210014    3.426860   -0.352253
      4          6           0       -9.837469   -1.302256   -0.951448
      5          7           0       -5.217539    0.507713    0.846026
      6          6           0       -4.550972   -0.684105    0.878180
      7          6           0       -3.095475   -0.661538    1.339569
      8          6           0       -3.053785    0.878481    1.947971
      9          6           0       -4.412004    1.492561    1.358164
     10          6           0       -3.063736    0.823440    3.544055
     11          6           0       -2.242627   -0.642662    0.114584
     12          6           0       -0.698816   -0.876045    0.607046
     13          6           0        0.282845   -1.061967   -0.589083
     14          8           0       -0.078366   -1.473375   -1.626677
     15          8           0        1.544583   -0.811479   -0.308413
     16          7           0       -6.999083    2.774016    0.456328
     17          6           0       -5.958166    3.404877    1.017246
     18          6           0       -6.257701    4.802969    1.158198
     19          6           0       -7.536988    5.037941    0.651204
     20          6           0       -7.992902    3.751444    0.223706
     21          6           0       -5.218362    5.776171    1.665915
     22          6           0       -8.049460    6.326799    0.463805
     23          6           0       -9.075228    6.742430   -0.509112
     24          7           0       -9.108338    0.962360   -0.559492
     25          6           0       -9.699088    2.170871   -0.660252
     26          6           0      -11.102101    1.962521   -1.200294
     27          6           0      -11.283099    0.646315   -1.237376
     28          6           0      -10.014365   -0.003843   -0.941906
     29          6           0      -12.067594    3.174655   -1.366839
     30          6           0      -12.404079   -0.115795   -1.911085
     31          6           0      -12.265551   -0.595991   -3.368420
     32          7           0       -7.510359   -1.317757   -0.212775
     33          6           0       -8.617916   -2.081648   -0.577631
     34          6           0       -8.153111   -3.441557   -0.540410
     35          6           0       -6.895524   -3.380401   -0.207268
     36          6           0       -6.438494   -2.110956    0.070883
     37          6           0       -9.026610   -4.633614   -0.839182
     38          6           0       -5.777555   -4.301032   -0.006898
     39          8           0       -5.685366   -5.547483   -0.048774
     40          6           0       -4.600262   -3.325969    0.512412
     41          6           0       -3.953307   -3.840845    1.789697
     42          8           0       -4.190556   -3.367786    2.855521
     43          8           0       -3.076010   -4.926337    1.508071
     44          6           0       -2.425962   -5.461216    2.756113
     45          6           0        2.585123   -1.109198   -1.264546
     46          6           0        3.960661   -0.788840   -0.604092
     47          6           0        4.943442   -0.122970   -0.996151
     48          6           0        4.989349    0.734436   -2.278091
     49          6           0        6.203383    0.003002   -0.258792
     50          6           0        7.465642   -0.575783   -0.990896
     51          6           0        8.623478   -0.466497   -0.021531
     52          6           0        9.978720   -0.896753   -0.766282
     53          6           0        9.979412   -2.350658   -1.191204
     54          6           0       11.242895   -0.533415    0.080276
     55          6           0       12.664831   -0.613247   -0.525904
     56          6           0       13.772441   -0.089021    0.354865
     57          6           0       15.126743   -0.156082   -0.425962
     58          6           0       15.638586   -1.625588   -0.876639
     59          6           0       16.311838    0.538426    0.366581
     60          6           0       17.665431    0.835267   -0.289580
     61          6           0       18.568767    1.582988    0.663820
     62          6           0       19.964499    1.824748    0.111572
     63          6           0       20.111285    2.802272   -1.180764
     64          6           0       20.910867    2.513874    1.179201
     65          1           0       -4.050949    3.365446    1.905595
     66          1           0      -10.050807    4.260968   -0.412864
     67          1           0      -10.695018   -2.068319   -1.152231
     68          1           0       -2.752904   -1.285327    2.173698
     69          1           0       -2.087083    1.300974    1.466359
     70          1           0       -2.178961    0.400342    3.854259
     71          1           0       -3.027434    1.796546    3.900801
     72          1           0       -4.057942    0.089407    3.881755
     73          1           0       -2.474259   -1.611063   -0.500056
     74          1           0       -2.365791    0.182019   -0.629554
     75          1           0       -0.249329    0.025048    1.167767
     76          1           0       -0.713318   -1.905157    1.207608
     77          1           0       -4.363132    5.746611    0.863340
     78          1           0       -5.608515    6.738059    1.655780
     79          1           0       -4.995392    5.557650    2.644394
     80          1           0       -7.587023    7.236946    0.884169
     81          1           0       -9.704289    5.993749   -1.106603
     82          1           0       -9.290195    7.727266   -0.464322
     83          1           0      -12.205108    3.887140   -0.572396
     84          1           0      -11.514627    3.860512   -2.161073
     85          1           0      -13.183302    2.890381   -1.657527
     86          1           0      -12.731778   -0.994024   -1.111046
     87          1           0      -13.357725    0.600470   -1.746456
     88          1           0      -11.854863    0.159354   -4.322239
     89          1           0      -11.429517   -1.470240   -3.361398
     90          1           0      -13.079548   -1.009567   -3.686699
     91          1           0       -9.845404   -4.843958   -0.180390
     92          1           0       -9.336370   -4.487519   -1.894659
     93          1           0       -8.330694   -5.491821   -0.618568
     94          1           0       -3.977575   -3.616952   -0.434842
     95          1           0       -1.565581   -6.061257    2.292300
     96          1           0       -1.913303   -4.501445    3.163047
     97          1           0       -3.062725   -5.875722    3.723918
     98          1           0        2.547648   -2.067754   -1.396251
     99          1           0        2.135392   -0.593442   -2.293662
    100          1           0        3.977524   -1.433643    0.317633
    101          1           0        5.328567    1.615519   -1.999252
    102          1           0        5.692111    0.254452   -2.938885
    103          1           0        3.902357    0.859425   -2.850101
    104          1           0        6.492881    0.923022    0.056378
    105          1           0        6.095016   -0.638022    0.693853
    106          1           0        7.293124   -1.677629   -1.147293
    107          1           0        7.592360   -0.106042   -1.861045
    108          1           0        8.569552    0.529483    0.265010
    109          1           0        8.695759   -1.043870    0.776192
    110          1           0        9.949866   -0.207466   -1.679933
    111          1           0        9.270241   -2.841605   -1.796288
    112          1           0       11.096918   -2.381330   -2.007779
    113          1           0        9.919327   -3.037471   -0.337998
    114          1           0       11.016978    0.540379    0.318645
    115          1           0       11.513263   -1.172533    0.990446
    116          1           0       12.719348   -1.727971   -0.688317
    117          1           0       12.681716   -0.119759   -1.501208
    118          1           0       13.551129    1.027852    0.617888
    119          1           0       13.891595   -0.622647    1.258087
    120          1           0       14.940108    0.341266   -1.352760
    121          1           0       15.020371   -2.084989   -1.732788
    122          1           0       16.771527   -1.445706   -1.472740
    123          1           0       15.711186   -2.240354   -0.072160
    124          1           0       15.868675    1.393474    0.601153
    125          1           0       16.442733    0.069351    1.288622
    126          1           0       18.241697   -0.024329   -0.767942
    127          1           0       17.226495    1.435141   -1.186406
    128          1           0       18.229973    2.735159    0.913224
    129          1           0       18.699544    0.973033    1.701363
    130          1           0       20.763996    1.055635   -0.009691
    131          1           0       20.060664    3.928057   -0.898392
    132          1           0       21.049684    2.404825   -1.515657
    133          1           0       19.284026    2.483240   -2.004521
    134          1           0       20.930825    1.800551    2.213227
    135          1           0       21.912600    2.719860    0.764981
    136          1           0       20.335885    3.520075    1.383671
    137          1           0       -7.274723    1.801935    0.343486
    138          1           0       -7.410315   -0.408777    0.234264
 ---------------------------------------------------------------------

 SCF Done:  E(RB3LYP) =  -2732.98151273     A.U. after   17 cycles

 Excitation energies and oscillator strengths:

 Excited State   1:      Singlet-A      2.0305 eV  610.61 nm  f=0.3060  <S**2>=0.000
     235 -> 237       -0.15055
     235 -> 238        0.22983
     236 -> 237        0.64667
 This state for optimization and/or second-order correction.
 Total Energy, E(TD-HF/TD-DFT) =  -2732.90689354
 Copying the excited state density for this state as the 1-particle RhoCI density.

 The electronic state is 1-A.
 Alpha  occ. eigenvalues --  -19.17297 -19.16906 -19.13352 -19.12303 -19.11156
 Alpha  occ. eigenvalues --  -14.37120 -14.36102 -14.32527 -14.30048 -10.31656
 Alpha  occ. eigenvalues --  -10.30352 -10.28089 -10.26294 -10.24954 -10.23955
 Alpha  occ. eigenvalues --  -10.23784 -10.23773 -10.23343 -10.22477 -10.21884
 Alpha  occ. eigenvalues --  -10.21764 -10.21742 -10.21638 -10.21522 -10.21419
 Alpha  occ. eigenvalues --  -10.21340 -10.20934 -10.20885 -10.20707 -10.20679
 Alpha  occ. eigenvalues --  -10.20661 -10.20635 -10.20479 -10.20457 -10.20394
 Alpha  occ. eigenvalues --  -10.20367 -10.20253 -10.20221 -10.19983 -10.19949
 Alpha  occ. eigenvalues --  -10.19875 -10.19801 -10.19745 -10.19450 -10.19428
 Alpha  occ. eigenvalues --  -10.19329 -10.19248 -10.19143 -10.19104 -10.19068
 Alpha  occ. eigenvalues --  -10.19061 -10.19057 -10.19039 -10.18827 -10.18757
 Alpha  occ. eigenvalues --  -10.18622 -10.18553 -10.18393 -10.18221 -10.18110
 Alpha  occ. eigenvalues --  -10.18028 -10.17660 -10.16998 -10.16330  -1.10282
 Alpha  occ. eigenvalues --   -1.07527  -1.01207  -1.00674  -0.99922  -0.98702
 Alpha  occ. eigenvalues --   -0.98508  -0.93519  -0.93135  -0.84936  -0.83845
 Alpha  occ. eigenvalues --   -0.82753  -0.81722  -0.81559  -0.80907  -0.80728
 Alpha  occ. eigenvalues --   -0.80102  -0.79294  -0.79093  -0.78450  -0.77237
 Alpha  occ. eigenvalues --   -0.76586  -0.75862  -0.74970  -0.74323  -0.73794
 Alpha  occ. eigenvalues --   -0.73155  -0.72545  -0.71934  -0.71609  -0.71528
 Alpha  occ. eigenvalues --   -0.70187  -0.69304  -0.68567  -0.67884  -0.67329
 Alpha  occ. eigenvalues --   -0.66891  -0.66622  -0.66502  -0.66204  -0.65162
 Alpha  occ. eigenvalues --   -0.64008  -0.63048  -0.62091  -0.61641  -0.61374
 Alpha  occ. eigenvalues --   -0.61080  -0.59765  -0.59132  -0.57809  -0.57499
 Alpha  occ. eigenvalues --   -0.57184  -0.56306  -0.56010  -0.55954  -0.55801
 Alpha  occ. eigenvalues --   -0.54939  -0.54114  -0.53767  -0.53385  -0.53061
 Alpha  occ. eigenvalues --   -0.52584  -0.51902  -0.51445  -0.50490  -0.50275
 Alpha  occ. eigenvalues --   -0.49930  -0.49096  -0.48619  -0.48211  -0.47879
 Alpha  occ. eigenvalues --   -0.47640  -0.47210  -0.47146  -0.47091  -0.46763
 Alpha  occ. eigenvalues --   -0.46616  -0.46340  -0.46030  -0.45705  -0.45678
 Alpha  occ. eigenvalues --   -0.45631  -0.45333  -0.44934  -0.44780  -0.44621
 Alpha  occ. eigenvalues --   -0.44537  -0.44333  -0.43724  -0.43520  -0.43490
 Alpha  occ. eigenvalues --   -0.42980  -0.42804  -0.42516  -0.42254  -0.42147
 Alpha  occ. eigenvalues --   -0.42126  -0.41978  -0.41820  -0.41691  -0.41536
 Alpha  occ. eigenvalues --   -0.41278  -0.40961  -0.40798  -0.40439  -0.40372
 Alpha  occ. eigenvalues --   -0.40255  -0.39822  -0.39698  -0.39493  -0.39459
 Alpha  occ. eigenvalues --   -0.39219  -0.38828  -0.38759  -0.38643  -0.38508
 Alpha  occ. eigenvalues --   -0.38260  -0.38165  -0.37966  -0.37742  -0.37432
 Alpha  occ. eigenvalues --   -0.37402  -0.37305  -0.37197  -0.36794  -0.36649
 Alpha  occ. eigenvalues --   -0.36462  -0.36416  -0.36345  -0.36042  -0.35988
 Alpha  occ. eigenvalues --   -0.35777  -0.35514  -0.35394  -0.34989  -0.34864
 Alpha  occ. eigenvalues --   -0.34398  -0.34178  -0.34010  -0.33520  -0.33468
 Alpha  occ. eigenvalues --   -0.33312  -0.32908  -0.32853  -0.32598  -0.32425
 Alpha  occ. eigenvalues --   -0.31892  -0.31748  -0.31603  -0.31341  -0.31075
 Alpha  occ. eigenvalues --   -0.30902  -0.30313  -0.30221  -0.29890  -0.29856
 Alpha  occ. eigenvalues --   -0.29463  -0.28885  -0.28637  -0.28423  -0.27737
 Alpha  occ. eigenvalues --   -0.27457  -0.27291  -0.26969  -0.26759  -0.26117
 Alpha  occ. eigenvalues --   -0.25590  -0.24618  -0.23461  -0.23185  -0.20484
 Alpha  occ. eigenvalues --   -0.18762
 Alpha virt. eigenvalues --   -0.10878  -0.07379  -0.04417  -0.02914  -0.00426
 Alpha virt. eigenvalues --    0.00721   0.01159   0.01920   0.02297   0.02848
 Alpha virt. eigenvalues --    0.03827   0.03863   0.04312   0.04520   0.04712

 Mulliken charges:
               1
     1  C    0.110249
     2  C   -0.038010
     3  C   -0.134992
     4  C   -0.127732
     5  N   -0.187746
     6  C   -0.067674
     7  C   -0.060100
     8  C   -0.090998
     9  C    0.003760
    10  C    0.087730
    11  C    0.017310
    12  C   -0.039527
    13  C    0.134293
    14  O   -0.210278
    15  O   -0.305011
    16  N   -0.036330
    17  C    0.121149
    18  C   -0.200369
    19  C    0.142565
    20  C    0.082131
    21  C    0.198932
    22  C   -0.144888
    23  C   -0.022819
    24  N   -0.221843
    25  C    0.040820
    26  C   -0.080622
    27  C   -0.095656
    28  C    0.142739
    29  C    0.024836
    30  C   -0.026800
    31  C    0.040486
    32  N   -0.040807
    33  C    0.006014
    34  C   -0.163968
    35  C    0.053059
    36  C   -0.016992
    37  C    0.096759
    38  C    0.061725
    39  O   -0.196122
    40  C   -0.098580
    41  C    0.239717
    42  O   -0.192608
    43  O   -0.357071
    44  C    0.115254
    45  C    0.297887
    46  C   -0.120535
    47  C   -0.073357
    48  C    0.113971
    49  C    0.075393
    50  C    0.037063
    51  C    0.105823
    52  C   -0.068212
    53  C   -0.016255
    54  C    0.019588
    55  C    0.005688
    56  C    0.053698
    57  C   -0.077765
    58  C   -0.024117
    59  C    0.135271
    60  C    0.016918
    61  C    0.016665
    62  C   -0.145288
    63  C   -0.021119
    64  C   -0.059234
    65  H   -0.055635
    66  H    0.015775
    67  H    0.017317
    68  H    0.023733
    69  H    0.013807
    70  H   -0.003826
    71  H   -0.005676
    72  H    0.064243
    73  H    0.034449
    74  H    0.031155
    75  H    0.041109
    76  H    0.059169
    77  H    0.050447
    78  H   -0.025572
    79  H    0.012404
    80  H    0.007113
    81  H    0.045673
    82  H    0.000027
    83  H    0.028899
    84  H    0.031757
    85  H    0.035665
    86  H    0.023074
    87  H    0.008167
    88  H    0.043394
    89  H    0.017316
    90  H   -0.020799
    91  H    0.024098
    92  H    0.039556
    93  H    0.038962
    94  H    0.080067
    95  H    0.054240
    96  H    0.028905
    97  H    0.080524
    98  H   -0.041381
    99  H    0.047822
   100  H   -0.005369
   101  H   -0.021720
   102  H    0.024237
   103  H    0.031506
   104  H   -0.024566
   105  H   -0.006099
   106  H    0.001786
   107  H   -0.034485
   108  H   -0.035106
   109  H   -0.040808
   110  H   -0.007008
   111  H    0.005586
   112  H    0.027682
   113  H    0.007045
   114  H   -0.008272
   115  H    0.001649
   116  H    0.010492
   117  H   -0.016408
   118  H    0.005572
   119  H   -0.017873
   120  H   -0.026122
   121  H    0.025645
   122  H    0.022134
   123  H   -0.002776
   124  H   -0.059338
   125  H   -0.040282
   126  H    0.018566
   127  H    0.007977
   128  H    0.016739
   129  H    0.020690
   130  H    0.006300
   131  H    0.036719
   132  H    0.009838
   133  H    0.028699
   134  H    0.028698
   135  H    0.021681
   136  H    0.008989
   137  H    0.141663
   138  H    0.156292
 Sum of Mulliken charges =  -0.00000

 Dipole moment (field-independent basis, Debye):
    X=              2.4267    Y=              4.7862    Z=              1.4704  Tot=              5.5640
 Quadrupole moment (field-independent basis, Debye-Ang):
   XX=           -361.6933   YY=           -386.0937   ZZ=           -395.8664
   XY=            -28.8567   XZ=              2.7662   YZ=             -2.1059

 Normal termination of Gaussian 16 at Wed Aug 21 16:02:21 2019.
