 Gaussian 16, Revision A.03,
 Gaussian 16:  ES64L-G16RevA.03 25-Dec-2016

 --------------------------
 # td=(NStates=1) B3LYP/SVP
 --------------------------

 --
 TD
 --
 Symbolic Z-matrix:
 Charge =  0 Multiplicity = 1

                         Standard orientation:
 ---------------------------------------------------------------------
 Center     Atomic      Atomic             Coordinates (Angstroms)
 Number     Number       Type             X           Y           Z
 ---------------------------------------------------------------------
      1          6           0       -5.125211   -1.920505    0.378231
      2          6           0       -4.778134    2.662651    1.455501
      3          6           0       -9.279518    3.425236   -0.291862
      4          6           0       -9.944064   -1.384792   -0.832260
      5          7           0       -5.101928    0.369938    0.645920
      6          6           0       -4.515942   -0.813140    0.801258
      7          6           0       -2.940995   -0.672676    1.263738
      8          6           0       -3.011086    0.817925    1.826485
      9          6           0       -4.354489    1.346349    1.215323
     10          6           0       -3.048729    0.880855    3.337546
     11          6           0       -2.019295   -0.763531    0.100611
     12          6           0       -0.559777   -0.920397    0.493924
     13          6           0        0.411529   -1.071346   -0.666657
     14          8           0       -0.011884   -1.207165   -1.804620
     15          8           0        1.683480   -0.872293   -0.244724
     16          7           0       -7.082165    2.700066    0.533566
     17          6           0       -5.888457    3.274172    1.057251
     18          6           0       -6.111978    4.635136    1.053766
     19          6           0       -7.465741    4.890557    0.490860
     20          6           0       -8.048797    3.607572    0.354765
     21          6           0       -5.206822    5.723009    1.467848
     22          6           0       -8.015272    6.305417    0.436750
     23          6           0       -8.951057    6.706852   -0.523942
     24          7           0       -9.138407    0.975094   -0.565013
     25          6           0       -9.944981    2.157508   -0.592903
     26          6           0      -11.330145    1.943039   -0.855414
     27          6           0      -11.526378    0.616411   -0.993786
     28          6           0      -10.149254    0.010048   -0.841560
     29          6           0      -12.314018    3.012318   -1.073443
     30          6           0      -12.648916   -0.232006   -1.461257
     31          6           0      -12.783126   -0.436104   -2.904807
     32          7           0       -7.435515   -1.246606   -0.328647
     33          6           0       -8.592887   -1.946567   -0.590171
     34          6           0       -8.312585   -3.415255   -0.577927
     35          6           0       -6.946256   -3.363502   -0.246238
     36          6           0       -6.447542   -2.042468   -0.086077
     37          6           0       -9.179168   -4.426109   -0.848050
     38          6           0       -5.853561   -4.288921   -0.114051
     39          8           0       -5.807623   -5.521418   -0.101350
     40          6           0       -4.577061   -3.428528    0.413424
     41          6           0       -3.830961   -3.913229    1.691416
     42          8           0       -4.212499   -3.464584    2.728514
     43          8           0       -2.999984   -4.887587    1.460750
     44          6           0       -2.580110   -5.463458    2.770134
     45          6           0        2.653424   -0.913263   -1.263137
     46          6           0        3.973030   -0.658471   -0.594076
     47          6           0        5.018197    0.095222   -1.206130
     48          6           0        4.934674    0.778996   -2.434021
     49          6           0        6.284723    0.139546   -0.247150
     50          6           0        7.515567   -0.326241   -1.048661
     51          6           0        8.856069   -0.123497   -0.188791
     52          6           0       10.106635   -0.678643   -0.925905
     53          6           0       10.082368   -2.211934   -1.100344
     54          6           0       11.393121   -0.215233   -0.070018
     55          6           0       12.659432   -0.488751   -0.753358
     56          6           0       13.808958   -0.014075    0.043949
     57          6           0       15.274515   -0.148480   -0.370239
     58          6           0       15.525025   -1.637819   -0.580506
     59          6           0       16.249452    0.575266    0.516868
     60          6           0       17.709066    0.749731   -0.103858
     61          6           0       18.697222    1.404762    0.781068
     62          6           0       20.115844    1.603576    0.195620
     63          6           0       20.185814    2.343890   -1.067234
     64          6           0       20.989240    2.302307    1.266262
     65          1           0       -4.108940    3.223861    1.976743
     66          1           0       -9.922096    4.245906   -0.290063
     67          1           0      -10.678478   -2.167915   -0.970227
     68          1           0       -2.967508   -1.333629    2.153249
     69          1           0       -2.348522    1.395987    1.293521
     70          1           0       -2.200531    0.056479    3.872644
     71          1           0       -2.992527    1.918596    3.719684
     72          1           0       -4.024819    0.449176    3.619315
     73          1           0       -2.272744   -1.682562   -0.484390
     74          1           0       -2.161197    0.030989   -0.529749
     75          1           0       -0.262510    0.015975    1.070293
     76          1           0       -0.253620   -1.760403    1.114648
     77          1           0       -4.405963    5.810972    0.909129
     78          1           0       -5.596730    6.691561    1.498713
     79          1           0       -4.935749    5.354273    2.538384
     80          1           0       -7.730648    7.037947    1.139482
     81          1           0       -9.261388    6.082707   -1.406326
     82          1           0       -9.414452    7.756293   -0.890542
     83          1           0      -12.409454    3.838797   -0.163282
     84          1           0      -12.166400    3.549412   -2.009644
     85          1           0      -13.427950    2.593960   -0.989797
     86          1           0      -12.721891   -1.322541   -1.003909
     87          1           0      -13.618020    0.372787   -1.064696
     88          1           0      -12.566159    0.449847   -3.528840
     89          1           0      -11.907740   -1.054763   -3.187212
     90          1           0      -13.708729   -0.913332   -3.515883
     91          1           0      -10.059748   -4.563061   -0.025686
     92          1           0       -9.512370   -4.530856   -1.947955
     93          1           0       -8.611013   -5.350781   -0.664736
     94          1           0       -3.774047   -3.544086   -0.294702
     95          1           0       -2.129782   -6.399616    2.403667
     96          1           0       -1.804735   -4.713355    3.182678
     97          1           0       -3.524925   -5.519143    3.297036
     98          1           0        2.493037   -1.977592   -1.516366
     99          1           0        2.445290   -0.438873   -2.012756
    100          1           0        4.045135   -0.787337    0.422428
    101          1           0        5.266516    1.981759   -2.321920
    102          1           0        5.552831    0.461015   -3.352191
    103          1           0        3.851644    0.896250   -2.624860
    104          1           0        6.434547    1.135327   -0.036929
    105          1           0        6.161189   -0.395671    0.644853
    106          1           0        7.579136   -1.475738   -1.355400
    107          1           0        7.531417    0.161814   -1.921938
    108          1           0        9.042866    0.899665    0.041342
    109          1           0        8.634003   -0.720564    0.626279
    110          1           0       10.183326   -0.216045   -1.964490
    111          1           0        8.929407   -2.468762   -1.532836
    112          1           0       10.782173   -2.818361   -1.868541
    113          1           0       10.233439   -2.548193   -0.050179
    114          1           0       11.178315    0.876147    0.174873
    115          1           0       11.194888   -0.511255    0.895627
    116          1           0       12.939556   -1.553646   -0.792532
    117          1           0       12.574500   -0.064207   -1.546330
    118          1           0       13.871403    1.129424    0.176127
    119          1           0       13.734598   -0.415545    1.116367
    120          1           0       15.585394    0.318413   -1.334742
    121          1           0       15.194235   -2.084308   -1.288316
    122          1           0       16.566152   -1.927668   -0.920736
    123          1           0       15.513545   -2.125768    0.303111
    124          1           0       16.032135    1.530980    0.641397
    125          1           0       16.249869   -0.133451    1.450994
    126          1           0       18.132952   -0.368306   -0.110311
    127          1           0       17.516071    1.053279   -1.042773
    128          1           0       18.389360    2.456201    1.092207
    129          1           0       18.676262    1.008579    1.982382
    130          1           0       20.673982    0.618883    0.251681
    131          1           0       19.755510    3.225254   -0.759735
    132          1           0       21.022762    2.290704   -1.536789
    133          1           0       19.704545    1.581991   -1.782089
    134          1           0       21.040196    1.518488    2.222526
    135          1           0       22.032926    2.592134    0.748997
    136          1           0       20.587010    3.251238    1.889615
    137          1           0       -7.356699    1.680337    0.436363
    138          1           0       -7.369434   -0.157604   -0.327888
 ---------------------------------------------------------------------

 SCF Done:  E(RB3LYP) =  -2732.89809193     A.U. after   17 cycles

 Excitation energies and oscillator strengths:

 Excited State   1:      Singlet-A      2.0544 eV  603.49 nm  f=0.1384  <S**2>=0.000
     235 -> 237       -0.37192
     235 -> 238        0.26347
     236 -> 237        0.48817
     236 -> 238        0.22006
 This state for optimization and/or second-order correction.
 Total Energy, E(TD-HF/TD-DFT) =  -2732.82259256
 Copying the excited state density for this state as the 1-particle RhoCI density.

 The electronic state is 1-A.
 Alpha  occ. eigenvalues --  -19.18682 -19.17979 -19.12584 -19.11634 -19.11282
 Alpha  occ. eigenvalues --  -14.37883 -14.36044 -14.31891 -14.31046 -10.31372
 Alpha  occ. eigenvalues --  -10.30840 -10.27046 -10.25594 -10.23711 -10.23003
 Alpha  occ. eigenvalues --  -10.22954 -10.22928 -10.22765 -10.22618 -10.21954
 Alpha  occ. eigenvalues --  -10.21794 -10.21771 -10.21767 -10.21186 -10.21168
 Alpha  occ. eigenvalues --  -10.21069 -10.21044 -10.20916 -10.20758 -10.20740
 Alpha  occ. eigenvalues --  -10.20653 -10.20506 -10.20237 -10.20163 -10.20080
 Alpha  occ. eigenvalues --  -10.20057 -10.20043 -10.19999 -10.19921 -10.19687
 Alpha  occ. eigenvalues --  -10.19681 -10.19476 -10.19321 -10.19301 -10.19293
 Alpha  occ. eigenvalues --  -10.19000 -10.18978 -10.18951 -10.18729 -10.18722
 Alpha  occ. eigenvalues --  -10.18705 -10.18599 -10.18358 -10.18312 -10.18301
 Alpha  occ. eigenvalues --  -10.18200 -10.18160 -10.18113 -10.17823 -10.17632
 Alpha  occ. eigenvalues --  -10.17436 -10.16435 -10.16068 -10.14790  -1.10884
 Alpha  occ. eigenvalues --   -1.09823  -1.01487  -1.01089  -1.00768  -0.99674
 Alpha  occ. eigenvalues --   -0.97443  -0.94003  -0.91381  -0.83344  -0.83051
 Alpha  occ. eigenvalues --   -0.82402  -0.82233  -0.81690  -0.81559  -0.81148
 Alpha  occ. eigenvalues --   -0.80283  -0.80138  -0.80018  -0.78664  -0.78116
 Alpha  occ. eigenvalues --   -0.77266  -0.76304  -0.75064  -0.74960  -0.74393
 Alpha  occ. eigenvalues --   -0.74280  -0.73372  -0.73227  -0.72861  -0.70908
 Alpha  occ. eigenvalues --   -0.70386  -0.69456  -0.68982  -0.68624  -0.68015
 Alpha  occ. eigenvalues --   -0.67542  -0.67290  -0.66083  -0.65875  -0.65026
 Alpha  occ. eigenvalues --   -0.63803  -0.62613  -0.62284  -0.61878  -0.61063
 Alpha  occ. eigenvalues --   -0.60646  -0.59324  -0.58815  -0.58118  -0.58007
 Alpha  occ. eigenvalues --   -0.57704  -0.57539  -0.56192  -0.56001  -0.55625
 Alpha  occ. eigenvalues --   -0.55238  -0.55098  -0.53941  -0.53651  -0.52927
 Alpha  occ. eigenvalues --   -0.52568  -0.51740  -0.51074  -0.50839  -0.50475
 Alpha  occ. eigenvalues --   -0.50338  -0.49969  -0.49762  -0.49460  -0.48981
 Alpha  occ. eigenvalues --   -0.48400  -0.48310  -0.48029  -0.47586  -0.47312
 Alpha  occ. eigenvalues --   -0.46905  -0.46767  -0.46434  -0.46116  -0.45644
 Alpha  occ. eigenvalues --   -0.45542  -0.45506  -0.45218  -0.45086  -0.44985
 Alpha  occ. eigenvalues --   -0.44889  -0.44382  -0.44205  -0.44184  -0.43968
 Alpha  occ. eigenvalues --   -0.43632  -0.43564  -0.43256  -0.42973  -0.42825
 Alpha  occ. eigenvalues --   -0.42607  -0.42457  -0.42334  -0.41983  -0.41764
 Alpha  occ. eigenvalues --   -0.41701  -0.41431  -0.41323  -0.41183  -0.41028
 Alpha  occ. eigenvalues --   -0.40941  -0.40274  -0.40147  -0.40048  -0.39990
 Alpha  occ. eigenvalues --   -0.39640  -0.39495  -0.39245  -0.39009  -0.38888
 Alpha  occ. eigenvalues --   -0.38628  -0.38193  -0.37924  -0.37613  -0.37390
 Alpha  occ. eigenvalues --   -0.37262  -0.37181  -0.36884  -0.36723  -0.36643
 Alpha  occ. eigenvalues --   -0.36620  -0.36545  -0.36030  -0.35912  -0.35677
 Alpha  occ. eigenvalues --   -0.35631  -0.35303  -0.35085  -0.34964  -0.34785
 Alpha  occ. eigenvalues --   -0.34676  -0.34188  -0.33974  -0.33758  -0.33617
 Alpha  occ. eigenvalues --   -0.33225  -0.32644  -0.32230  -0.32207  -0.31938
 Alpha  occ. eigenvalues --   -0.31828  -0.31750  -0.31442  -0.31192  -0.31131
 Alpha  occ. eigenvalues --   -0.30761  -0.30407  -0.30180  -0.29827  -0.29452
 Alpha  occ. eigenvalues --   -0.29448  -0.28884  -0.28197  -0.27837  -0.27703
 Alpha  occ. eigenvalues --   -0.27436  -0.27176  -0.26204  -0.25889  -0.25785
 Alpha  occ. eigenvalues --   -0.23850  -0.23466  -0.23457  -0.22975  -0.19228
 Alpha  occ. eigenvalues --   -0.19133
 Alpha virt. eigenvalues --   -0.10359  -0.07734  -0.03976  -0.02149  -0.01990
 Alpha virt. eigenvalues --    0.00066   0.00449   0.01060   0.02176   0.03864
 Alpha virt. eigenvalues --    0.03900   0.04048   0.04305   0.05000   0.05091

 Mulliken charges:
               1
     1  C    0.106992
     2  C   -0.084939
     3  C   -0.023514
     4  C   -0.054852
     5  N   -0.153548
     6  C   -0.206667
     7  C   -0.040202
     8  C    0.019456
     9  C   -0.072712
    10  C    0.028874
    11  C    0.178953
    12  C    0.023015
    13  C    0.163679
    14  O   -0.244405
    15  O   -0.320717
    16  N   -0.095695
    17  C    0.249287
    18  C   -0.179609
    19  C    0.007568
    20  C    0.081504
    21  C    0.190207
    22  C   -0.014562
    23  C   -0.102568
    24  N   -0.330579
    25  C    0.057946
    26  C   -0.069110
    27  C   -0.066600
    28  C    0.109527
    29  C    0.004120
    30  C    0.014796
    31  C   -0.002211
    32  N    0.017155
    33  C    0.001000
    34  C   -0.068826
    35  C   -0.017599
    36  C    0.025825
    37  C    0.002414
    38  C    0.077040
    39  O   -0.200421
    40  C   -0.010869
    41  C    0.153398
    42  O   -0.236733
    43  O   -0.275895
    44  C    0.165467
    45  C    0.440473
    46  C   -0.067877
    47  C   -0.163472
    48  C    0.013221
    49  C    0.187627
    50  C   -0.019071
    51  C    0.082298
    52  C   -0.100095
    53  C   -0.054958
    54  C   -0.001327
    55  C    0.349262
    56  C   -0.050012
    57  C   -0.064069
    58  C    0.186926
    59  C    0.056519
    60  C    0.053702
    61  C   -0.032866
    62  C   -0.100223
    63  C    0.195433
    64  C   -0.095355
    65  H   -0.084003
    66  H   -0.041100
    67  H   -0.020432
    68  H    0.011169
    69  H   -0.039182
    70  H    0.037942
    71  H    0.026185
    72  H    0.031088
    73  H    0.012992
    74  H   -0.019533
    75  H    0.029595
    76  H    0.016730
    77  H   -0.015228
    78  H   -0.014506
    79  H    0.033043
    80  H    0.006022
    81  H    0.034213
    82  H    0.046830
    83  H    0.036533
    84  H    0.038156
    85  H    0.026170
    86  H    0.029856
    87  H    0.014189
    88  H    0.000354
    89  H   -0.005191
    90  H    0.036413
    91  H    0.054094
    92  H    0.056354
    93  H    0.028340
    94  H    0.017056
    95  H    0.048848
    96  H    0.054398
    97  H    0.059071
    98  H   -0.001456
    99  H   -0.102352
   100  H   -0.023906
   101  H    0.029493
   102  H    0.058781
   103  H    0.022263
   104  H   -0.027818
   105  H   -0.022397
   106  H    0.009412
   107  H   -0.042720
   108  H   -0.008934
   109  H   -0.024800
   110  H   -0.007321
   111  H    0.024334
   112  H    0.043833
   113  H    0.016970
   114  H   -0.024406
   115  H   -0.051479
   116  H   -0.002328
   117  H   -0.114599
   118  H   -0.019565
   119  H   -0.006642
   120  H   -0.032615
   121  H   -0.082763
   122  H   -0.035161
   123  H   -0.036377
   124  H   -0.042137
   125  H    0.001539
   126  H    0.008637
   127  H   -0.024597
   128  H   -0.019048
   129  H    0.011799
   130  H    0.001469
   131  H    0.003604
   132  H   -0.057110
   133  H   -0.002379
   134  H    0.018713
   135  H    0.029325
   136  H    0.017684
   137  H    0.157590
   138  H    0.189474
 Sum of Mulliken charges =  -0.00000

 Dipole moment (field-independent basis, Debye):
    X=              2.6274    Y=              3.7523    Z=              0.5191  Tot=              4.6101
 Quadrupole moment (field-independent basis, Debye-Ang):
   XX=           -360.5195   YY=           -381.8202   ZZ=           -392.6367
   XY=            -19.8089   XZ=             -3.4243   YZ=             -5.2957

 Normal termination of Gaussian 16 at Sun Aug 11 10:20:17 2019.
