 Gaussian 16, Revision A.03,
 Gaussian 16:  ES64L-G16RevA.03 25-Dec-2016

 --------------------------
 # td=(NStates=1) B3LYP/SVP
 --------------------------

 --
 TD
 --
 Symbolic Z-matrix:
 Charge =  0 Multiplicity = 1

                         Standard orientation:
 ---------------------------------------------------------------------
 Center     Atomic      Atomic             Coordinates (Angstroms)
 Number     Number       Type             X           Y           Z
 ---------------------------------------------------------------------
      1          6           0       -5.143794   -1.919555    0.342093
      2          6           0       -4.803554    2.833621    1.341838
      3          6           0       -9.464376    3.293294   -0.253686
      4          6           0       -9.916417   -1.459549   -0.796122
      5          7           0       -5.207902    0.454742    0.812669
      6          6           0       -4.473069   -0.656840    0.707528
      7          6           0       -3.028261   -0.416989    1.084783
      8          6           0       -3.086877    0.938181    1.722446
      9          6           0       -4.457982    1.426136    1.202420
     10          6           0       -2.885197    0.981046    3.270376
     11          6           0       -1.948341   -0.698187   -0.055844
     12          6           0       -0.577343   -0.750987    0.457562
     13          6           0        0.430436   -1.122830   -0.641620
     14          8           0        0.084855   -1.554919   -1.751705
     15          8           0        1.670282   -0.894429   -0.251732
     16          7           0       -7.087312    2.765451    0.455457
     17          6           0       -6.009359    3.436031    0.971761
     18          6           0       -6.263104    4.760762    1.048424
     19          6           0       -7.569206    4.962434    0.479374
     20          6           0       -8.126605    3.675857    0.156136
     21          6           0       -5.377232    5.884702    1.269204
     22          6           0       -8.208008    6.239384    0.211857
     23          6           0       -9.017743    6.638144   -0.800166
     24          7           0       -9.289977    0.854307   -0.438881
     25          6           0      -10.017497    2.008629   -0.421124
     26          6           0      -11.371846    1.792395   -0.823223
     27          6           0      -11.554163    0.521177   -0.994596
     28          6           0      -10.206146   -0.099795   -0.745746
     29          6           0      -12.433331    2.868245   -0.949406
     30          6           0      -12.769514   -0.290385   -1.303777
     31          6           0      -12.793177   -0.804677   -2.872681
     32          7           0       -7.492495   -1.197294   -0.136951
     33          6           0       -8.565198   -2.039477   -0.495085
     34          6           0       -8.156996   -3.475811   -0.457751
     35          6           0       -6.831567   -3.388955   -0.197572
     36          6           0       -6.442193   -2.038737   -0.022762
     37          6           0       -9.044767   -4.671404   -0.880499
     38          6           0       -5.601929   -4.224752    0.010684
     39          8           0       -5.575584   -5.414878   -0.048497
     40          6           0       -4.509023   -3.329767    0.293294
     41          6           0       -3.887910   -3.726380    1.627317
     42          8           0       -4.032460   -3.334475    2.670545
     43          8           0       -2.858898   -4.686019    1.388423
     44          6           0       -2.277998   -5.273640    2.556273
     45          6           0        2.817104   -1.142409   -1.078031
     46          6           0        4.042233   -0.551110   -0.468343
     47          6           0        5.090840    0.020291   -1.297715
     48          6           0        5.044041    0.443575   -2.749969
     49          6           0        6.341409    0.404966   -0.538332
     50          6           0        7.537412   -0.524357   -0.805107
     51          6           0        8.792690   -0.177190   -0.060532
     52          6           0       10.034319   -0.788161   -0.592223
     53          6           0       10.009634   -2.309611   -0.540151
     54          6           0       11.355081   -0.214523    0.033373
     55          6           0       12.651004   -0.709405   -0.507237
     56          6           0       13.757490    0.117967    0.173450
     57          6           0       15.265255   -0.266461   -0.196934
     58          6           0       15.617246   -1.781801   -0.073172
     59          6           0       16.252501    0.722689    0.512173
     60          6           0       17.676949    0.763074   -0.114481
     61          6           0       18.548325    1.875791    0.477480
     62          6           0       20.031520    1.744099    0.177237
     63          6           0       20.277610    1.756000   -1.451604
     64          6           0       20.814880    2.782626    0.980415
     65          1           0       -4.175678    3.225273    1.955529
     66          1           0      -10.152021    4.098961   -0.094644
     67          1           0      -10.532671   -2.248492   -1.034462
     68          1           0       -2.728342   -1.203977    1.831262
     69          1           0       -2.317441    1.579486    1.212834
     70          1           0       -1.889161    0.649867    3.641014
     71          1           0       -3.231669    2.003531    3.571052
     72          1           0       -3.636541    0.036897    3.806313
     73          1           0       -2.198475   -1.538548   -0.792608
     74          1           0       -2.015331    0.192874   -0.623188
     75          1           0       -0.454662    0.384136    0.774725
     76          1           0       -0.505753   -1.479281    1.470752
     77          1           0       -4.489139    6.109559    0.648586
     78          1           0       -5.942557    6.967093    1.277115
     79          1           0       -4.897189    5.785561    2.412081
     80          1           0       -7.745731    7.118784    0.805910
     81          1           0       -9.193909    5.925134   -1.684910
     82          1           0       -9.371263    7.559315   -1.010814
     83          1           0      -12.872081    3.244647    0.154163
     84          1           0      -12.298595    3.794157   -1.624996
     85          1           0      -13.371370    2.403405   -1.385592
     86          1           0      -12.637969   -1.358225   -0.781372
     87          1           0      -13.632411    0.300088   -1.225161
     88          1           0      -12.942165    0.153559   -3.480548
     89          1           0      -11.892056   -1.208470   -3.178282
     90          1           0      -13.720700   -1.464319   -3.271410
     91          1           0       -9.935016   -4.885255   -0.154439
     92          1           0       -9.447495   -4.769776   -1.812452
     93          1           0       -8.194347   -5.549285   -0.877645
     94          1           0       -3.581891   -3.376403   -0.411623
     95          1           0       -1.596297   -5.969704    2.028885
     96          1           0       -1.832677   -4.474911    3.254683
     97          1           0       -2.877766   -6.013286    3.206714
     98          1           0        2.781887   -2.268996   -1.272509
     99          1           0        2.629508   -0.716377   -2.082318
    100          1           0        4.277011   -0.455202    0.651510
    101          1           0        5.508366    1.345863   -2.769167
    102          1           0        5.900523   -0.039600   -3.485302
    103          1           0        4.161391    0.447569   -3.440145
    104          1           0        6.293674    1.503155   -0.905367
    105          1           0        6.378813    0.252292    0.496562
    106          1           0        7.273295   -1.731623   -0.572858
    107          1           0        7.735062   -0.668203   -2.123467
    108          1           0        8.930836    0.854455   -0.345858
    109          1           0        8.796258   -0.440551    0.959350
    110          1           0       10.123689   -0.570720   -1.724404
    111          1           0        9.054956   -2.917723   -0.922198
    112          1           0       10.871811   -2.845732   -0.841312
    113          1           0        9.839698   -2.531234    0.737676
    114          1           0       11.167859    0.890166    0.260117
    115          1           0       11.285494   -0.345019    1.054633
    116          1           0       12.637041   -1.667059   -0.295991
    117          1           0       12.749410   -0.517789   -1.639036
    118          1           0       13.672719    1.274700    0.037232
    119          1           0       13.563863   -0.083011    1.321928
    120          1           0       15.307633    0.235884   -1.235486
    121          1           0       14.684153   -2.301771   -0.605034
    122          1           0       16.558762   -2.303710   -0.410022
    123          1           0       15.334306   -1.856045    1.038024
    124          1           0       15.798914    1.595923    0.319112
    125          1           0       16.295952    0.435034    1.598392
    126          1           0       18.267437   -0.252039    0.073150
    127          1           0       17.731957    0.850151   -1.447040
    128          1           0       18.262000    2.894031    0.267814
    129          1           0       18.436835    1.873971    1.677870
    130          1           0       20.347223    0.612840    0.400317
    131          1           0       19.804179    2.777861   -2.003208
    132          1           0       21.399815    1.806623   -1.573503
    133          1           0       19.875533    0.791231   -2.115515
    134          1           0       20.975464    2.479546    2.080329
    135          1           0       21.778280    2.755735    0.564953
    136          1           0       20.597823    3.922461    0.880937
    137          1           0       -7.262707    1.700864    0.534773
    138          1           0       -7.687628   -0.067248   -0.186757
 ---------------------------------------------------------------------

 SCF Done:  E(RB3LYP) =  -2732.98683644     A.U. after   17 cycles

 Excitation energies and oscillator strengths:

 Excited State   1:      Singlet-A      1.9821 eV  625.50 nm  f=0.1831  <S**2>=0.000
     235 -> 238        0.30854
     236 -> 237        0.63064
 This state for optimization and/or second-order correction.
 Total Energy, E(TD-HF/TD-DFT) =  -2732.91399383
 Copying the excited state density for this state as the 1-particle RhoCI density.

 The electronic state is 1-A.
 Alpha  occ. eigenvalues --  -19.18073 -19.15800 -19.14215 -19.12327 -19.12157
 Alpha  occ. eigenvalues --  -14.37060 -14.36693 -14.32224 -14.30882 -10.31985
 Alpha  occ. eigenvalues --  -10.31534 -10.27640 -10.25920 -10.24433 -10.24173
 Alpha  occ. eigenvalues --  -10.23842 -10.23607 -10.22765 -10.22762 -10.22453
 Alpha  occ. eigenvalues --  -10.22377 -10.22232 -10.22150 -10.22028 -10.22004
 Alpha  occ. eigenvalues --  -10.21835 -10.21521 -10.21509 -10.21484 -10.21047
 Alpha  occ. eigenvalues --  -10.21006 -10.20850 -10.20841 -10.20835 -10.20770
 Alpha  occ. eigenvalues --  -10.20733 -10.20696 -10.20686 -10.20575 -10.20475
 Alpha  occ. eigenvalues --  -10.20374 -10.20222 -10.20164 -10.20152 -10.20092
 Alpha  occ. eigenvalues --  -10.19948 -10.19921 -10.19875 -10.19745 -10.19503
 Alpha  occ. eigenvalues --  -10.19501 -10.19306 -10.19199 -10.19180 -10.18866
 Alpha  occ. eigenvalues --  -10.18732 -10.18399 -10.18377 -10.18272 -10.18271
 Alpha  occ. eigenvalues --  -10.18235 -10.18153 -10.17859 -10.17703  -1.11897
 Alpha  occ. eigenvalues --   -1.09673  -1.04465  -1.01089  -0.99676  -0.97744
 Alpha  occ. eigenvalues --   -0.97173  -0.96410  -0.94556  -0.85982  -0.83489
 Alpha  occ. eigenvalues --   -0.82006  -0.81584  -0.81289  -0.80603  -0.80548
 Alpha  occ. eigenvalues --   -0.80118  -0.79682  -0.79268  -0.78369  -0.77875
 Alpha  occ. eigenvalues --   -0.77044  -0.76350  -0.75216  -0.75097  -0.73607
 Alpha  occ. eigenvalues --   -0.73238  -0.72643  -0.72100  -0.71736  -0.69913
 Alpha  occ. eigenvalues --   -0.69478  -0.68833  -0.68574  -0.67909  -0.67213
 Alpha  occ. eigenvalues --   -0.67159  -0.66385  -0.65951  -0.65555  -0.65380
 Alpha  occ. eigenvalues --   -0.64157  -0.62493  -0.62215  -0.61993  -0.61455
 Alpha  occ. eigenvalues --   -0.60861  -0.58602  -0.58060  -0.57957  -0.57557
 Alpha  occ. eigenvalues --   -0.57204  -0.56122  -0.55456  -0.55192  -0.55116
 Alpha  occ. eigenvalues --   -0.54364  -0.53959  -0.53702  -0.53230  -0.53196
 Alpha  occ. eigenvalues --   -0.52862  -0.52396  -0.52013  -0.51500  -0.50825
 Alpha  occ. eigenvalues --   -0.49906  -0.49697  -0.49439  -0.49080  -0.48488
 Alpha  occ. eigenvalues --   -0.47956  -0.47926  -0.47665  -0.47411  -0.47195
 Alpha  occ. eigenvalues --   -0.46963  -0.46278  -0.45941  -0.45940  -0.45657
 Alpha  occ. eigenvalues --   -0.45480  -0.45073  -0.44910  -0.44742  -0.44646
 Alpha  occ. eigenvalues --   -0.44380  -0.43972  -0.43745  -0.43524  -0.43339
 Alpha  occ. eigenvalues --   -0.43240  -0.43125  -0.42942  -0.42726  -0.42697
 Alpha  occ. eigenvalues --   -0.42474  -0.42248  -0.41681  -0.41487  -0.41310
 Alpha  occ. eigenvalues --   -0.41097  -0.40934  -0.40827  -0.40432  -0.40302
 Alpha  occ. eigenvalues --   -0.40121  -0.39897  -0.39496  -0.39347  -0.39271
 Alpha  occ. eigenvalues --   -0.38997  -0.38905  -0.38813  -0.38751  -0.38443
 Alpha  occ. eigenvalues --   -0.38353  -0.37972  -0.37849  -0.37587  -0.37471
 Alpha  occ. eigenvalues --   -0.37256  -0.37155  -0.36943  -0.36737  -0.36529
 Alpha  occ. eigenvalues --   -0.36399  -0.36188  -0.35999  -0.35724  -0.35689
 Alpha  occ. eigenvalues --   -0.35605  -0.35486  -0.35268  -0.35209  -0.34725
 Alpha  occ. eigenvalues --   -0.34470  -0.34343  -0.34185  -0.33975  -0.33835
 Alpha  occ. eigenvalues --   -0.33653  -0.32924  -0.32777  -0.32629  -0.32384
 Alpha  occ. eigenvalues --   -0.32335  -0.32047  -0.31564  -0.31307  -0.31107
 Alpha  occ. eigenvalues --   -0.30599  -0.30355  -0.30158  -0.29837  -0.29580
 Alpha  occ. eigenvalues --   -0.29427  -0.29065  -0.28878  -0.28622  -0.28316
 Alpha  occ. eigenvalues --   -0.27865  -0.27749  -0.27265  -0.27023  -0.25925
 Alpha  occ. eigenvalues --   -0.25410  -0.24013  -0.23628  -0.23155  -0.19561
 Alpha  occ. eigenvalues --   -0.18625
 Alpha virt. eigenvalues --   -0.10317  -0.07638  -0.04587  -0.02587  -0.02102
 Alpha virt. eigenvalues --   -0.00669  -0.00156   0.01121   0.02008   0.03025
 Alpha virt. eigenvalues --    0.03419   0.03664   0.03986   0.04035   0.04694

 Mulliken charges:
               1
     1  C   -0.053801
     2  C    0.008938
     3  C   -0.061225
     4  C   -0.042766
     5  N   -0.089682
     6  C   -0.066674
     7  C   -0.048098
     8  C   -0.032440
     9  C   -0.098102
    10  C    0.005591
    11  C    0.052516
    12  C   -0.056913
    13  C    0.202132
    14  O   -0.265172
    15  O   -0.287206
    16  N   -0.131849
    17  C    0.164000
    18  C   -0.042358
    19  C    0.035043
    20  C    0.059168
    21  C   -0.027924
    22  C   -0.070812
    23  C   -0.027068
    24  N   -0.256392
    25  C    0.067573
    26  C   -0.095826
    27  C   -0.045269
    28  C    0.124797
    29  C   -0.004080
    30  C    0.078183
    31  C   -0.050492
    32  N   -0.108576
    33  C   -0.016738
    34  C   -0.142975
    35  C   -0.012455
    36  C    0.137285
    37  C    0.027270
    38  C    0.072276
    39  O   -0.135908
    40  C   -0.018642
    41  C    0.169598
    42  O   -0.107882
    43  O   -0.362630
    44  C    0.138980
    45  C    0.272475
    46  C   -0.099936
    47  C   -0.137088
    48  C    0.070480
    49  C    0.092686
    50  C   -0.147900
    51  C    0.152182
    52  C   -0.076281
    53  C   -0.058621
    54  C    0.023634
    55  C    0.180288
    56  C   -0.095281
    57  C   -0.084475
    58  C   -0.001076
    59  C    0.122519
    60  C   -0.067266
    61  C    0.041560
    62  C   -0.129048
    63  C   -0.096791
    64  C    0.049754
    65  H   -0.108282
    66  H   -0.007217
    67  H   -0.066368
    68  H    0.008186
    69  H   -0.000807
    70  H    0.035212
    71  H    0.031120
    72  H    0.045497
    73  H    0.041064
    74  H   -0.015956
    75  H    0.045258
    76  H    0.060315
    77  H    0.042061
    78  H    0.031966
    79  H    0.028777
    80  H    0.014244
    81  H    0.035745
    82  H   -0.004721
    83  H    0.042653
    84  H    0.043874
    85  H    0.006120
    86  H    0.037885
    87  H   -0.007194
    88  H    0.008534
    89  H    0.009064
    90  H    0.033238
    91  H    0.044351
    92  H    0.015869
    93  H    0.062479
    94  H    0.092054
    95  H    0.034795
    96  H    0.038721
    97  H    0.033953
    98  H    0.037913
    99  H    0.016993
   100  H    0.025598
   101  H   -0.024322
   102  H    0.025907
   103  H    0.044093
   104  H    0.031108
   105  H   -0.012943
   106  H    0.029234
   107  H    0.010803
   108  H   -0.007195
   109  H   -0.006879
   110  H   -0.006372
   111  H    0.036178
   112  H    0.018996
   113  H   -0.012042
   114  H   -0.032567
   115  H   -0.059200
   116  H   -0.033015
   117  H    0.006736
   118  H    0.021463
   119  H   -0.002828
   120  H   -0.013081
   121  H    0.019392
   122  H    0.048450
   123  H    0.014469
   124  H   -0.044868
   125  H    0.001458
   126  H    0.009260
   127  H    0.020821
   128  H   -0.012709
   129  H   -0.002853
   130  H    0.014794
   131  H    0.026245
   132  H    0.022066
   133  H    0.050600
   134  H    0.028543
   135  H   -0.021767
   136  H    0.025183
   137  H    0.179514
   138  H    0.219124
 Sum of Mulliken charges =  -0.00000

 Dipole moment (field-independent basis, Debye):
    X=              3.7830    Y=              4.0980    Z=              0.4916  Tot=              5.5988
 Quadrupole moment (field-independent basis, Debye-Ang):
   XX=           -345.5370   YY=           -390.4701   ZZ=           -396.4740
   XY=            -12.9527   XZ=             13.0426   YZ=             -2.8910

 Normal termination of Gaussian 16 at Wed Aug 21 20:46:15 2019.
