 Gaussian 16, Revision A.03,
 Gaussian 16:  ES64L-G16RevA.03 25-Dec-2016

 --------------------------
 # td=(NStates=1) B3LYP/SVP
 --------------------------

 --
 TD
 --
 Symbolic Z-matrix:
 Charge =  0 Multiplicity = 1

                         Standard orientation:
 ---------------------------------------------------------------------
 Center     Atomic      Atomic             Coordinates (Angstroms)
 Number     Number       Type             X           Y           Z
 ---------------------------------------------------------------------
      1          6           0       -5.076201   -1.976483    0.544972
      2          6           0       -4.773474    2.709836    1.470309
      3          6           0       -9.359190    3.269228   -0.264704
      4          6           0       -9.884897   -1.526667   -0.967123
      5          7           0       -5.182601    0.423747    0.835677
      6          6           0       -4.507924   -0.706035    0.941529
      7          6           0       -3.044531   -0.564107    1.418372
      8          6           0       -3.043285    0.835044    1.806336
      9          6           0       -4.349238    1.363095    1.317626
     10          6           0       -3.035116    0.955884    3.333630
     11          6           0       -2.033350   -0.860332    0.246104
     12          6           0       -0.581013   -0.755172    0.607542
     13          6           0        0.355870   -1.002200   -0.489851
     14          8           0        0.035053   -1.396614   -1.565959
     15          8           0        1.638829   -0.771919   -0.138209
     16          7           0       -7.077500    2.719660    0.544984
     17          6           0       -6.021724    3.348258    1.030219
     18          6           0       -6.316119    4.750727    1.111203
     19          6           0       -7.640809    4.932576    0.531232
     20          6           0       -8.103607    3.633164    0.216110
     21          6           0       -5.423809    5.857292    1.616832
     22          6           0       -8.218068    6.191761    0.380348
     23          6           0       -9.212855    6.567676   -0.468495
     24          7           0       -9.140494    0.870591   -0.503873
     25          6           0       -9.907441    1.998760   -0.601520
     26          6           0      -11.279349    1.881018   -1.022249
     27          6           0      -11.544516    0.535487   -1.280497
     28          6           0      -10.090975   -0.070507   -0.967042
     29          6           0      -12.335014    2.948254   -1.124107
     30          6           0      -12.604544   -0.248207   -1.692119
     31          6           0      -12.528900   -0.543059   -3.245059
     32          7           0       -7.439864   -1.373148   -0.299111
     33          6           0       -8.611731   -2.133402   -0.718040
     34          6           0       -8.162142   -3.490766   -0.676034
     35          6           0       -6.808085   -3.491930   -0.265588
     36          6           0       -6.355145   -2.137131   -0.084710
     37          6           0       -8.894563   -4.768683   -1.025564
     38          6           0       -5.640354   -4.329432    0.095557
     39          8           0       -5.523760   -5.566920   -0.010170
     40          6           0       -4.441001   -3.315921    0.500599
     41          6           0       -3.870890   -3.823224    1.850969
     42          8           0       -4.176139   -3.569314    3.014416
     43          8           0       -3.054704   -4.899667    1.586261
     44          6           0       -2.511803   -5.455631    2.715323
     45          6           0        2.668350   -1.103473   -1.129538
     46          6           0        3.944243   -0.479824   -0.487379
     47          6           0        4.860431    0.227899   -1.164088
     48          6           0        4.600367    0.975562   -2.457873
     49          6           0        6.190978    0.578908   -0.518580
     50          6           0        7.421113    0.034234   -1.176887
     51          6           0        8.807608    0.186646   -0.435414
     52          6           0       10.158752   -0.355967   -0.951458
     53          6           0        9.982249   -1.861056   -1.350809
     54          6           0       11.343886   -0.141519    0.028355
     55          6           0       12.689167   -0.272990   -0.845502
     56          6           0       13.868123    0.018685    0.115491
     57          6           0       15.219685   -0.140804   -0.490308
     58          6           0       15.535383   -1.661062   -0.857623
     59          6           0       16.355898    0.418690    0.455580
     60          6           0       17.755407    0.479101   -0.124476
     61          6           0       18.642494    1.246790    0.749976
     62          6           0       20.173050    1.392637    0.338836
     63          6           0       20.354625    2.247272   -0.955038
     64          6           0       21.162922    1.893495    1.411549
     65          1           0       -4.258653    3.382432    2.037702
     66          1           0      -10.079009    4.034979   -0.329438
     67          1           0      -10.638546   -2.153172   -1.414733
     68          1           0       -2.549559   -1.154507    2.264182
     69          1           0       -2.266824    1.407444    1.507077
     70          1           0       -2.128097    0.670239    3.846246
     71          1           0       -2.975296    2.117233    3.580410
     72          1           0       -3.938460    0.772927    3.768331
     73          1           0       -2.213414   -1.959908   -0.099975
     74          1           0       -2.366990   -0.106696   -0.675214
     75          1           0       -0.421382    0.220725    1.168954
     76          1           0       -0.213161   -1.547363    1.586267
     77          1           0       -4.614440    6.012068    1.060458
     78          1           0       -6.054644    6.844323    1.578192
     79          1           0       -5.226673    5.603185    2.755708
     80          1           0       -7.939495    6.816847    1.277212
     81          1           0       -9.306947    5.941597   -1.272463
     82          1           0       -9.604317    7.680313   -0.633345
     83          1           0      -12.592941    3.096540    0.080634
     84          1           0      -12.197352    3.848570   -1.607104
     85          1           0      -13.257372    2.492948   -1.645858
     86          1           0      -12.640111   -1.100396   -1.102729
     87          1           0      -13.578447    0.275287   -1.338565
     88          1           0      -12.546063    0.372174   -3.775070
     89          1           0      -11.660388   -0.902587   -3.700375
     90          1           0      -13.329535   -1.212298   -3.449576
     91          1           0       -9.680161   -4.900707   -0.318176
     92          1           0       -9.326195   -4.704854   -2.007971
     93          1           0       -8.075784   -5.669150   -0.818565
     94          1           0       -3.768130   -3.458193   -0.178416
     95          1           0       -2.030034   -6.470810    2.351322
     96          1           0       -1.670465   -4.646095    3.094501
     97          1           0       -3.437473   -5.633370    3.479602
     98          1           0        2.751780   -2.194276   -1.197909
     99          1           0        2.414983   -0.433572   -2.115185
    100          1           0        4.195431   -0.981961    0.436557
    101          1           0        4.502649    2.101039   -2.280662
    102          1           0        5.516478    1.074934   -3.291876
    103          1           0        3.568601    0.372214   -2.938823
    104          1           0        6.242237    1.663298   -0.363782
    105          1           0        6.125924    0.110401    0.519655
    106          1           0        7.347891   -0.986129   -1.350253
    107          1           0        7.490310    0.487670   -2.112687
    108          1           0        8.844487    1.209842   -0.219975
    109          1           0        8.551673   -0.309461    0.745868
    110          1           0       10.259590    0.307745   -1.928621
    111          1           0        9.181670   -2.173557   -2.183620
    112          1           0       10.806335   -2.152950   -1.883760
    113          1           0        9.830502   -2.356621   -0.443999
    114          1           0       11.328227    0.845819    0.377154
    115          1           0       11.306138   -1.004580    0.736172
    116          1           0       12.884557   -1.221359   -1.259822
    117          1           0       12.525243    0.515339   -1.736843
    118          1           0       13.828794    1.135262    0.656264
    119          1           0       13.695161   -0.584679    1.021435
    120          1           0       15.155774    0.555335   -1.473175
    121          1           0       14.755761   -2.095226   -1.422641
    122          1           0       16.565665   -1.680922   -1.324079
    123          1           0       15.604092   -2.251786    0.065340
    124          1           0       16.081744    1.294678    0.833678
    125          1           0       16.277970    0.096413    1.483793
    126          1           0       18.141413   -0.621765   -0.147767
    127          1           0       17.533173    0.884107   -1.182493
    128          1           0       18.477047    2.321642    0.870611
    129          1           0       18.629478    0.743491    1.776023
    130          1           0       20.400595    0.283151    0.031679
    131          1           0       20.130280    3.427673   -0.899857
    132          1           0       21.470967    2.009322   -1.276965
    133          1           0       19.771476    1.748651   -1.787029
    134          1           0       21.267129    1.233617    2.343555
    135          1           0       22.249272    1.972784    1.065212
    136          1           0       20.745027    2.926162    1.773390
    137          1           0       -7.069399    1.668732    0.378036
    138          1           0       -7.544437   -0.335041   -0.477848
 ---------------------------------------------------------------------

 SCF Done:  E(RB3LYP) =  -2733.08143975     A.U. after   17 cycles

 Excitation energies and oscillator strengths:

 Excited State   1:      Singlet-A      1.9879 eV  623.68 nm  f=0.1740  <S**2>=0.000
     235 -> 237       -0.23358
     235 -> 238        0.28812
     236 -> 237        0.58319
     236 -> 238        0.13941
 This state for optimization and/or second-order correction.
 Total Energy, E(TD-HF/TD-DFT) =  -2733.00838432
 Copying the excited state density for this state as the 1-particle RhoCI density.

 The electronic state is 1-A.
 Alpha  occ. eigenvalues --  -19.16981 -19.16848 -19.12513 -19.12196 -19.12079
 Alpha  occ. eigenvalues --  -14.37086 -14.36556 -14.32986 -14.31679 -10.31475
 Alpha  occ. eigenvalues --  -10.31008 -10.28281 -10.26162 -10.25404 -10.23971
 Alpha  occ. eigenvalues --  -10.23885 -10.23823 -10.23657 -10.23448 -10.23154
 Alpha  occ. eigenvalues --  -10.23078 -10.22415 -10.22279 -10.21830 -10.21666
 Alpha  occ. eigenvalues --  -10.21491 -10.21314 -10.20877 -10.20711 -10.20628
 Alpha  occ. eigenvalues --  -10.20617 -10.20562 -10.20560 -10.20501 -10.20482
 Alpha  occ. eigenvalues --  -10.20302 -10.20265 -10.20013 -10.19916 -10.19803
 Alpha  occ. eigenvalues --  -10.19795 -10.19739 -10.19713 -10.19664 -10.19602
 Alpha  occ. eigenvalues --  -10.19557 -10.19441 -10.19308 -10.19260 -10.19193
 Alpha  occ. eigenvalues --  -10.19167 -10.19092 -10.19050 -10.19045 -10.19041
 Alpha  occ. eigenvalues --  -10.19008 -10.18958 -10.18689 -10.18408 -10.18272
 Alpha  occ. eigenvalues --  -10.18029 -10.17809 -10.17382 -10.16516  -1.09359
 Alpha  occ. eigenvalues --   -1.09298  -1.00786  -1.00634  -0.99682  -0.98331
 Alpha  occ. eigenvalues --   -0.97007  -0.96335  -0.92617  -0.84355  -0.82750
 Alpha  occ. eigenvalues --   -0.82535  -0.82334  -0.81800  -0.81573  -0.80553
 Alpha  occ. eigenvalues --   -0.80064  -0.79492  -0.79057  -0.78805  -0.77933
 Alpha  occ. eigenvalues --   -0.76675  -0.75966  -0.75817  -0.75214  -0.74938
 Alpha  occ. eigenvalues --   -0.73074  -0.72609  -0.72006  -0.71355  -0.70544
 Alpha  occ. eigenvalues --   -0.69837  -0.69117  -0.68119  -0.67524  -0.67372
 Alpha  occ. eigenvalues --   -0.67146  -0.66607  -0.65851  -0.65754  -0.65535
 Alpha  occ. eigenvalues --   -0.65256  -0.63708  -0.63406  -0.62146  -0.61215
 Alpha  occ. eigenvalues --   -0.60892  -0.59340  -0.58162  -0.57976  -0.57866
 Alpha  occ. eigenvalues --   -0.57484  -0.55615  -0.55573  -0.54735  -0.54471
 Alpha  occ. eigenvalues --   -0.54157  -0.53779  -0.53413  -0.53316  -0.53174
 Alpha  occ. eigenvalues --   -0.52571  -0.51959  -0.51630  -0.51149  -0.51064
 Alpha  occ. eigenvalues --   -0.50154  -0.49998  -0.49623  -0.48776  -0.48624
 Alpha  occ. eigenvalues --   -0.47856  -0.47696  -0.47501  -0.47234  -0.46996
 Alpha  occ. eigenvalues --   -0.46712  -0.46413  -0.46159  -0.46080  -0.46024
 Alpha  occ. eigenvalues --   -0.45634  -0.45373  -0.44882  -0.44761  -0.44556
 Alpha  occ. eigenvalues --   -0.44365  -0.44026  -0.43952  -0.43632  -0.43306
 Alpha  occ. eigenvalues --   -0.43118  -0.42886  -0.42798  -0.42733  -0.42614
 Alpha  occ. eigenvalues --   -0.42289  -0.42166  -0.41885  -0.41818  -0.41713
 Alpha  occ. eigenvalues --   -0.41249  -0.41082  -0.40933  -0.40812  -0.40629
 Alpha  occ. eigenvalues --   -0.40498  -0.39867  -0.39555  -0.39406  -0.39323
 Alpha  occ. eigenvalues --   -0.39113  -0.38942  -0.38753  -0.38485  -0.38371
 Alpha  occ. eigenvalues --   -0.38114  -0.38078  -0.37839  -0.37554  -0.37528
 Alpha  occ. eigenvalues --   -0.37402  -0.37274  -0.37167  -0.37067  -0.36770
 Alpha  occ. eigenvalues --   -0.36548  -0.36270  -0.36205  -0.36124  -0.36028
 Alpha  occ. eigenvalues --   -0.35864  -0.35694  -0.35663  -0.35168  -0.35034
 Alpha  occ. eigenvalues --   -0.34867  -0.34343  -0.34234  -0.33999  -0.33319
 Alpha  occ. eigenvalues --   -0.33188  -0.32950  -0.32821  -0.32707  -0.32282
 Alpha  occ. eigenvalues --   -0.32105  -0.31916  -0.31812  -0.31583  -0.31283
 Alpha  occ. eigenvalues --   -0.30800  -0.30741  -0.30266  -0.30016  -0.29831
 Alpha  occ. eigenvalues --   -0.29401  -0.29246  -0.29158  -0.28356  -0.28320
 Alpha  occ. eigenvalues --   -0.28060  -0.27984  -0.27538  -0.25949  -0.25646
 Alpha  occ. eigenvalues --   -0.25402  -0.24803  -0.23401  -0.23057  -0.19643
 Alpha  occ. eigenvalues --   -0.19056
 Alpha virt. eigenvalues --   -0.10756  -0.07834  -0.04558  -0.02505  -0.01254
 Alpha virt. eigenvalues --   -0.00836  -0.00466   0.00262   0.01485   0.03213
 Alpha virt. eigenvalues --    0.03587   0.04072   0.04331   0.04542   0.04623

 Mulliken charges:
               1
     1  C    0.033711
     2  C   -0.024762
     3  C   -0.091629
     4  C   -0.035507
     5  N   -0.120797
     6  C   -0.010471
     7  C   -0.038595
     8  C    0.066507
     9  C    0.004387
    10  C    0.082023
    11  C   -0.015506
    12  C   -0.059541
    13  C    0.193168
    14  O   -0.211127
    15  O   -0.334523
    16  N   -0.056596
    17  C    0.027527
    18  C   -0.180298
    19  C    0.074254
    20  C    0.131279
    21  C    0.113034
    22  C   -0.102061
    23  C   -0.030501
    24  N   -0.259997
    25  C    0.085649
    26  C   -0.141903
    27  C   -0.085669
    28  C    0.030980
    29  C    0.061234
    30  C    0.062314
    31  C    0.080757
    32  N   -0.108376
    33  C    0.070310
    34  C   -0.144219
    35  C   -0.015403
    36  C    0.039736
    37  C    0.082166
    38  C    0.068150
    39  O   -0.199735
    40  C    0.056998
    41  C    0.195317
    42  O   -0.233890
    43  O   -0.278855
    44  C    0.079263
    45  C    0.219068
    46  C   -0.073131
    47  C   -0.096056
    48  C   -0.056398
    49  C    0.061627
    50  C    0.105002
    51  C   -0.020102
    52  C   -0.100749
    53  C    0.062327
    54  C    0.094392
    55  C   -0.001779
    56  C   -0.025757
    57  C   -0.066694
    58  C    0.046818
    59  C    0.085953
    60  C    0.060179
    61  C    0.009130
    62  C   -0.117485
    63  C   -0.041858
    64  C    0.000248
    65  H   -0.078201
    66  H   -0.055650
    67  H   -0.013297
    68  H    0.018049
    69  H   -0.046099
    70  H    0.014623
    71  H   -0.008233
    72  H    0.004847
    73  H    0.040885
    74  H    0.041721
    75  H    0.035226
    76  H    0.057773
    77  H    0.006318
    78  H    0.015871
    79  H    0.048844
    80  H    0.027509
    81  H    0.005816
    82  H    0.051477
    83  H    0.049493
    84  H    0.013748
    85  H    0.022738
    86  H   -0.010076
    87  H    0.009591
    88  H   -0.005938
    89  H   -0.001712
    90  H    0.009658
    91  H    0.015430
    92  H    0.025770
    93  H    0.074276
    94  H   -0.015029
    95  H    0.049072
    96  H    0.033831
    97  H    0.066026
    98  H    0.041904
    99  H    0.057911
   100  H   -0.006157
   101  H    0.042823
   102  H    0.043033
   103  H    0.046664
   104  H    0.000832
   105  H   -0.010025
   106  H   -0.027108
   107  H   -0.033252
   108  H   -0.026722
   109  H   -0.019720
   110  H   -0.000922
   111  H    0.022232
   112  H   -0.021465
   113  H    0.002216
   114  H   -0.008472
   115  H    0.011388
   116  H   -0.008863
   117  H    0.014110
   118  H   -0.002327
   119  H   -0.012852
   120  H    0.006676
   121  H    0.000958
   122  H    0.021769
   123  H    0.000993
   124  H   -0.080997
   125  H   -0.049271
   126  H    0.014505
   127  H    0.015100
   128  H   -0.009413
   129  H    0.003711
   130  H   -0.008340
   131  H    0.037911
   132  H    0.020976
   133  H    0.016821
   134  H    0.014275
   135  H    0.023625
   136  H    0.017365
   137  H    0.170458
   138  H    0.169754
 Sum of Mulliken charges =  -0.00000

 Dipole moment (field-independent basis, Debye):
    X=              1.3121    Y=              5.1230    Z=             -0.5665  Tot=              5.3186
 Quadrupole moment (field-independent basis, Debye-Ang):
   XX=           -331.9167   YY=           -393.4490   ZZ=           -397.5182
   XY=            -28.7118   XZ=             20.8971   YZ=              2.9749

 Normal termination of Gaussian 16 at Sun Aug 18 23:22:34 2019.
