 Gaussian 16, Revision A.03,
 Gaussian 16:  ES64L-G16RevA.03 25-Dec-2016

 --------------------------
 # td=(NStates=1) B3LYP/SVP
 --------------------------

 --
 TD
 --
 Symbolic Z-matrix:
 Charge =  0 Multiplicity = 1

                         Standard orientation:
 ---------------------------------------------------------------------
 Center     Atomic      Atomic             Coordinates (Angstroms)
 Number     Number       Type             X           Y           Z
 ---------------------------------------------------------------------
      1          6           0       -5.121017   -1.886015    0.399007
      2          6           0       -4.720837    2.661692    1.558672
      3          6           0       -9.286638    3.339774   -0.311340
      4          6           0       -9.902529   -1.425066   -0.809076
      5          7           0       -5.099033    0.446522    0.843934
      6          6           0       -4.463981   -0.765010    0.853823
      7          6           0       -3.056666   -0.609584    1.295485
      8          6           0       -3.078646    0.779977    1.833816
      9          6           0       -4.344374    1.288761    1.377885
     10          6           0       -2.907817    0.788315    3.408057
     11          6           0       -2.086193   -0.846357    0.159664
     12          6           0       -0.537357   -0.875035    0.546256
     13          6           0        0.478918   -1.159981   -0.580008
     14          8           0        0.021057   -1.402232   -1.743730
     15          8           0        1.675986   -0.779696   -0.271467
     16          7           0       -6.940194    2.729470    0.470332
     17          6           0       -5.933966    3.317320    1.142421
     18          6           0       -6.234609    4.740916    1.158683
     19          6           0       -7.534916    4.928069    0.614223
     20          6           0       -7.968588    3.665830    0.207596
     21          6           0       -5.127525    5.755257    1.654103
     22          6           0       -8.106170    6.341663    0.506498
     23          6           0       -8.943877    6.739799   -0.538418
     24          7           0       -9.264551    0.949583   -0.403226
     25          6           0       -9.839196    2.103545   -0.555233
     26          6           0      -11.249107    1.883561   -1.077305
     27          6           0      -11.429276    0.530555   -1.210741
     28          6           0      -10.132905   -0.041079   -0.845736
     29          6           0      -12.225382    3.001143   -1.428830
     30          6           0      -12.640261   -0.080628   -1.760073
     31          6           0      -12.485257   -0.434090   -3.212432
     32          7           0       -7.524111   -1.203184   -0.122740
     33          6           0       -8.692952   -1.995621   -0.466228
     34          6           0       -8.239063   -3.340571   -0.629122
     35          6           0       -6.959341   -3.420940   -0.228459
     36          6           0       -6.526941   -2.082515    0.123656
     37          6           0       -9.151489   -4.559886   -0.856643
     38          6           0       -5.779889   -4.304453    0.058108
     39          8           0       -5.788420   -5.474934   -0.049790
     40          6           0       -4.576413   -3.336304    0.374183
     41          6           0       -3.926099   -3.891533    1.659844
     42          8           0       -4.228557   -3.454813    2.741891
     43          8           0       -2.968646   -4.794721    1.385580
     44          6           0       -2.617130   -5.677286    2.428860
     45          6           0        2.695491   -0.967934   -1.352472
     46          6           0        4.073801   -0.731265   -0.704142
     47          6           0        4.946896    0.107286   -1.223769
     48          6           0        4.836568    0.844877   -2.537244
     49          6           0        6.220656    0.275757   -0.310134
     50          6           0        7.474406   -0.324357   -1.034747
     51          6           0        8.751331   -0.118812   -0.144157
     52          6           0       10.094646   -0.666398   -0.715899
     53          6           0       10.010419   -2.061126   -0.872092
     54          6           0       11.327823   -0.202721    0.100540
     55          6           0       12.685015   -0.458967   -0.602577
     56          6           0       13.797718    0.047284    0.298309
     57          6           0       15.184408   -0.123029   -0.368459
     58          6           0       15.544373   -1.548684   -0.590563
     59          6           0       16.194113    0.658545    0.383545
     60          6           0       17.655796    0.670299   -0.134415
     61          6           0       18.614173    1.543562    0.669065
     62          6           0       20.082282    1.521764    0.138560
     63          6           0       20.312285    2.086823   -1.244477
     64          6           0       21.069210    2.175140    1.173009
     65          1           0       -3.811919    3.237858    1.836647
     66          1           0       -9.863124    4.109975   -0.506685
     67          1           0      -10.869922   -2.036406   -1.095444
     68          1           0       -2.941233   -1.342265    2.115427
     69          1           0       -2.137468    1.354689    1.601139
     70          1           0       -1.975208    0.242100    3.788922
     71          1           0       -2.858204    1.851347    3.654540
     72          1           0       -3.785667    0.370291    4.035689
     73          1           0       -2.287342   -1.748398   -0.453104
     74          1           0       -2.359125    0.196768   -0.265254
     75          1           0       -0.044136    0.165793    0.934117
     76          1           0       -0.429865   -1.641879    1.229118
     77          1           0       -4.199696    5.816241    1.390738
     78          1           0       -5.501925    6.790092    1.564427
     79          1           0       -5.063098    5.758215    2.849361
     80          1           0       -8.049713    6.878559    1.376503
     81          1           0       -9.270224    6.100818   -1.384112
     82          1           0       -9.365015    7.773072   -0.615582
     83          1           0      -12.448476    3.712431   -0.374050
     84          1           0      -11.865511    3.639684   -2.219609
     85          1           0      -13.179955    2.832189   -1.830449
     86          1           0      -12.755515   -1.228516   -1.357617
     87          1           0      -13.668951    0.361317   -1.490276
     88          1           0      -12.283880    0.554995   -3.726884
     89          1           0      -11.562071   -1.130142   -3.323548
     90          1           0      -13.355376   -0.950381   -3.622846
     91          1           0      -10.094772   -4.278541   -0.344692
     92          1           0       -9.208555   -4.788703   -1.843439
     93          1           0       -8.603735   -5.516510   -0.365673
     94          1           0       -3.735254   -3.654531   -0.266665
     95          1           0       -1.923298   -6.522949    2.220893
     96          1           0       -1.896317   -5.049041    3.177734
     97          1           0       -3.476520   -5.945294    2.889776
     98          1           0        2.603453   -2.046057   -1.556290
     99          1           0        2.373916   -0.244786   -2.177683
    100          1           0        4.135359   -1.266064    0.198122
    101          1           0        5.226468    1.887824   -2.495419
    102          1           0        5.640387    0.186240   -3.341355
    103          1           0        3.609771    0.790058   -2.627032
    104          1           0        6.190368    1.391245   -0.193355
    105          1           0        6.214114   -0.056371    0.652421
    106          1           0        7.183046   -1.361447   -1.047016
    107          1           0        7.766129   -0.025039   -2.060959
    108          1           0        8.968439    0.966478    0.111642
    109          1           0        8.625135   -0.638062    0.951185
    110          1           0       10.278529   -0.197031   -1.752342
    111          1           0        9.185386   -2.591479   -1.508539
    112          1           0       10.879136   -2.562230   -1.137570
    113          1           0        9.620905   -2.682161    0.154736
    114          1           0       11.183018    0.988886    0.099871
    115          1           0       11.450127   -0.636857    1.098418
    116          1           0       12.616374   -1.397806   -0.665188
    117          1           0       12.728674   -0.080153   -1.708829
    118          1           0       13.572108    1.166002    0.391850
    119          1           0       13.638232   -0.518803    1.159276
    120          1           0       15.112218    0.333431   -1.477511
    121          1           0       14.923943   -2.205507   -1.194164
    122          1           0       16.386656   -1.751419   -0.983804
    123          1           0       15.364483   -2.221853    0.342107
    124          1           0       15.591252    1.476846    0.606865
    125          1           0       16.244509    0.121112    1.510761
    126          1           0       17.927041   -0.322959   -0.351573
    127          1           0       17.531942    1.213660   -1.102475
    128          1           0       18.166914    2.505759    0.746037
    129          1           0       18.639769    1.361079    1.556037
    130          1           0       20.337140    0.518391    0.075219
    131          1           0       19.857982    3.125745   -1.347787
    132          1           0       21.466567    2.294626   -1.686428
    133          1           0       19.604937    1.511089   -2.092250
    134          1           0       20.874658    1.767616    2.081822
    135          1           0       22.024370    1.947532    0.799213
    136          1           0       21.029709    3.323751    1.086377
    137          1           0       -7.117643    1.784887    0.511109
    138          1           0       -8.024115   -0.148240    0.102974
 ---------------------------------------------------------------------

 SCF Done:  E(RB3LYP) =  -2732.98951964     A.U. after   17 cycles

 Excitation energies and oscillator strengths:

 Excited State   1:      Singlet-A      2.0832 eV  595.16 nm  f=0.1661  <S**2>=0.000
     235 -> 237       -0.21520
     235 -> 238       -0.26481
     236 -> 237        0.59895
     236 -> 238       -0.14738
 This state for optimization and/or second-order correction.
 Total Energy, E(TD-HF/TD-DFT) =  -2732.91296284
 Copying the excited state density for this state as the 1-particle RhoCI density.

 The electronic state is 1-A.
 Alpha  occ. eigenvalues --  -19.18814 -19.18623 -19.12495 -19.12405 -19.10723
 Alpha  occ. eigenvalues --  -14.36247 -14.35835 -14.31011 -14.30941 -10.31708
 Alpha  occ. eigenvalues --  -10.31027 -10.27948 -10.25987 -10.25226 -10.23930
 Alpha  occ. eigenvalues --  -10.23657 -10.23425 -10.23085 -10.22367 -10.22149
 Alpha  occ. eigenvalues --  -10.21717 -10.21542 -10.21449 -10.21341 -10.21137
 Alpha  occ. eigenvalues --  -10.21089 -10.20873 -10.20848 -10.20846 -10.20769
 Alpha  occ. eigenvalues --  -10.20582 -10.20481 -10.20359 -10.20272 -10.20194
 Alpha  occ. eigenvalues --  -10.20056 -10.20045 -10.19888 -10.19606 -10.19560
 Alpha  occ. eigenvalues --  -10.19542 -10.19539 -10.19284 -10.19279 -10.19238
 Alpha  occ. eigenvalues --  -10.19227 -10.19205 -10.19173 -10.19114 -10.18994
 Alpha  occ. eigenvalues --  -10.18892 -10.18888 -10.18830 -10.18619 -10.18461
 Alpha  occ. eigenvalues --  -10.18455 -10.18206 -10.18171 -10.18102 -10.17969
 Alpha  occ. eigenvalues --  -10.17075 -10.16952 -10.16451 -10.15973  -1.10307
 Alpha  occ. eigenvalues --   -1.09907  -1.05082  -1.01500  -0.98274  -0.97378
 Alpha  occ. eigenvalues --   -0.97082  -0.95981  -0.94479  -0.83506  -0.83263
 Alpha  occ. eigenvalues --   -0.82751  -0.81723  -0.81498  -0.81138  -0.80793
 Alpha  occ. eigenvalues --   -0.80358  -0.79635  -0.79160  -0.78493  -0.77593
 Alpha  occ. eigenvalues --   -0.76712  -0.76211  -0.75175  -0.74803  -0.74313
 Alpha  occ. eigenvalues --   -0.73839  -0.73454  -0.72947  -0.72135  -0.70579
 Alpha  occ. eigenvalues --   -0.69673  -0.69410  -0.69112  -0.68498  -0.67837
 Alpha  occ. eigenvalues --   -0.67262  -0.66995  -0.66711  -0.65715  -0.65482
 Alpha  occ. eigenvalues --   -0.63741  -0.63164  -0.62390  -0.61722  -0.61523
 Alpha  occ. eigenvalues --   -0.60843  -0.60171  -0.58346  -0.58048  -0.57633
 Alpha  occ. eigenvalues --   -0.57392  -0.56509  -0.56506  -0.56132  -0.55828
 Alpha  occ. eigenvalues --   -0.55616  -0.54839  -0.54382  -0.53573  -0.53262
 Alpha  occ. eigenvalues --   -0.53056  -0.51765  -0.51176  -0.50945  -0.50532
 Alpha  occ. eigenvalues --   -0.49842  -0.49696  -0.49530  -0.49168  -0.48502
 Alpha  occ. eigenvalues --   -0.47797  -0.47644  -0.47296  -0.47235  -0.47024
 Alpha  occ. eigenvalues --   -0.46851  -0.46517  -0.46323  -0.46193  -0.45908
 Alpha  occ. eigenvalues --   -0.45772  -0.45373  -0.45302  -0.45143  -0.45014
 Alpha  occ. eigenvalues --   -0.44365  -0.44146  -0.43998  -0.43641  -0.43545
 Alpha  occ. eigenvalues --   -0.43337  -0.43254  -0.43059  -0.42750  -0.42638
 Alpha  occ. eigenvalues --   -0.42528  -0.42324  -0.42100  -0.41886  -0.41424
 Alpha  occ. eigenvalues --   -0.41241  -0.41061  -0.40634  -0.40557  -0.40383
 Alpha  occ. eigenvalues --   -0.40138  -0.40071  -0.39984  -0.39778  -0.39409
 Alpha  occ. eigenvalues --   -0.39076  -0.38800  -0.38740  -0.38644  -0.38284
 Alpha  occ. eigenvalues --   -0.38020  -0.37748  -0.37645  -0.37622  -0.37387
 Alpha  occ. eigenvalues --   -0.37244  -0.37174  -0.36947  -0.36892  -0.36678
 Alpha  occ. eigenvalues --   -0.36358  -0.36289  -0.36124  -0.36036  -0.35671
 Alpha  occ. eigenvalues --   -0.35477  -0.35359  -0.35138  -0.35063  -0.35035
 Alpha  occ. eigenvalues --   -0.34863  -0.34482  -0.34417  -0.34310  -0.34176
 Alpha  occ. eigenvalues --   -0.33971  -0.33623  -0.33004  -0.32954  -0.32373
 Alpha  occ. eigenvalues --   -0.32190  -0.31944  -0.31808  -0.31696  -0.31212
 Alpha  occ. eigenvalues --   -0.30981  -0.30479  -0.30213  -0.29930  -0.29887
 Alpha  occ. eigenvalues --   -0.29712  -0.29070  -0.28832  -0.27838  -0.27745
 Alpha  occ. eigenvalues --   -0.27042  -0.26789  -0.26440  -0.26267  -0.25698
 Alpha  occ. eigenvalues --   -0.25118  -0.24938  -0.24193  -0.23102  -0.19738
 Alpha  occ. eigenvalues --   -0.18543
 Alpha virt. eigenvalues --   -0.10050  -0.07189  -0.03636  -0.02445  -0.00546
 Alpha virt. eigenvalues --   -0.00133  -0.00001   0.00683   0.02419   0.02647
 Alpha virt. eigenvalues --    0.03754   0.04199   0.04427   0.04617   0.04854

 Mulliken charges:
               1
     1  C    0.098979
     2  C   -0.059621
     3  C    0.001426
     4  C   -0.099637
     5  N   -0.082890
     6  C   -0.129401
     7  C    0.096253
     8  C   -0.096394
     9  C   -0.042066
    10  C    0.009781
    11  C    0.041015
    12  C    0.027678
    13  C    0.171784
    14  O   -0.307789
    15  O   -0.291218
    16  N   -0.008001
    17  C    0.083308
    18  C   -0.124693
    19  C   -0.001671
    20  C    0.069372
    21  C    0.127427
    22  C    0.016904
    23  C   -0.058177
    24  N   -0.222778
    25  C    0.062028
    26  C   -0.116648
    27  C   -0.038240
    28  C    0.030684
    29  C    0.065656
    30  C   -0.026095
    31  C    0.002357
    32  N   -0.170847
    33  C    0.087974
    34  C   -0.197222
    35  C    0.021096
    36  C    0.048263
    37  C    0.102796
    38  C    0.080223
    39  O   -0.125929
    40  C   -0.080426
    41  C    0.168224
    42  O   -0.215454
    43  O   -0.293645
    44  C    0.192041
    45  C    0.234742
    46  C   -0.054664
    47  C   -0.146314
    48  C   -0.003927
    49  C    0.112468
    50  C    0.042478
    51  C   -0.022128
    52  C   -0.023644
    53  C   -0.001752
    54  C   -0.027594
    55  C    0.081999
    56  C    0.063289
    57  C   -0.094164
    58  C    0.110820
    59  C    0.041251
    60  C    0.078129
    61  C    0.218592
    62  C   -0.065779
    63  C   -0.083893
    64  C    0.086872
    65  H   -0.014950
    66  H   -0.123169
    67  H    0.019552
    68  H    0.000735
    69  H    0.006512
    70  H    0.031717
    71  H    0.002768
    72  H    0.033719
    73  H    0.039136
    74  H    0.020202
    75  H    0.052208
    76  H   -0.001486
    77  H   -0.014194
    78  H   -0.005668
    79  H    0.018316
    80  H    0.001571
    81  H    0.045011
    82  H    0.036026
    83  H    0.037352
    84  H    0.014844
    85  H   -0.009418
    86  H   -0.002034
    87  H    0.031476
    88  H    0.012652
    89  H    0.025347
    90  H    0.016430
    91  H    0.036730
    92  H    0.001399
    93  H    0.052764
    94  H    0.046783
    95  H    0.045732
    96  H    0.024821
    97  H    0.014401
    98  H    0.029131
    99  H    0.057108
   100  H   -0.021852
   101  H    0.037453
   102  H    0.070464
   103  H    0.050112
   104  H   -0.001021
   105  H   -0.032084
   106  H   -0.001300
   107  H    0.009251
   108  H   -0.003142
   109  H    0.004261
   110  H   -0.003906
   111  H    0.013315
   112  H   -0.009758
   113  H   -0.008762
   114  H    0.004813
   115  H   -0.002808
   116  H   -0.085285
   117  H   -0.001684
   118  H    0.007901
   119  H   -0.019846
   120  H   -0.004717
   121  H   -0.021756
   122  H   -0.057007
   123  H   -0.011263
   124  H   -0.040219
   125  H   -0.022131
   126  H   -0.011814
   127  H   -0.007010
   128  H   -0.036791
   129  H   -0.122366
   130  H   -0.024124
   131  H    0.006337
   132  H    0.035226
   133  H    0.023774
   134  H   -0.009212
   135  H   -0.011565
   136  H    0.012418
   137  H    0.104547
   138  H    0.244819
 Sum of Mulliken charges =  -0.00000

 Dipole moment (field-independent basis, Debye):
    X=              3.5324    Y=              2.8921    Z=              0.9419  Tot=              4.6614
 Quadrupole moment (field-independent basis, Debye-Ang):
   XX=           -347.5520   YY=           -375.3263   ZZ=           -398.9768
   XY=            -28.7330   XZ=              8.9606   YZ=             -3.4635

 Normal termination of Gaussian 16 at Thu Aug 22 11:19:47 2019.
