 Gaussian 16, Revision A.03,
 Gaussian 16:  ES64L-G16RevA.03 25-Dec-2016

 --------------------------
 # td=(NStates=1) B3LYP/SVP
 --------------------------

 --
 TD
 --
 Symbolic Z-matrix:
 Charge =  0 Multiplicity = 1

                         Standard orientation:
 ---------------------------------------------------------------------
 Center     Atomic      Atomic             Coordinates (Angstroms)
 Number     Number       Type             X           Y           Z
 ---------------------------------------------------------------------
      1          6           0       -5.073807   -1.928016    0.334835
      2          6           0       -4.828439    2.752054    1.573208
      3          6           0       -9.363837    3.448247   -0.216934
      4          6           0       -9.849257   -1.476815   -0.876708
      5          7           0       -5.200130    0.404764    0.867867
      6          6           0       -4.490792   -0.746428    0.820047
      7          6           0       -3.145494   -0.598329    1.216477
      8          6           0       -3.067716    0.823843    1.895546
      9          6           0       -4.453952    1.438644    1.497482
     10          6           0       -2.914021    0.565582    3.461096
     11          6           0       -2.117265   -0.752474    0.109951
     12          6           0       -0.669608   -0.747675    0.607604
     13          6           0        0.369426   -1.013453   -0.400809
     14          8           0        0.009487   -1.431219   -1.570926
     15          8           0        1.652393   -0.735878   -0.083664
     16          7           0       -7.139209    2.792473    0.602932
     17          6           0       -6.013187    3.308820    1.225824
     18          6           0       -6.254609    4.740776    1.167344
     19          6           0       -7.468959    4.984158    0.551331
     20          6           0       -8.052894    3.675350    0.294945
     21          6           0       -5.153478    5.731833    1.624303
     22          6           0       -7.993457    6.339013    0.138598
     23          6           0       -8.931140    6.650341   -0.739394
     24          7           0       -9.174489    0.842773   -0.568250
     25          6           0       -9.852357    2.114862   -0.557104
     26          6           0      -11.227793    1.862887   -0.936381
     27          6           0      -11.394154    0.538960   -1.151034
     28          6           0      -10.082128   -0.074798   -0.833829
     29          6           0      -12.247648    2.993411   -1.115987
     30          6           0      -12.590717   -0.143725   -1.604911
     31          6           0      -12.734485   -0.264385   -3.147966
     32          7           0       -7.439987   -1.285035   -0.316885
     33          6           0       -8.585494   -2.030452   -0.748704
     34          6           0       -8.137148   -3.379372   -0.766321
     35          6           0       -6.796621   -3.463641   -0.362930
     36          6           0       -6.345649   -2.073069   -0.065205
     37          6           0       -8.927743   -4.700559   -1.200896
     38          6           0       -5.681404   -4.245011   -0.073965
     39          8           0       -5.582142   -5.510958   -0.019430
     40          6           0       -4.482422   -3.323713    0.321641
     41          6           0       -3.944434   -3.853608    1.636966
     42          8           0       -4.097102   -3.255309    2.759549
     43          8           0       -3.080105   -4.832247    1.442180
     44          6           0       -2.591876   -5.574821    2.653452
     45          6           0        2.659969   -1.069617   -1.087625
     46          6           0        3.957901   -0.648196   -0.476481
     47          6           0        4.970214    0.081723   -1.036606
     48          6           0        4.773965    0.963367   -2.261251
     49          6           0        6.294597    0.226426   -0.399832
     50          6           0        7.447872   -0.484069   -0.874409
     51          6           0        8.748702   -0.247094   -0.078884
     52          6           0       10.033054   -0.819263   -0.707751
     53          6           0       10.028634   -2.424478   -1.000251
     54          6           0       11.246036   -0.420519    0.079885
     55          6           0       12.704248   -0.510024   -0.643314
     56          6           0       13.773534   -0.079037    0.311612
     57          6           0       15.199050   -0.153008   -0.338439
     58          6           0       15.670039   -1.642236   -0.459541
     59          6           0       16.224877    0.697796    0.433988
     60          6           0       17.735712    0.702753   -0.186102
     61          6           0       18.589826    1.680663    0.678528
     62          6           0       20.027584    1.742856    0.050649
     63          6           0       20.185380    2.128210   -1.484486
     64          6           0       20.921912    2.538090    0.944288
     65          1           0       -4.067316    3.401513    2.028187
     66          1           0       -9.986527    4.424200   -0.446107
     67          1           0      -10.832384   -2.121975   -1.156245
     68          1           0       -2.723012   -1.277104    2.003419
     69          1           0       -2.196455    1.605435    1.605982
     70          1           0       -1.926831   -0.090238    3.746247
     71          1           0       -2.925641    1.541788    4.064558
     72          1           0       -3.701307    0.080277    3.891761
     73          1           0       -2.413386   -1.567369   -0.474522
     74          1           0       -2.524785   -0.003222   -0.542593
     75          1           0       -0.350118    0.150917    1.265897
     76          1           0       -0.627403   -1.687459    1.206889
     77          1           0       -4.267351    5.618066    0.869582
     78          1           0       -5.429117    6.853642    1.630302
     79          1           0       -4.811963    5.477155    2.623517
     80          1           0       -7.552065    7.080277    0.825426
     81          1           0       -9.234234    5.918072   -1.501736
     82          1           0       -9.198192    7.627149   -1.116457
     83          1           0      -12.505980    3.484519   -0.223761
     84          1           0      -11.923784    4.012359   -1.817231
     85          1           0      -13.340277    2.581975   -1.311995
     86          1           0      -12.745706   -1.237374   -1.311748
     87          1           0      -13.429939    0.583539   -1.463820
     88          1           0      -12.539787    0.637053   -3.794274
     89          1           0      -12.039906   -0.914778   -3.562204
     90          1           0      -13.801601   -0.513057   -3.565717
     91          1           0       -9.914617   -4.799564   -0.632808
     92          1           0       -9.106659   -4.675802   -2.357350
     93          1           0       -8.334618   -5.665882   -1.071220
     94          1           0       -3.718495   -3.384626   -0.467178
     95          1           0       -2.022428   -6.375986    2.438638
     96          1           0       -2.005342   -4.827903    3.272421
     97          1           0       -3.399014   -6.000499    3.207524
     98          1           0        2.351165   -2.036746   -1.196991
     99          1           0        2.243725   -0.569282   -2.140881
    100          1           0        4.093918   -1.168682    0.564872
    101          1           0        5.030255    1.843189   -2.239159
    102          1           0        5.617648    0.624267   -2.924697
    103          1           0        3.718907    0.784479   -2.568691
    104          1           0        6.770642    1.395112   -0.405827
    105          1           0        6.306298   -0.230002    0.701399
    106          1           0        7.159609   -1.424323   -1.202688
    107          1           0        7.543891   -0.093341   -2.016973
    108          1           0        8.856737    0.868524   -0.013103
    109          1           0        8.413112   -0.440129    0.992621
    110          1           0       10.020408   -0.438276   -1.821354
    111          1           0        9.507577   -2.665635   -2.064640
    112          1           0       10.965862   -2.732523   -1.433784
    113          1           0        9.398829   -2.761225   -0.107951
    114          1           0       11.310432    0.672643    0.279642
    115          1           0       11.260947   -0.952610    1.090024
    116          1           0       12.941164   -1.542181   -0.701819
    117          1           0       12.564594   -0.046589   -1.490692
    118          1           0       13.814491    1.074773    0.776298
    119          1           0       13.790574   -0.848019    1.042442
    120          1           0       15.177907    0.246017   -1.506072
    121          1           0       14.914248   -2.185695   -1.018576
    122          1           0       16.740016   -1.753548   -1.009429
    123          1           0       15.989543   -1.904423    0.657515
    124          1           0       15.722964    1.735113    0.365377
    125          1           0       16.252701    0.467404    1.472492
    126          1           0       18.089223   -0.313948   -0.380125
    127          1           0       17.492749    1.010106   -1.145399
    128          1           0       18.296326    2.743992    0.261874
    129          1           0       18.590977    1.271715    1.653060
    130          1           0       20.212343    0.616555    0.308102
    131          1           0       20.284486    3.212592   -1.646295
    132          1           0       21.191768    1.823069   -1.923977
    133          1           0       19.373443    1.713959   -2.087483
    134          1           0       20.714341    2.423932    1.949469
    135          1           0       21.912157    2.453521    0.648315
    136          1           0       20.578194    3.563282    0.862750
    137          1           0       -7.337487    1.797173    0.621910
    138          1           0       -7.415246   -0.385966   -0.159556
 ---------------------------------------------------------------------

 SCF Done:  E(RB3LYP) =  -2733.02342950     A.U. after   16 cycles

 Excitation energies and oscillator strengths:

 Excited State   1:      Singlet-A      1.9811 eV  625.84 nm  f=0.1613  <S**2>=0.000
     235 -> 238       -0.29217
     236 -> 237        0.64074
 This state for optimization and/or second-order correction.
 Total Energy, E(TD-HF/TD-DFT) =  -2732.95062617
 Copying the excited state density for this state as the 1-particle RhoCI density.

 The electronic state is 1-A.
 Alpha  occ. eigenvalues --  -19.18603 -19.18176 -19.11493 -19.11405 -19.11027
 Alpha  occ. eigenvalues --  -14.37608 -14.36047 -14.32540 -14.30045 -10.31906
 Alpha  occ. eigenvalues --  -10.31761 -10.27119 -10.25567 -10.24693 -10.24477
 Alpha  occ. eigenvalues --  -10.23852 -10.23712 -10.23359 -10.23284 -10.22940
 Alpha  occ. eigenvalues --  -10.22680 -10.22233 -10.21877 -10.21823 -10.21784
 Alpha  occ. eigenvalues --  -10.21612 -10.21558 -10.21471 -10.21395 -10.21351
 Alpha  occ. eigenvalues --  -10.21232 -10.21211 -10.20775 -10.20714 -10.20668
 Alpha  occ. eigenvalues --  -10.20605 -10.20597 -10.20572 -10.19925 -10.19892
 Alpha  occ. eigenvalues --  -10.19852 -10.19823 -10.19807 -10.19756 -10.19469
 Alpha  occ. eigenvalues --  -10.19444 -10.19374 -10.19215 -10.19202 -10.19148
 Alpha  occ. eigenvalues --  -10.19062 -10.19005 -10.18828 -10.18808 -10.18772
 Alpha  occ. eigenvalues --  -10.18765 -10.18511 -10.18234 -10.18199 -10.18097
 Alpha  occ. eigenvalues --  -10.18076 -10.17726 -10.17331 -10.15892  -1.08423
 Alpha  occ. eigenvalues --   -1.08375  -0.99954  -0.99177  -0.97445  -0.96961
 Alpha  occ. eigenvalues --   -0.96944  -0.93658  -0.92854  -0.85550  -0.83679
 Alpha  occ. eigenvalues --   -0.82293  -0.81650  -0.81558  -0.81164  -0.80584
 Alpha  occ. eigenvalues --   -0.80274  -0.79702  -0.79683  -0.78762  -0.77741
 Alpha  occ. eigenvalues --   -0.76754  -0.76386  -0.75681  -0.74957  -0.74522
 Alpha  occ. eigenvalues --   -0.74045  -0.73627  -0.72639  -0.71852  -0.70510
 Alpha  occ. eigenvalues --   -0.70289  -0.69784  -0.68773  -0.68442  -0.68067
 Alpha  occ. eigenvalues --   -0.67590  -0.66795  -0.66710  -0.66248  -0.65728
 Alpha  occ. eigenvalues --   -0.64581  -0.63340  -0.63024  -0.62251  -0.61871
 Alpha  occ. eigenvalues --   -0.61568  -0.59253  -0.59028  -0.58334  -0.57982
 Alpha  occ. eigenvalues --   -0.57427  -0.56455  -0.56137  -0.55777  -0.55608
 Alpha  occ. eigenvalues --   -0.55426  -0.54730  -0.54215  -0.53807  -0.53092
 Alpha  occ. eigenvalues --   -0.52751  -0.52375  -0.51526  -0.51326  -0.50622
 Alpha  occ. eigenvalues --   -0.50359  -0.49432  -0.48833  -0.48772  -0.48575
 Alpha  occ. eigenvalues --   -0.48474  -0.48214  -0.47850  -0.47693  -0.47393
 Alpha  occ. eigenvalues --   -0.47074  -0.46631  -0.46232  -0.45842  -0.45647
 Alpha  occ. eigenvalues --   -0.45482  -0.45350  -0.44943  -0.44856  -0.44672
 Alpha  occ. eigenvalues --   -0.44579  -0.44412  -0.44197  -0.43930  -0.43757
 Alpha  occ. eigenvalues --   -0.43393  -0.43200  -0.42643  -0.42623  -0.42367
 Alpha  occ. eigenvalues --   -0.42148  -0.41929  -0.41595  -0.41483  -0.41426
 Alpha  occ. eigenvalues --   -0.41000  -0.40787  -0.40786  -0.40636  -0.40180
 Alpha  occ. eigenvalues --   -0.40169  -0.39924  -0.39831  -0.39422  -0.39206
 Alpha  occ. eigenvalues --   -0.39097  -0.38991  -0.38869  -0.38590  -0.38206
 Alpha  occ. eigenvalues --   -0.38037  -0.38018  -0.37862  -0.37756  -0.37636
 Alpha  occ. eigenvalues --   -0.37226  -0.36891  -0.36823  -0.36651  -0.36553
 Alpha  occ. eigenvalues --   -0.36332  -0.36178  -0.36063  -0.35980  -0.35734
 Alpha  occ. eigenvalues --   -0.35548  -0.35414  -0.34959  -0.34802  -0.34575
 Alpha  occ. eigenvalues --   -0.34301  -0.34231  -0.34169  -0.34086  -0.33640
 Alpha  occ. eigenvalues --   -0.33611  -0.33509  -0.33428  -0.32991  -0.32984
 Alpha  occ. eigenvalues --   -0.32240  -0.31983  -0.31729  -0.31667  -0.31329
 Alpha  occ. eigenvalues --   -0.30583  -0.30050  -0.29744  -0.29618  -0.29517
 Alpha  occ. eigenvalues --   -0.29313  -0.28719  -0.28525  -0.27190  -0.27117
 Alpha  occ. eigenvalues --   -0.26830  -0.26732  -0.26482  -0.26188  -0.25896
 Alpha  occ. eigenvalues --   -0.24888  -0.24540  -0.24344  -0.22619  -0.20337
 Alpha  occ. eigenvalues --   -0.19018
 Alpha virt. eigenvalues --   -0.10687  -0.08411  -0.04811  -0.02020  -0.01940
 Alpha virt. eigenvalues --   -0.01202  -0.00898   0.00300   0.01579   0.03037
 Alpha virt. eigenvalues --    0.03331   0.04013   0.04098   0.04632   0.04754

 Mulliken charges:
               1
     1  C    0.035990
     2  C   -0.079921
     3  C   -0.110337
     4  C   -0.109137
     5  N   -0.210175
     6  C   -0.027847
     7  C   -0.049882
     8  C   -0.107893
     9  C    0.029437
    10  C    0.041590
    11  C    0.121751
    12  C    0.090247
    13  C    0.171722
    14  O   -0.321984
    15  O   -0.320810
    16  N    0.012019
    17  C    0.144863
    18  C   -0.146905
    19  C   -0.030719
    20  C    0.022845
    21  C    0.056046
    22  C    0.016834
    23  C   -0.043350
    24  N   -0.242853
    25  C    0.077189
    26  C   -0.097068
    27  C   -0.066400
    28  C    0.010074
    29  C    0.045706
    30  C    0.068499
    31  C   -0.029907
    32  N   -0.001520
    33  C    0.153132
    34  C   -0.142590
    35  C    0.120382
    36  C    0.007395
    37  C    0.023145
    38  C   -0.010721
    39  O   -0.240057
    40  C    0.020172
    41  C    0.234109
    42  O   -0.301929
    43  O   -0.294474
    44  C    0.238610
    45  C    0.241880
    46  C   -0.074591
    47  C   -0.102848
    48  C    0.220065
    49  C   -0.036584
    50  C    0.031772
    51  C    0.050095
    52  C   -0.069314
    53  C   -0.002339
    54  C    0.005671
    55  C    0.112554
    56  C    0.038575
    57  C   -0.148589
    58  C   -0.029797
    59  C    0.015363
    60  C    0.019534
    61  C    0.047657
    62  C   -0.163979
    63  C    0.024539
    64  C    0.173483
    65  H   -0.018499
    66  H    0.033467
    67  H    0.031766
    68  H    0.012659
    69  H    0.028619
    70  H    0.035313
    71  H    0.005985
    72  H    0.003903
    73  H   -0.027251
    74  H   -0.018057
    75  H    0.053128
    76  H    0.034601
    77  H    0.045927
    78  H    0.030786
    79  H    0.031818
    80  H    0.000459
    81  H    0.028708
    82  H    0.021938
    83  H   -0.000022
    84  H    0.043856
    85  H    0.014604
    86  H    0.022190
    87  H    0.003200
    88  H    0.004264
    89  H   -0.012520
    90  H    0.018120
    91  H    0.042164
    92  H    0.045522
    93  H    0.053999
    94  H    0.065343
    95  H    0.006084
    96  H    0.044099
    97  H    0.033282
    98  H   -0.013258
    99  H    0.058434
   100  H    0.021113
   101  H   -0.067303
   102  H    0.000543
   103  H    0.019861
   104  H    0.017883
   105  H    0.003721
   106  H   -0.032546
   107  H   -0.031080
   108  H   -0.005914
   109  H   -0.001611
   110  H    0.002154
   111  H    0.006300
   112  H    0.010475
   113  H    0.045322
   114  H   -0.002966
   115  H    0.001433
   116  H   -0.011976
   117  H   -0.044967
   118  H    0.015281
   119  H   -0.019139
   120  H   -0.000069
   121  H    0.023109
   122  H    0.024543
   123  H    0.022104
   124  H    0.003589
   125  H   -0.018549
   126  H   -0.003494
   127  H   -0.022252
   128  H    0.014300
   129  H    0.003531
   130  H   -0.014181
   131  H    0.004914
   132  H    0.016658
   133  H    0.016348
   134  H   -0.034440
   135  H   -0.004466
   136  H   -0.031843
   137  H    0.149274
   138  H    0.051281
 Sum of Mulliken charges =  -0.00000

 Dipole moment (field-independent basis, Debye):
    X=              3.6219    Y=              3.8180    Z=              0.8568  Tot=              5.3319
 Quadrupole moment (field-independent basis, Debye-Ang):
   XX=           -354.0270   YY=           -379.7842   ZZ=           -394.8270
   XY=            -20.8211   XZ=              3.2176   YZ=             -5.0128

 Normal termination of Gaussian 16 at Thu Aug 22 02:50:26 2019.
