 Gaussian 16, Revision A.03,
 Gaussian 16:  ES64L-G16RevA.03 25-Dec-2016

 --------------------------
 # td=(NStates=1) B3LYP/SVP
 --------------------------

 --
 TD
 --
 Symbolic Z-matrix:
 Charge =  0 Multiplicity = 1

                         Standard orientation:
 ---------------------------------------------------------------------
 Center     Atomic      Atomic             Coordinates (Angstroms)
 Number     Number       Type             X           Y           Z
 ---------------------------------------------------------------------
      1          6           0       -5.114054   -1.934345    0.549657
      2          6           0       -4.803087    2.751938    1.385750
      3          6           0       -9.402938    3.276860   -0.127485
      4          6           0       -9.864823   -1.615423   -1.079443
      5          7           0       -5.211548    0.496366    0.755699
      6          6           0       -4.465603   -0.652808    0.765627
      7          6           0       -3.073220   -0.535203    1.208342
      8          6           0       -3.145173    0.889117    1.832835
      9          6           0       -4.438925    1.425697    1.319415
     10          6           0       -3.091741    0.907692    3.425861
     11          6           0       -2.033545   -0.754628    0.064625
     12          6           0       -0.537802   -0.620580    0.537361
     13          6           0        0.325924   -0.900024   -0.686487
     14          8           0        0.121609   -1.323132   -1.820358
     15          8           0        1.633290   -0.625809   -0.285204
     16          7           0       -7.110340    2.718391    0.445146
     17          6           0       -6.052345    3.384459    0.950282
     18          6           0       -6.285576    4.807330    0.996312
     19          6           0       -7.614847    4.952815    0.438415
     20          6           0       -8.097324    3.653620    0.101850
     21          6           0       -5.341429    5.845923    1.561276
     22          6           0       -8.262060    6.243763    0.211859
     23          6           0       -9.204282    6.629239   -0.623992
     24          7           0       -9.184210    0.814212   -0.499393
     25          6           0       -9.914665    1.910470   -0.352931
     26          6           0      -11.277395    1.786414   -0.964342
     27          6           0      -11.461906    0.432666   -1.111321
     28          6           0      -10.118558   -0.178906   -0.976863
     29          6           0      -12.331351    2.902302   -1.099237
     30          6           0      -12.614398   -0.309127   -1.565770
     31          6           0      -12.628941   -0.573686   -3.094892
     32          7           0       -7.463012   -1.306847   -0.125901
     33          6           0       -8.537912   -2.041638   -0.674881
     34          6           0       -8.131380   -3.423719   -0.649732
     35          6           0       -6.789291   -3.399606   -0.187966
     36          6           0       -6.417759   -2.053861    0.099991
     37          6           0       -8.967467   -4.670334   -1.049300
     38          6           0       -5.622724   -4.304329    0.146832
     39          8           0       -5.491693   -5.560106    0.140978
     40          6           0       -4.572920   -3.298631    0.483960
     41          6           0       -3.931618   -3.821284    1.749333
     42          8           0       -4.178920   -3.373877    2.830731
     43          8           0       -2.956556   -4.764359    1.578862
     44          6           0       -2.257944   -5.163680    2.802662
     45          6           0        2.638633   -0.947423   -1.353332
     46          6           0        3.947601   -0.648010   -0.816645
     47          6           0        5.045955    0.110829   -1.151222
     48          6           0        5.037860    0.791990   -2.534864
     49          6           0        6.284430    0.145121   -0.257070
     50          6           0        7.470735   -0.541663   -0.967814
     51          6           0        8.794283   -0.345852   -0.070799
     52          6           0       10.101589   -0.866379   -0.784500
     53          6           0       10.023500   -2.412529   -0.989058
     54          6           0       11.214067   -0.360823    0.107201
     55          6           0       12.621772   -0.627518   -0.543034
     56          6           0       13.769211    0.019120    0.264866
     57          6           0       15.207121   -0.062096   -0.441115
     58          6           0       15.727881   -1.553236   -0.641454
     59          6           0       16.270983    0.725410    0.397876
     60          6           0       17.631385    0.872005   -0.226014
     61          6           0       18.546301    1.654917    0.719444
     62          6           0       20.002637    1.673035    0.165505
     63          6           0       20.291259    2.294302   -1.174941
     64          6           0       20.971696    2.175043    1.277911
     65          1           0       -3.807600    3.328490    1.818203
     66          1           0      -10.107424    3.984466   -0.145542
     67          1           0      -10.627770   -2.229825   -1.354569
     68          1           0       -2.914494   -1.103837    2.143564
     69          1           0       -2.170220    1.486179    1.711226
     70          1           0       -2.076479    0.420693    3.582913
     71          1           0       -3.025669    1.838943    3.869432
     72          1           0       -3.856294    0.245243    3.888669
     73          1           0       -2.337445   -1.453785   -0.806787
     74          1           0       -2.169607    0.073519   -0.670452
     75          1           0       -0.124603    0.393371    0.890493
     76          1           0       -0.241050   -1.355561    1.338874
     77          1           0       -4.326579    5.558626    1.078641
     78          1           0       -5.596413    6.831159    1.437137
     79          1           0       -5.344428    5.676161    2.735148
     80          1           0       -7.884354    7.219073    0.938601
     81          1           0       -9.448167    6.072594   -1.346326
     82          1           0       -9.660537    7.639957   -0.366226
     83          1           0      -12.773004    3.353409    0.058587
     84          1           0      -12.082683    3.974065   -1.633883
     85          1           0      -13.328713    2.440228   -1.577493
     86          1           0      -12.697940   -1.216776   -0.924085
     87          1           0      -13.501175    0.160277   -1.239501
     88          1           0      -12.767928    0.229635   -3.772978
     89          1           0      -11.526720   -1.152965   -3.269510
     90          1           0      -13.317262   -1.109359   -3.362110
     91          1           0       -9.840058   -4.654176   -0.374304
     92          1           0       -9.298855   -4.380592   -2.009799
     93          1           0       -8.320282   -5.579285   -0.850950
     94          1           0       -3.895937   -3.179437   -0.245393
     95          1           0       -1.406100   -5.854419    2.392556
     96          1           0       -1.671887   -4.285328    3.302181
     97          1           0       -2.889629   -5.802772    3.470236
     98          1           0        2.510982   -1.899835   -1.636507
     99          1           0        2.447001   -0.458193   -2.335415
    100          1           0        4.092676   -1.061010    0.226950
    101          1           0        5.440057    1.776716   -2.575279
    102          1           0        5.522238    0.145531   -3.323706
    103          1           0        3.870189    1.045715   -2.689483
    104          1           0        6.545077    1.232461   -0.103085
    105          1           0        6.008690   -0.269280    0.692279
    106          1           0        7.279226   -1.813387   -1.031543
    107          1           0        7.607808   -0.399458   -2.112426
    108          1           0        8.785328    0.924417   -0.182447
    109          1           0        8.479961   -0.815341    0.905877
    110          1           0       10.174984   -0.194034   -1.606278
    111          1           0        9.238467   -2.852397   -1.700623
    112          1           0       10.980668   -2.664368   -1.513017
    113          1           0        9.912008   -2.895907    0.079542
    114          1           0       11.103647    0.779739    0.409161
    115          1           0       11.047226   -0.840966    0.974116
    116          1           0       12.604570   -1.813005   -0.698544
    117          1           0       12.704153   -0.261175   -1.527332
    118          1           0       13.528848    1.234750    0.316603
    119          1           0       13.889928   -0.705129    1.305653
    120          1           0       15.022047    0.327840   -1.433761
    121          1           0       15.070940   -2.119388   -1.085897
    122          1           0       16.635029   -1.427047   -1.324713
    123          1           0       15.899294   -2.002375    0.445025
    124          1           0       15.988417    1.813931    0.535097
    125          1           0       16.437686    0.243332    1.449552
    126          1           0       18.026218   -0.040436   -0.320692
    127          1           0       17.705579    1.276005   -1.391421
    128          1           0       18.192067    2.820087    0.996596
    129          1           0       18.388206    1.071949    1.614385
    130          1           0       20.269524    0.574634    0.101089
    131          1           0       20.090632    3.474754   -1.208939
    132          1           0       21.429703    2.181158   -1.377404
    133          1           0       19.771706    1.870037   -2.046492
    134          1           0       21.272389    1.581106    2.201121
    135          1           0       21.904356    2.274926    0.588454
    136          1           0       20.598880    3.188395    1.712475
    137          1           0       -7.056652    1.695077    0.206248
    138          1           0       -7.739445   -0.312794   -0.041964
 ---------------------------------------------------------------------

 SCF Done:  E(RB3LYP) =  -2733.01439484     A.U. after   17 cycles

 Excitation energies and oscillator strengths:

 Excited State   1:      Singlet-A      1.9807 eV  625.97 nm  f=0.1612  <S**2>=0.000
     235 -> 237       -0.21058
     235 -> 238       -0.28216
     236 -> 237        0.59329
     236 -> 238       -0.14896
 This state for optimization and/or second-order correction.
 Total Energy, E(TD-HF/TD-DFT) =  -2732.94160623
 Copying the excited state density for this state as the 1-particle RhoCI density.

 The electronic state is 1-A.
 Alpha  occ. eigenvalues --  -19.17092 -19.16992 -19.13472 -19.11897 -19.11883
 Alpha  occ. eigenvalues --  -14.37311 -14.36646 -14.32444 -14.31117 -10.32122
 Alpha  occ. eigenvalues --  -10.31006 -10.27795 -10.25671 -10.24703 -10.23780
 Alpha  occ. eigenvalues --  -10.23619 -10.23610 -10.23511 -10.23067 -10.22863
 Alpha  occ. eigenvalues --  -10.22703 -10.22286 -10.22239 -10.22062 -10.21596
 Alpha  occ. eigenvalues --  -10.21593 -10.21463 -10.21324 -10.21212 -10.21117
 Alpha  occ. eigenvalues --  -10.21081 -10.21032 -10.20987 -10.20876 -10.20568
 Alpha  occ. eigenvalues --  -10.20557 -10.20516 -10.20356 -10.20224 -10.20056
 Alpha  occ. eigenvalues --  -10.19982 -10.19746 -10.19729 -10.19721 -10.19637
 Alpha  occ. eigenvalues --  -10.19541 -10.19525 -10.19357 -10.19294 -10.19287
 Alpha  occ. eigenvalues --  -10.19157 -10.18974 -10.18966 -10.18943 -10.18802
 Alpha  occ. eigenvalues --  -10.18780 -10.18532 -10.18475 -10.18400 -10.18391
 Alpha  occ. eigenvalues --  -10.18035 -10.17975 -10.17833 -10.17605  -1.08549
 Alpha  occ. eigenvalues --   -1.07624  -0.99901  -0.99836  -0.99137  -0.98560
 Alpha  occ. eigenvalues --   -0.98206  -0.95471  -0.92731  -0.86150  -0.81941
 Alpha  occ. eigenvalues --   -0.81838  -0.81415  -0.81153  -0.80924  -0.80707
 Alpha  occ. eigenvalues --   -0.79863  -0.79521  -0.78644  -0.78217  -0.77788
 Alpha  occ. eigenvalues --   -0.76949  -0.76082  -0.75613  -0.74747  -0.74264
 Alpha  occ. eigenvalues --   -0.73179  -0.72613  -0.72166  -0.71194  -0.70812
 Alpha  occ. eigenvalues --   -0.70270  -0.69277  -0.68752  -0.67253  -0.66870
 Alpha  occ. eigenvalues --   -0.66709  -0.66550  -0.65906  -0.65782  -0.64853
 Alpha  occ. eigenvalues --   -0.63978  -0.63258  -0.63037  -0.62517  -0.61931
 Alpha  occ. eigenvalues --   -0.60926  -0.58779  -0.57979  -0.57710  -0.57138
 Alpha  occ. eigenvalues --   -0.56386  -0.56125  -0.55911  -0.55592  -0.55030
 Alpha  occ. eigenvalues --   -0.54794  -0.54298  -0.53992  -0.53487  -0.52981
 Alpha  occ. eigenvalues --   -0.52569  -0.52173  -0.51917  -0.51494  -0.50253
 Alpha  occ. eigenvalues --   -0.49361  -0.49127  -0.48982  -0.48163  -0.47916
 Alpha  occ. eigenvalues --   -0.47668  -0.47285  -0.47188  -0.46923  -0.46839
 Alpha  occ. eigenvalues --   -0.46673  -0.46443  -0.46267  -0.46096  -0.45675
 Alpha  occ. eigenvalues --   -0.45506  -0.45146  -0.44821  -0.44749  -0.44579
 Alpha  occ. eigenvalues --   -0.44289  -0.44151  -0.43762  -0.43558  -0.43090
 Alpha  occ. eigenvalues --   -0.43057  -0.42896  -0.42698  -0.42416  -0.42328
 Alpha  occ. eigenvalues --   -0.42183  -0.41784  -0.41665  -0.41497  -0.41216
 Alpha  occ. eigenvalues --   -0.41053  -0.40909  -0.40754  -0.40561  -0.40299
 Alpha  occ. eigenvalues --   -0.39907  -0.39816  -0.39650  -0.39570  -0.39402
 Alpha  occ. eigenvalues --   -0.39253  -0.38954  -0.38692  -0.38466  -0.38216
 Alpha  occ. eigenvalues --   -0.37861  -0.37676  -0.37543  -0.37465  -0.37229
 Alpha  occ. eigenvalues --   -0.37154  -0.36916  -0.36887  -0.36784  -0.36425
 Alpha  occ. eigenvalues --   -0.36414  -0.36019  -0.35945  -0.35919  -0.35702
 Alpha  occ. eigenvalues --   -0.35626  -0.35508  -0.35464  -0.35297  -0.34937
 Alpha  occ. eigenvalues --   -0.34794  -0.34277  -0.34227  -0.34192  -0.34005
 Alpha  occ. eigenvalues --   -0.33579  -0.33327  -0.33044  -0.32998  -0.32553
 Alpha  occ. eigenvalues --   -0.32172  -0.32029  -0.31897  -0.31565  -0.31106
 Alpha  occ. eigenvalues --   -0.30757  -0.30354  -0.30308  -0.30266  -0.30058
 Alpha  occ. eigenvalues --   -0.29825  -0.28988  -0.28760  -0.28257  -0.27989
 Alpha  occ. eigenvalues --   -0.27543  -0.27432  -0.27238  -0.25946  -0.25568
 Alpha  occ. eigenvalues --   -0.24767  -0.24194  -0.23899  -0.22894  -0.19907
 Alpha  occ. eigenvalues --   -0.18687
 Alpha virt. eigenvalues --   -0.10444  -0.08120  -0.04555  -0.01785  -0.00976
 Alpha virt. eigenvalues --   -0.00268  -0.00018   0.01007   0.01497   0.03230
 Alpha virt. eigenvalues --    0.03276   0.03678   0.03859   0.04144   0.04494

 Mulliken charges:
               1
     1  C   -0.040110
     2  C   -0.108221
     3  C   -0.008154
     4  C   -0.015428
     5  N   -0.166436
     6  C   -0.084270
     7  C    0.060575
     8  C   -0.144902
     9  C    0.017481
    10  C    0.061170
    11  C    0.035032
    12  C    0.024990
    13  C    0.187548
    14  O   -0.242588
    15  O   -0.368905
    16  N   -0.075883
    17  C    0.100920
    18  C   -0.153020
    19  C    0.051553
    20  C    0.130485
    21  C    0.112744
    22  C   -0.116702
    23  C    0.051759
    24  N   -0.270165
    25  C    0.050164
    26  C   -0.094978
    27  C   -0.086083
    28  C    0.035905
    29  C   -0.081980
    30  C    0.082777
    31  C    0.113186
    32  N   -0.002545
    33  C    0.073778
    34  C   -0.211530
    35  C   -0.056887
    36  C    0.077693
    37  C    0.142169
    38  C    0.106657
    39  O   -0.216806
    40  C    0.112032
    41  C    0.174829
    42  O   -0.217037
    43  O   -0.314681
    44  C    0.135359
    45  C    0.372186
    46  C   -0.101534
    47  C   -0.187916
    48  C    0.021006
    49  C    0.155808
    50  C   -0.108023
    51  C   -0.055812
    52  C   -0.012693
    53  C    0.001685
    54  C    0.053518
    55  C    0.028430
    56  C   -0.035233
    57  C   -0.069438
    58  C    0.053369
    59  C    0.027555
    60  C    0.033569
    61  C    0.007800
    62  C   -0.088552
    63  C   -0.008302
    64  C   -0.021209
    65  H    0.010112
    66  H   -0.082078
    67  H   -0.042530
    68  H    0.015281
    69  H    0.003339
    70  H    0.008401
    71  H    0.002323
    72  H    0.039509
    73  H    0.047899
    74  H   -0.001707
    75  H    0.063265
    76  H    0.055620
    77  H    0.051125
    78  H   -0.004850
    79  H    0.046633
    80  H    0.026308
    81  H   -0.055665
    82  H    0.039436
    83  H    0.038622
    84  H    0.057398
    85  H    0.040550
    86  H   -0.001801
    87  H   -0.027983
    88  H    0.004316
    89  H    0.023536
    90  H   -0.069382
    91  H    0.024873
    92  H    0.021707
    93  H    0.064879
    94  H    0.000980
    95  H    0.037564
    96  H    0.046444
    97  H    0.056223
    98  H   -0.020235
    99  H    0.002863
   100  H   -0.012635
   101  H    0.000264
   102  H    0.051108
   103  H    0.032508
   104  H    0.005403
   105  H   -0.007617
   106  H    0.001709
   107  H    0.022103
   108  H    0.020323
   109  H    0.021326
   110  H   -0.027593
   111  H    0.034575
   112  H    0.019313
   113  H    0.032245
   114  H    0.001945
   115  H   -0.051315
   116  H    0.015878
   117  H   -0.027905
   118  H    0.029300
   119  H    0.017277
   120  H   -0.018201
   121  H   -0.039588
   122  H    0.027225
   123  H    0.018859
   124  H   -0.002451
   125  H    0.008908
   126  H   -0.048753
   127  H    0.003621
   128  H    0.011089
   129  H   -0.015131
   130  H   -0.002802
   131  H    0.021321
   132  H    0.021296
   133  H    0.021389
   134  H    0.026603
   135  H    0.007188
   136  H    0.015826
   137  H    0.174190
   138  H    0.140517
 Sum of Mulliken charges =  -0.00000

 Dipole moment (field-independent basis, Debye):
    X=              1.8855    Y=              4.4653    Z=              0.0451  Tot=              4.8473
 Quadrupole moment (field-independent basis, Debye-Ang):
   XX=           -346.6389   YY=           -394.2587   ZZ=           -394.1392
   XY=            -34.6610   XZ=              3.3904   YZ=              1.0266

 Normal termination of Gaussian 16 at Fri Aug  9 21:52:34 2019.
