 Gaussian 16, Revision A.03,
 Gaussian 16:  ES64L-G16RevA.03 25-Dec-2016

 --------------------------
 # td=(NStates=1) B3LYP/SVP
 --------------------------

 --
 TD
 --
 Symbolic Z-matrix:
 Charge =  0 Multiplicity = 1

                         Standard orientation:
 ---------------------------------------------------------------------
 Center     Atomic      Atomic             Coordinates (Angstroms)
 Number     Number       Type             X           Y           Z
 ---------------------------------------------------------------------
      1          6           0       -5.076489   -2.008930    0.406904
      2          6           0       -4.713810    2.742153    1.455185
      3          6           0       -9.459542    3.351700   -0.100973
      4          6           0       -9.861383   -1.379935   -0.892233
      5          7           0       -5.169263    0.461005    0.833088
      6          6           0       -4.441112   -0.773770    0.838618
      7          6           0       -3.054716   -0.623724    1.318091
      8          6           0       -3.066068    0.819460    1.823272
      9          6           0       -4.382095    1.408927    1.362730
     10          6           0       -3.034388    0.784567    3.380857
     11          6           0       -2.117035   -0.844612    0.095655
     12          6           0       -0.622875   -0.891720    0.521677
     13          6           0        0.338136   -1.007206   -0.711538
     14          8           0       -0.017668   -1.259920   -1.907151
     15          8           0        1.660441   -1.007247   -0.299952
     16          7           0       -7.034061    2.748159    0.464285
     17          6           0       -5.888382    3.390884    0.937752
     18          6           0       -6.094455    4.759650    0.891071
     19          6           0       -7.432117    4.885301    0.368690
     20          6           0       -8.020188    3.594764    0.183929
     21          6           0       -5.121053    5.790468    1.353567
     22          6           0       -7.946622    6.328471    0.165483
     23          6           0       -9.294078    6.579235   -0.467495
     24          7           0       -9.229089    0.900224   -0.428841
     25          6           0       -9.937743    2.118210   -0.466587
     26          6           0      -11.307201    1.859071   -0.836564
     27          6           0      -11.426861    0.564565   -0.994139
     28          6           0      -10.141115   -0.019830   -0.765069
     29          6           0      -12.270966    3.063183   -0.983019
     30          6           0      -12.791402   -0.043911   -1.376381
     31          6           0      -12.828816   -0.248699   -2.960407
     32          7           0       -7.491783   -1.253407   -0.155079
     33          6           0       -8.584864   -1.917617   -0.671240
     34          6           0       -8.304832   -3.333984   -0.710298
     35          6           0       -6.810961   -3.380475   -0.325086
     36          6           0       -6.490785   -2.053225    0.061075
     37          6           0       -9.156065   -4.506495   -1.108449
     38          6           0       -5.763995   -4.426334   -0.044010
     39          8           0       -5.721728   -5.563961   -0.112827
     40          6           0       -4.477177   -3.383000    0.411807
     41          6           0       -3.904150   -3.831412    1.836949
     42          8           0       -4.149528   -3.455751    2.879572
     43          8           0       -3.039921   -4.821818    1.475624
     44          6           0       -2.435332   -5.551460    2.613295
     45          6           0        2.702110   -1.147753   -1.300502
     46          6           0        3.977013   -0.856167   -0.613024
     47          6           0        4.884597   -0.069612   -0.982744
     48          6           0        4.921678    0.881533   -2.245489
     49          6           0        6.275263   -0.000453   -0.225894
     50          6           0        7.504148   -0.524549   -0.946891
     51          6           0        8.764125   -0.236425   -0.261381
     52          6           0       10.079207   -0.645814   -0.893668
     53          6           0       10.122975   -2.212270   -1.278389
     54          6           0       11.340449   -0.263643    0.133213
     55          6           0       12.716054   -0.461414   -0.640232
     56          6           0       13.902759   -0.017881    0.266779
     57          6           0       15.305415   -0.123311   -0.437934
     58          6           0       15.797233   -1.546212   -0.651070
     59          6           0       16.316668    0.661213    0.467657
     60          6           0       17.805956    0.619120   -0.114469
     61          6           0       18.611506    1.705509    0.743941
     62          6           0       20.068507    1.688914    0.299838
     63          6           0       20.144655    2.215739   -1.222471
     64          6           0       20.899821    2.478884    1.265507
     65          1           0       -4.093994    3.446118    1.989707
     66          1           0       -9.904573    4.256468   -0.305166
     67          1           0      -10.669940   -2.127438   -1.281072
     68          1           0       -2.836734   -1.595499    1.943375
     69          1           0       -2.307173    1.535939    1.532659
     70          1           0       -2.098175    0.507640    3.617904
     71          1           0       -3.263966    1.726843    3.806103
     72          1           0       -3.669471    0.178906    3.681454
     73          1           0       -2.322360   -1.758631   -0.467454
     74          1           0       -2.261904    0.093216   -0.575576
     75          1           0       -0.377078    0.083679    1.057198
     76          1           0       -0.472061   -1.926794    0.960749
     77          1           0       -4.346170    6.179605    0.400739
     78          1           0       -5.768395    6.790079    1.879285
     79          1           0       -4.523722    5.502819    2.372545
     80          1           0       -7.488873    7.059141    0.675802
     81          1           0       -9.957369    5.792114   -0.931507
     82          1           0       -9.745926    7.598534   -0.706644
     83          1           0      -12.473892    3.816217   -0.347480
     84          1           0      -11.852942    3.657462   -1.946553
     85          1           0      -13.382852    2.475426   -1.165537
     86          1           0      -12.660193   -1.059445   -1.064128
     87          1           0      -13.693300    0.370629   -0.975926
     88          1           0      -12.932995    0.756807   -3.466531
     89          1           0      -12.042438   -0.728154   -3.467262
     90          1           0      -13.853106   -0.786337   -3.138224
     91          1           0      -10.183169   -4.653572   -0.542341
     92          1           0       -9.446758   -4.559315   -2.249537
     93          1           0       -8.333620   -5.381338   -0.904543
     94          1           0       -3.647069   -3.150853   -0.370748
     95          1           0       -2.283329   -6.691311    2.182841
     96          1           0       -1.582120   -5.082168    3.077113
     97          1           0       -3.208837   -5.775803    3.404622
     98          1           0        2.656981   -2.290710   -1.605530
     99          1           0        2.653780   -0.420765   -2.236785
    100          1           0        4.383431   -1.496788    0.371039
    101          1           0        5.481390    1.868723   -2.198335
    102          1           0        5.207664    0.323380   -3.117919
    103          1           0        3.775498    1.260971   -2.650093
    104          1           0        6.355477    1.093964   -0.162030
    105          1           0        6.083468   -0.468958    0.705746
    106          1           0        7.533815   -1.715367   -1.130028
    107          1           0        7.492479    0.109852   -1.880539
    108          1           0        8.833643    0.816567   -0.008840
    109          1           0        8.832470   -0.719478    0.737562
    110          1           0       10.326586   -0.213450   -1.949548
    111          1           0        9.398265   -2.678998   -1.999452
    112          1           0       11.053708   -2.355739   -1.805345
    113          1           0       10.073572   -2.869828   -0.323994
    114          1           0       11.121854    0.772316    0.409071
    115          1           0       11.141386   -0.702044    0.936112
    116          1           0       13.006616   -1.454532   -0.779966
    117          1           0       12.821124    0.131856   -1.536709
    118          1           0       13.713113    0.980653    0.585458
    119          1           0       13.757732   -0.717129    1.144015
    120          1           0       15.214065    0.510509   -1.359373
    121          1           0       14.926001   -2.213743   -1.144272
    122          1           0       16.816573   -1.295015   -1.152563
    123          1           0       15.813429   -2.247611    0.148328
    124          1           0       16.055781    1.662992    0.765217
    125          1           0       16.305070    0.291361    1.563866
    126          1           0       18.220245   -0.319575    0.083043
    127          1           0       17.623820    0.868191   -1.191045
    128          1           0       18.161156    2.638990    0.526909
    129          1           0       18.628617    1.496778    1.835752
    130          1           0       20.370322    0.806627    0.343360
    131          1           0       19.720559    3.327011   -1.316374
    132          1           0       21.287561    2.220871   -1.751330
    133          1           0       19.638943    1.727394   -1.962437
    134          1           0       20.723373    2.296615    2.512674
    135          1           0       21.949033    2.433222    1.158511
    136          1           0       20.488543    3.479159    1.095096
    137          1           0       -7.158179    1.796339    0.546773
    138          1           0       -7.505438   -0.165959   -0.013556
 ---------------------------------------------------------------------

 SCF Done:  E(RB3LYP) =  -2732.94693439     A.U. after   18 cycles

 Excitation energies and oscillator strengths:

 Excited State   1:      Singlet-A      1.8942 eV  654.54 nm  f=0.1871  <S**2>=0.000
     235 -> 237       -0.29109
     235 -> 238       -0.19642
     236 -> 237        0.58866
     236 -> 238       -0.16300
 This state for optimization and/or second-order correction.
 Total Energy, E(TD-HF/TD-DFT) =  -2732.87732294
 Copying the excited state density for this state as the 1-particle RhoCI density.

 The electronic state is 1-A.
 Alpha  occ. eigenvalues --  -19.17961 -19.17601 -19.14214 -19.14124 -19.12537
 Alpha  occ. eigenvalues --  -14.37441 -14.36592 -14.32438 -14.29876 -10.32317
 Alpha  occ. eigenvalues --  -10.31737 -10.29149 -10.26408 -10.25838 -10.24298
 Alpha  occ. eigenvalues --  -10.23810 -10.23419 -10.23410 -10.23406 -10.23300
 Alpha  occ. eigenvalues --  -10.22382 -10.22294 -10.22090 -10.22082 -10.22031
 Alpha  occ. eigenvalues --  -10.21598 -10.21332 -10.21247 -10.21232 -10.21027
 Alpha  occ. eigenvalues --  -10.20947 -10.20860 -10.20834 -10.20779 -10.20721
 Alpha  occ. eigenvalues --  -10.20313 -10.20296 -10.20174 -10.19962 -10.19959
 Alpha  occ. eigenvalues --  -10.19798 -10.19711 -10.19602 -10.19476 -10.19457
 Alpha  occ. eigenvalues --  -10.19449 -10.19395 -10.19133 -10.18911 -10.18895
 Alpha  occ. eigenvalues --  -10.18824 -10.18408 -10.18336 -10.18314 -10.18006
 Alpha  occ. eigenvalues --  -10.17971 -10.17969 -10.17843 -10.17824 -10.17796
 Alpha  occ. eigenvalues --  -10.17783 -10.17632 -10.17526 -10.15941  -1.11346
 Alpha  occ. eigenvalues --   -1.08083  -1.07088  -1.02798  -0.99106  -0.98980
 Alpha  occ. eigenvalues --   -0.97968  -0.93939  -0.93560  -0.83424  -0.82826
 Alpha  occ. eigenvalues --   -0.81499  -0.81346  -0.81156  -0.80674  -0.80170
 Alpha  occ. eigenvalues --   -0.79798  -0.79436  -0.78978  -0.78597  -0.77365
 Alpha  occ. eigenvalues --   -0.76633  -0.75092  -0.74833  -0.74108  -0.73021
 Alpha  occ. eigenvalues --   -0.72582  -0.72306  -0.71762  -0.70995  -0.69939
 Alpha  occ. eigenvalues --   -0.69591  -0.68601  -0.67843  -0.67709  -0.67492
 Alpha  occ. eigenvalues --   -0.67159  -0.66884  -0.66342  -0.65795  -0.65366
 Alpha  occ. eigenvalues --   -0.64005  -0.62718  -0.62053  -0.61910  -0.61746
 Alpha  occ. eigenvalues --   -0.61079  -0.59098  -0.58427  -0.57650  -0.57601
 Alpha  occ. eigenvalues --   -0.57328  -0.57193  -0.56022  -0.55686  -0.55283
 Alpha  occ. eigenvalues --   -0.54857  -0.54730  -0.54471  -0.53765  -0.52998
 Alpha  occ. eigenvalues --   -0.52562  -0.51331  -0.51130  -0.50685  -0.50465
 Alpha  occ. eigenvalues --   -0.49815  -0.49411  -0.48959  -0.48865  -0.48097
 Alpha  occ. eigenvalues --   -0.47953  -0.47845  -0.47654  -0.47511  -0.47157
 Alpha  occ. eigenvalues --   -0.46629  -0.46437  -0.46228  -0.46014  -0.45472
 Alpha  occ. eigenvalues --   -0.45398  -0.45250  -0.44881  -0.44859  -0.44514
 Alpha  occ. eigenvalues --   -0.44238  -0.44109  -0.43964  -0.43683  -0.43430
 Alpha  occ. eigenvalues --   -0.43346  -0.43104  -0.43007  -0.42836  -0.42425
 Alpha  occ. eigenvalues --   -0.42337  -0.42298  -0.42120  -0.41728  -0.41257
 Alpha  occ. eigenvalues --   -0.41237  -0.41101  -0.40910  -0.40632  -0.40377
 Alpha  occ. eigenvalues --   -0.39958  -0.39840  -0.39752  -0.39640  -0.39538
 Alpha  occ. eigenvalues --   -0.39305  -0.39137  -0.38994  -0.38909  -0.38670
 Alpha  occ. eigenvalues --   -0.38254  -0.37896  -0.37798  -0.37707  -0.37485
 Alpha  occ. eigenvalues --   -0.37124  -0.36937  -0.36935  -0.36733  -0.36322
 Alpha  occ. eigenvalues --   -0.36086  -0.36013  -0.35883  -0.35712  -0.35650
 Alpha  occ. eigenvalues --   -0.35404  -0.35174  -0.34966  -0.34810  -0.34566
 Alpha  occ. eigenvalues --   -0.34340  -0.34274  -0.34154  -0.33805  -0.33661
 Alpha  occ. eigenvalues --   -0.33620  -0.33370  -0.33039  -0.32794  -0.32791
 Alpha  occ. eigenvalues --   -0.32366  -0.32070  -0.31972  -0.31831  -0.31532
 Alpha  occ. eigenvalues --   -0.31368  -0.31023  -0.30333  -0.30218  -0.29899
 Alpha  occ. eigenvalues --   -0.29881  -0.29506  -0.29429  -0.27812  -0.27760
 Alpha  occ. eigenvalues --   -0.27302  -0.27177  -0.26818  -0.26270  -0.26262
 Alpha  occ. eigenvalues --   -0.25213  -0.25174  -0.23278  -0.22612  -0.19455
 Alpha  occ. eigenvalues --   -0.18659
 Alpha virt. eigenvalues --   -0.11092  -0.07325  -0.04305  -0.03039  -0.01262
 Alpha virt. eigenvalues --    0.00445   0.01156   0.01314   0.02086   0.03160
 Alpha virt. eigenvalues --    0.03377   0.03886   0.04119   0.04314   0.04755

 Mulliken charges:
               1
     1  C   -0.074534
     2  C   -0.057165
     3  C    0.014081
     4  C   -0.148685
     5  N   -0.211432
     6  C   -0.023358
     7  C   -0.009288
     8  C   -0.021935
     9  C    0.025044
    10  C    0.243051
    11  C   -0.027514
    12  C    0.040133
    13  C    0.204441
    14  O   -0.283191
    15  O   -0.331596
    16  N    0.017977
    17  C    0.075282
    18  C   -0.077676
    19  C   -0.028381
    20  C    0.010104
    21  C   -0.090289
    22  C    0.048883
    23  C   -0.100131
    24  N   -0.263558
    25  C    0.102882
    26  C   -0.067410
    27  C   -0.128947
    28  C    0.100863
    29  C    0.050596
    30  C    0.113697
    31  C   -0.024619
    32  N   -0.009127
    33  C    0.091818
    34  C   -0.090885
    35  C   -0.148667
    36  C    0.079691
    37  C   -0.039884
    38  C    0.121675
    39  O   -0.072188
    40  C   -0.130104
    41  C    0.187597
    42  O   -0.128762
    43  O   -0.327281
    44  C    0.125659
    45  C    0.238499
    46  C   -0.094071
    47  C   -0.135227
    48  C   -0.029474
    49  C    0.082740
    50  C    0.045513
    51  C    0.057855
    52  C   -0.119729
    53  C   -0.024858
    54  C    0.131775
    55  C    0.086787
    56  C   -0.016335
    57  C   -0.033172
    58  C    0.017618
    59  C   -0.019461
    60  C    0.021053
    61  C    0.009456
    62  C    0.071438
    63  C   -0.039699
    64  C    0.007719
    65  H   -0.044551
    66  H   -0.100288
    67  H    0.017961
    68  H    0.028654
    69  H   -0.011976
    70  H   -0.024238
    71  H   -0.016132
    72  H   -0.053354
    73  H    0.020560
    74  H    0.025713
    75  H    0.050878
    76  H    0.049969
    77  H    0.078067
    78  H    0.046880
    79  H    0.061115
    80  H   -0.037389
    81  H    0.047613
    82  H    0.038593
    83  H    0.006701
    84  H    0.036969
    85  H    0.026506
    86  H   -0.021786
    87  H    0.013767
    88  H    0.012867
    89  H    0.014254
    90  H    0.017252
    91  H    0.055242
    92  H    0.053771
    93  H    0.073053
    94  H    0.079651
    95  H    0.059934
    96  H    0.044113
    97  H    0.040666
    98  H    0.043176
    99  H    0.049664
   100  H    0.014897
   101  H    0.039355
   102  H    0.036332
   103  H    0.028267
   104  H   -0.002915
   105  H   -0.021908
   106  H    0.023548
   107  H   -0.005440
   108  H   -0.026052
   109  H   -0.019308
   110  H   -0.000592
   111  H    0.020009
   112  H    0.003360
   113  H    0.009025
   114  H   -0.015788
   115  H   -0.080841
   116  H   -0.014770
   117  H   -0.009636
   118  H   -0.022489
   119  H   -0.008048
   120  H   -0.001058
   121  H    0.008945
   122  H    0.042092
   123  H   -0.002248
   124  H   -0.024888
   125  H   -0.019237
   126  H    0.004616
   127  H    0.022688
   128  H   -0.015392
   129  H    0.003098
   130  H   -0.080388
   131  H    0.016763
   132  H    0.015882
   133  H   -0.006193
   134  H    0.015041
   135  H    0.003592
   136  H   -0.000450
   137  H    0.096979
   138  H    0.193984
 Sum of Mulliken charges =  -0.00000

 Dipole moment (field-independent basis, Debye):
    X=              2.9583    Y=              2.5311    Z=              1.7710  Tot=              4.2772
 Quadrupole moment (field-independent basis, Debye-Ang):
   XX=           -357.1693   YY=           -383.8404   ZZ=           -397.6538
   XY=            -15.1006   XZ=              3.8466   YZ=             -3.6211

 Normal termination of Gaussian 16 at Tue Aug 20 21:05:54 2019.
