 Gaussian 16, Revision A.03,
 Gaussian 16:  ES64L-G16RevA.03 25-Dec-2016

 --------------------------
 # td=(NStates=1) B3LYP/SVP
 --------------------------

 --
 TD
 --
 Symbolic Z-matrix:
 Charge =  0 Multiplicity = 1

                         Standard orientation:
 ---------------------------------------------------------------------
 Center     Atomic      Atomic             Coordinates (Angstroms)
 Number     Number       Type             X           Y           Z
 ---------------------------------------------------------------------
      1          6           0       -5.131190   -1.930532    0.420450
      2          6           0       -4.719985    2.783752    1.246662
      3          6           0       -9.377573    3.262156   -0.123383
      4          6           0       -9.861479   -1.454040   -0.932631
      5          7           0       -5.208235    0.430688    0.842656
      6          6           0       -4.524553   -0.716858    0.829079
      7          6           0       -3.006093   -0.549939    1.205866
      8          6           0       -3.048089    0.970432    1.729954
      9          6           0       -4.441676    1.472399    1.302509
     10          6           0       -2.924536    0.895162    3.261161
     11          6           0       -2.068992   -0.890680    0.009203
     12          6           0       -0.559827   -0.838615    0.377706
     13          6           0        0.337517   -1.054125   -0.778826
     14          8           0        0.127694   -1.473952   -1.900655
     15          8           0        1.613531   -0.699504   -0.418675
     16          7           0       -7.019975    2.837746    0.479341
     17          6           0       -5.901115    3.496011    0.878780
     18          6           0       -6.148223    4.927659    0.882992
     19          6           0       -7.495320    4.995235    0.434490
     20          6           0       -8.069130    3.767559    0.253279
     21          6           0       -5.159558    5.948132    1.199988
     22          6           0       -8.245382    6.267401    0.416494
     23          6           0       -9.267418    6.599514   -0.376232
     24          7           0       -9.214899    0.853831   -0.528260
     25          6           0       -9.895884    2.005446   -0.497400
     26          6           0      -11.323748    1.830195   -0.708331
     27          6           0      -11.434319    0.478559   -0.968465
     28          6           0      -10.093683   -0.111189   -0.862718
     29          6           0      -12.412379    2.845406   -0.740727
     30          6           0      -12.595726   -0.356597   -1.466377
     31          6           0      -12.592227   -0.574658   -2.968814
     32          7           0       -7.488097   -1.295321   -0.301745
     33          6           0       -8.599003   -2.022018   -0.647143
     34          6           0       -8.209649   -3.478323   -0.710264
     35          6           0       -6.851770   -3.421442   -0.221605
     36          6           0       -6.446376   -2.090124   -0.056999
     37          6           0       -9.026985   -4.609695   -1.060455
     38          6           0       -5.662325   -4.339963   -0.015822
     39          8           0       -5.508902   -5.516085   -0.102334
     40          6           0       -4.426327   -3.282522    0.405437
     41          6           0       -3.752060   -3.833990    1.721006
     42          8           0       -4.033793   -3.487889    2.854777
     43          8           0       -3.033345   -4.825450    1.561075
     44          6           0       -2.411762   -5.476656    2.645542
     45          6           0        2.796955   -1.056188   -1.364777
     46          6           0        4.078947   -0.792570   -0.637327
     47          6           0        4.990004    0.136703   -1.059877
     48          6           0        4.996030    0.891882   -2.354265
     49          6           0        6.224579    0.185711   -0.167648
     50          6           0        7.592812   -0.304450   -0.926477
     51          6           0        8.793193   -0.251341   -0.133179
     52          6           0       10.176665   -0.651429   -0.741585
     53          6           0       10.014125   -2.220659   -0.889885
     54          6           0       11.196023   -0.267593    0.183004
     55          6           0       12.579679   -0.539515   -0.343346
     56          6           0       13.788865    0.020712    0.479151
     57          6           0       15.214563   -0.211716   -0.248258
     58          6           0       15.496425   -1.706209   -0.352640
     59          6           0       16.210783    0.530956    0.561518
     60          6           0       17.461238    0.681173   -0.245360
     61          6           0       18.500704    1.564989    0.645515
     62          6           0       19.945182    1.589033   -0.003767
     63          6           0       19.978938    2.374017   -1.379125
     64          6           0       20.914985    2.329334    0.897918
     65          1           0       -3.796399    3.380750    1.383345
     66          1           0      -10.037539    4.120754   -0.235110
     67          1           0      -10.481327   -2.260932   -1.362174
     68          1           0       -2.683513   -1.438397    1.920873
     69          1           0       -2.166644    1.736970    1.218428
     70          1           0       -1.890547    0.636954    3.499414
     71          1           0       -3.004373    2.033121    3.676097
     72          1           0       -3.522776    0.167173    3.839192
     73          1           0       -2.192316   -1.883807   -0.507534
     74          1           0       -2.218048   -0.162494   -0.562243
     75          1           0       -0.092141    0.243927    0.706316
     76          1           0       -0.042619   -1.500757    1.179177
     77          1           0       -4.239567    5.842780    0.553660
     78          1           0       -5.712570    6.937943    1.028660
     79          1           0       -4.782776    5.739477    2.206681
     80          1           0       -7.953118    7.142155    1.001899
     81          1           0       -9.653112    6.041760   -1.164105
     82          1           0       -9.563480    7.679752   -0.457410
     83          1           0      -12.570629    3.441077    0.146583
     84          1           0      -11.995452    3.502183   -1.578174
     85          1           0      -13.448968    2.453814   -0.980594
     86          1           0      -12.846652   -1.271255   -0.703154
     87          1           0      -13.443952    0.423132   -1.192174
     88          1           0      -12.681924    0.359550   -3.592873
     89          1           0      -11.662937   -0.951972   -3.523047
     90          1           0      -13.555974   -1.141581   -3.170597
     91          1           0       -9.821132   -4.762372   -0.179089
     92          1           0       -9.555907   -4.496077   -2.012074
     93          1           0       -8.488550   -5.466612   -1.220579
     94          1           0       -3.699092   -3.338290   -0.437730
     95          1           0       -1.818516   -6.437953    2.449182
     96          1           0       -1.707248   -4.694453    3.058881
     97          1           0       -3.211443   -5.648136    3.458662
     98          1           0        2.684297   -2.187038   -1.365556
     99          1           0        2.544087   -0.626137   -2.354458
    100          1           0        4.146436   -1.181666    0.368673
    101          1           0        5.098365    1.850015   -2.007462
    102          1           0        5.642908    0.622417   -3.106850
    103          1           0        3.998052    1.115042   -2.740667
    104          1           0        6.508005    1.278983   -0.017821
    105          1           0        6.136075   -0.326649    0.881154
    106          1           0        7.332536   -1.316843   -1.319062
    107          1           0        7.898845    0.304121   -1.760935
    108          1           0        8.999262    1.015515    0.228412
    109          1           0        8.901308   -0.515410    0.901362
    110          1           0       10.262802   -0.290839   -1.742942
    111          1           0        9.064461   -2.283173   -1.394891
    112          1           0       10.866545   -2.816672   -1.296533
    113          1           0        9.732491   -2.665690    0.261230
    114          1           0       11.101223    0.845711    0.309587
    115          1           0       11.141804   -0.723123    1.296377
    116          1           0       12.750596   -1.583362   -0.393978
    117          1           0       12.577584   -0.158053   -1.400882
    118          1           0       13.463029    1.089962    0.519228
    119          1           0       13.722843   -0.295309    1.473394
    120          1           0       15.114800    0.209892   -1.137531
    121          1           0       14.869202   -2.235327   -0.905143
    122          1           0       16.382624   -1.818802   -0.910022
    123          1           0       15.817006   -2.280114    0.447075
    124          1           0       16.056505    1.642341    0.882980
    125          1           0       16.462667    0.043663    1.556492
    126          1           0       17.927406   -0.376276   -0.564832
    127          1           0       17.388738    1.363566   -1.256584
    128          1           0       18.050237    2.385918    0.808630
    129          1           0       18.665129    1.113621    1.753700
    130          1           0       20.294603    0.658257   -0.203491
    131          1           0       19.763943    3.451235   -1.083381
    132          1           0       20.921077    2.236310   -2.015500
    133          1           0       18.996071    1.995248   -2.056779
    134          1           0       20.816199    2.105928    1.759480
    135          1           0       21.844605    2.442092    0.509737
    136          1           0       20.576127    3.289387    1.148284
    137          1           0       -6.977544    1.812732    0.351877
    138          1           0       -7.427826   -0.280609   -0.292187
 ---------------------------------------------------------------------

 SCF Done:  E(RB3LYP) =  -2733.05383412     A.U. after   17 cycles

 Excitation energies and oscillator strengths:

 Excited State   1:      Singlet-A      2.0657 eV  600.21 nm  f=0.1884  <S**2>=0.000
     235 -> 237       -0.21339
     235 -> 238        0.27564
     236 -> 237        0.59753
     236 -> 238        0.14233
 This state for optimization and/or second-order correction.
 Total Energy, E(TD-HF/TD-DFT) =  -2732.97792163
 Copying the excited state density for this state as the 1-particle RhoCI density.

 The electronic state is 1-A.
 Alpha  occ. eigenvalues --  -19.18500 -19.15089 -19.13372 -19.11261 -19.09920
 Alpha  occ. eigenvalues --  -14.36967 -14.36152 -14.32142 -14.29326 -10.30786
 Alpha  occ. eigenvalues --  -10.30291 -10.28785 -10.26186 -10.25013 -10.23865
 Alpha  occ. eigenvalues --  -10.23375 -10.23220 -10.23166 -10.23130 -10.22519
 Alpha  occ. eigenvalues --  -10.22398 -10.22275 -10.21623 -10.21585 -10.21295
 Alpha  occ. eigenvalues --  -10.21282 -10.21067 -10.20845 -10.20669 -10.20517
 Alpha  occ. eigenvalues --  -10.20445 -10.20410 -10.20295 -10.20229 -10.20173
 Alpha  occ. eigenvalues --  -10.20155 -10.20068 -10.19872 -10.19809 -10.19720
 Alpha  occ. eigenvalues --  -10.19568 -10.19436 -10.19409 -10.19404 -10.19393
 Alpha  occ. eigenvalues --  -10.19310 -10.19165 -10.19085 -10.18986 -10.18949
 Alpha  occ. eigenvalues --  -10.18739 -10.18638 -10.18507 -10.18433 -10.18426
 Alpha  occ. eigenvalues --  -10.18216 -10.18212 -10.18199 -10.18140 -10.17638
 Alpha  occ. eigenvalues --  -10.17293 -10.17103 -10.15770 -10.13904  -1.13870
 Alpha  occ. eigenvalues --   -1.06206  -1.04573  -0.99047  -0.98856  -0.97396
 Alpha  occ. eigenvalues --   -0.97232  -0.94020  -0.93643  -0.83851  -0.83278
 Alpha  occ. eigenvalues --   -0.82184  -0.81834  -0.81667  -0.80950  -0.80538
 Alpha  occ. eigenvalues --   -0.79860  -0.79746  -0.79199  -0.78925  -0.77398
 Alpha  occ. eigenvalues --   -0.77157  -0.76194  -0.76031  -0.74733  -0.74387
 Alpha  occ. eigenvalues --   -0.74295  -0.73513  -0.72751  -0.72385  -0.71609
 Alpha  occ. eigenvalues --   -0.70556  -0.69212  -0.69019  -0.68822  -0.68176
 Alpha  occ. eigenvalues --   -0.67662  -0.67355  -0.66209  -0.65798  -0.64215
 Alpha  occ. eigenvalues --   -0.63725  -0.62785  -0.61873  -0.61455  -0.61110
 Alpha  occ. eigenvalues --   -0.60996  -0.58959  -0.58255  -0.57752  -0.57060
 Alpha  occ. eigenvalues --   -0.56826  -0.56741  -0.56341  -0.56118  -0.56061
 Alpha  occ. eigenvalues --   -0.55390  -0.54956  -0.54104  -0.53518  -0.52894
 Alpha  occ. eigenvalues --   -0.52457  -0.51756  -0.51548  -0.50917  -0.50262
 Alpha  occ. eigenvalues --   -0.49183  -0.48956  -0.48685  -0.48220  -0.48010
 Alpha  occ. eigenvalues --   -0.47913  -0.47726  -0.47513  -0.47124  -0.47032
 Alpha  occ. eigenvalues --   -0.46302  -0.46208  -0.45879  -0.45649  -0.45512
 Alpha  occ. eigenvalues --   -0.45371  -0.45345  -0.45048  -0.44989  -0.44838
 Alpha  occ. eigenvalues --   -0.44622  -0.44492  -0.44316  -0.44219  -0.43873
 Alpha  occ. eigenvalues --   -0.43472  -0.43332  -0.43303  -0.42772  -0.42719
 Alpha  occ. eigenvalues --   -0.42434  -0.42315  -0.42044  -0.41823  -0.41427
 Alpha  occ. eigenvalues --   -0.41359  -0.41064  -0.40938  -0.40529  -0.40424
 Alpha  occ. eigenvalues --   -0.40221  -0.40166  -0.40025  -0.39953  -0.39751
 Alpha  occ. eigenvalues --   -0.39708  -0.39359  -0.39248  -0.38989  -0.38900
 Alpha  occ. eigenvalues --   -0.38768  -0.38239  -0.38102  -0.37827  -0.37663
 Alpha  occ. eigenvalues --   -0.37567  -0.37459  -0.37279  -0.37160  -0.37057
 Alpha  occ. eigenvalues --   -0.36602  -0.36417  -0.35999  -0.35825  -0.35549
 Alpha  occ. eigenvalues --   -0.35414  -0.35404  -0.35267  -0.34724  -0.34485
 Alpha  occ. eigenvalues --   -0.34387  -0.34228  -0.34006  -0.33859  -0.33487
 Alpha  occ. eigenvalues --   -0.33391  -0.33122  -0.33088  -0.32974  -0.32446
 Alpha  occ. eigenvalues --   -0.32129  -0.31960  -0.31586  -0.31351  -0.31337
 Alpha  occ. eigenvalues --   -0.30966  -0.30579  -0.30234  -0.30009  -0.29821
 Alpha  occ. eigenvalues --   -0.29104  -0.28435  -0.27552  -0.27256  -0.27171
 Alpha  occ. eigenvalues --   -0.26758  -0.26425  -0.26041  -0.25790  -0.25706
 Alpha  occ. eigenvalues --   -0.24828  -0.24743  -0.23505  -0.22365  -0.19614
 Alpha  occ. eigenvalues --   -0.18960
 Alpha virt. eigenvalues --   -0.10452  -0.07258  -0.04038  -0.01493  -0.01361
 Alpha virt. eigenvalues --    0.00085   0.00990   0.01574   0.02416   0.03615
 Alpha virt. eigenvalues --    0.03807   0.04237   0.04576   0.04599   0.05264

 Mulliken charges:
               1
     1  C    0.053932
     2  C   -0.060552
     3  C   -0.058936
     4  C   -0.094428
     5  N   -0.181064
     6  C   -0.072582
     7  C   -0.066647
     8  C   -0.105891
     9  C    0.037788
    10  C    0.046619
    11  C    0.186889
    12  C   -0.075223
    13  C    0.172159
    14  O   -0.246751
    15  O   -0.394840
    16  N   -0.097323
    17  C    0.073386
    18  C   -0.142408
    19  C    0.069525
    20  C    0.077513
    21  C    0.103594
    22  C   -0.063057
    23  C   -0.043903
    24  N   -0.192538
    25  C    0.068694
    26  C   -0.132802
    27  C   -0.121547
    28  C    0.123281
    29  C    0.083863
    30  C    0.018037
    31  C   -0.000108
    32  N    0.017004
    33  C    0.008361
    34  C   -0.129761
    35  C   -0.062726
    36  C    0.048472
    37  C    0.115828
    38  C    0.093050
    39  O   -0.129386
    40  C   -0.109375
    41  C    0.145049
    42  O   -0.267948
    43  O   -0.182918
    44  C    0.135790
    45  C    0.274869
    46  C   -0.069165
    47  C   -0.152752
    48  C    0.181074
    49  C    0.023151
    50  C    0.074968
    51  C   -0.059629
    52  C   -0.050917
    53  C   -0.000907
    54  C    0.032353
    55  C    0.016617
    56  C    0.048171
    57  C    0.060173
    58  C    0.163982
    59  C    0.025659
    60  C   -0.087714
    61  C    0.040590
    62  C   -0.040657
    63  C   -0.070202
    64  C    0.279663
    65  H   -0.026841
    66  H   -0.041305
    67  H   -0.008915
    68  H    0.035900
    69  H    0.038121
    70  H    0.005054
    71  H    0.013326
    72  H    0.049987
    73  H    0.042925
    74  H   -0.069320
    75  H    0.055913
    76  H    0.048180
    77  H    0.034810
    78  H    0.033800
    79  H    0.028465
    80  H   -0.000292
    81  H    0.003224
    82  H    0.024355
    83  H    0.022176
    84  H    0.035386
    85  H    0.021352
    86  H    0.034427
    87  H    0.003027
    88  H    0.008023
    89  H    0.027436
    90  H    0.024323
    91  H    0.059477
    92  H    0.023594
    93  H    0.005733
    94  H    0.056267
    95  H    0.060859
    96  H    0.027530
    97  H    0.054598
    98  H    0.018757
    99  H    0.041140
   100  H   -0.005874
   101  H   -0.020914
   102  H    0.031321
   103  H   -0.006722
   104  H    0.004144
   105  H    0.030456
   106  H    0.019517
   107  H    0.001577
   108  H   -0.030047
   109  H   -0.024954
   110  H   -0.018316
   111  H   -0.006378
   112  H    0.033327
   113  H    0.005824
   114  H   -0.012725
   115  H    0.009598
   116  H   -0.019756
   117  H   -0.017080
   118  H   -0.020568
   119  H   -0.029956
   120  H   -0.066255
   121  H   -0.036522
   122  H   -0.043610
   123  H   -0.020006
   124  H   -0.000203
   125  H    0.000922
   126  H    0.018794
   127  H    0.028964
   128  H   -0.063685
   129  H    0.002775
   130  H   -0.030341
   131  H    0.016773
   132  H    0.031748
   133  H    0.016698
   134  H   -0.123627
   135  H   -0.018725
   136  H   -0.051438
   137  H    0.147157
   138  H    0.141174
 Sum of Mulliken charges =  -0.00000

 Dipole moment (field-independent basis, Debye):
    X=              3.0721    Y=              2.8188    Z=             -0.5484  Tot=              4.2052
 Quadrupole moment (field-independent basis, Debye-Ang):
   XX=           -350.6840   YY=           -376.5291   ZZ=           -396.8426
   XY=            -16.1971   XZ=             16.2324   YZ=             -2.6889

 Normal termination of Gaussian 16 at Thu Aug 15 19:59:27 2019.
