 Gaussian 16, Revision A.03,
 Gaussian 16:  ES64L-G16RevA.03 25-Dec-2016

 --------------------------
 # td=(NStates=1) B3LYP/SVP
 --------------------------

 --
 TD
 --
 Symbolic Z-matrix:
 Charge =  0 Multiplicity = 1

                         Standard orientation:
 ---------------------------------------------------------------------
 Center     Atomic      Atomic             Coordinates (Angstroms)
 Number     Number       Type             X           Y           Z
 ---------------------------------------------------------------------
      1          6           0       -5.054858   -1.937415    0.435676
      2          6           0       -4.811613    2.769562    1.318239
      3          6           0       -9.408189    3.269929   -0.216131
      4          6           0       -9.836621   -1.552118   -0.891178
      5          7           0       -5.141911    0.436263    0.655363
      6          6           0       -4.464451   -0.743674    0.739518
      7          6           0       -2.952338   -0.532886    1.275419
      8          6           0       -3.018184    0.984983    1.654777
      9          6           0       -4.450801    1.473537    1.249983
     10          6           0       -2.915516    1.051180    3.094844
     11          6           0       -1.974272   -0.929087    0.113818
     12          6           0       -0.539690   -0.762017    0.502775
     13          6           0        0.325775   -0.980880   -0.688344
     14          8           0        0.037066   -1.348242   -1.789703
     15          8           0        1.649788   -0.750728   -0.336494
     16          7           0       -7.105536    2.776563    0.427942
     17          6           0       -6.022260    3.432406    0.892559
     18          6           0       -6.256176    4.816545    0.803631
     19          6           0       -7.681802    4.982830    0.586693
     20          6           0       -8.120423    3.692038    0.229263
     21          6           0       -5.214715    5.794843    1.216987
     22          6           0       -8.271414    6.355126    0.397039
     23          6           0       -9.427502    6.668201   -0.332308
     24          7           0       -9.279319    0.850455   -0.431637
     25          6           0       -9.911194    2.047158   -0.449333
     26          6           0      -11.261670    1.767244   -0.927441
     27          6           0      -11.502434    0.475491   -1.155105
     28          6           0      -10.166049   -0.135293   -0.813200
     29          6           0      -12.314448    2.871019   -1.062051
     30          6           0      -12.728728   -0.338385   -1.503815
     31          6           0      -12.846206   -0.760452   -2.983448
     32          7           0       -7.565139   -1.210305   -0.141674
     33          6           0       -8.598694   -2.072529   -0.557068
     34          6           0       -8.128618   -3.474903   -0.646844
     35          6           0       -6.834161   -3.383645   -0.257713
     36          6           0       -6.473144   -2.066344    0.055462
     37          6           0       -8.911455   -4.662200   -0.937464
     38          6           0       -5.770996   -4.299958    0.146003
     39          8           0       -5.643472   -5.589750    0.134775
     40          6           0       -4.543232   -3.427021    0.481489
     41          6           0       -3.843687   -3.746151    1.812729
     42          8           0       -4.005132   -3.113576    2.832681
     43          8           0       -2.945699   -4.755507    1.596407
     44          6           0       -2.249055   -5.280241    2.711710
     45          6           0        2.639743   -1.099099   -1.243596
     46          6           0        3.969572   -0.687615   -0.581738
     47          6           0        4.968082   -0.017637   -1.123933
     48          6           0        4.993932    0.598326   -2.525678
     49          6           0        6.330464    0.221550   -0.399113
     50          6           0        7.543771   -0.259198   -1.040624
     51          6           0        8.844609   -0.020493   -0.206540
     52          6           0       10.101848   -0.615070   -0.797612
     53          6           0       10.173819   -2.161097   -0.961511
     54          6           0       11.310868   -0.304148    0.033698
     55          6           0       12.708194   -0.486362   -0.585363
     56          6           0       13.872506    0.045280    0.217138
     57          6           0       15.160859   -0.249502   -0.285664
     58          6           0       15.503504   -1.764570   -0.390977
     59          6           0       16.275791    0.499057    0.465204
     60          6           0       17.665031    0.812723   -0.122031
     61          6           0       18.697386    1.582804    0.769626
     62          6           0       20.045632    1.645393    0.133564
     63          6           0       20.144935    2.200859   -1.231288
     64          6           0       21.028223    2.357146    1.061089
     65          1           0       -4.081654    3.440314    1.638190
     66          1           0       -9.968375    4.229602   -0.424386
     67          1           0      -10.538995   -2.260241   -1.268338
     68          1           0       -2.729831   -1.261702    2.136194
     69          1           0       -1.970257    1.596443    1.103862
     70          1           0       -1.939181    0.619354    3.721380
     71          1           0       -3.128949    2.216524    3.515028
     72          1           0       -3.614622    0.535318    3.550331
     73          1           0       -2.205602   -1.883936   -0.256991
     74          1           0       -2.147320   -0.318818   -0.917434
     75          1           0       -0.410406    0.183490    1.029340
     76          1           0       -0.355513   -1.577374    1.188118
     77          1           0       -4.514705    5.783565    0.404075
     78          1           0       -5.594948    6.825067    1.535713
     79          1           0       -4.471867    5.371003    1.925345
     80          1           0       -7.671098    7.106073    1.156651
     81          1           0      -10.019397    5.975610   -1.116039
     82          1           0       -9.659235    7.732106   -0.226995
     83          1           0      -12.336863    3.514683   -0.094246
     84          1           0      -12.157807    3.557370   -1.989154
     85          1           0      -13.335868    2.399228   -1.415215
     86          1           0      -12.751767   -1.162203   -0.750444
     87          1           0      -13.548223    0.205510   -1.052296
     88          1           0      -12.747094    0.042901   -3.590380
     89          1           0      -12.037134   -1.643208   -3.229301
     90          1           0      -13.801537   -1.457157   -3.226042
     91          1           0       -9.813819   -4.875019   -0.223950
     92          1           0       -9.456619   -4.624439   -2.067890
     93          1           0       -8.331121   -5.471319   -0.752035
     94          1           0       -3.670243   -3.682701   -0.368693
     95          1           0       -1.408509   -5.914393    2.381821
     96          1           0       -1.854302   -4.523877    3.430688
     97          1           0       -3.140220   -5.695839    3.346449
     98          1           0        2.597850   -2.074564   -1.720907
     99          1           0        2.541281   -0.449745   -2.123298
    100          1           0        4.143666   -1.087347    0.441145
    101          1           0        5.374564    1.715384   -2.361267
    102          1           0        5.918665   -0.050295   -3.179102
    103          1           0        4.008860    0.589345   -2.835839
    104          1           0        6.338023    1.451038   -0.046637
    105          1           0        6.106087   -0.349433    0.582788
    106          1           0        7.286705   -1.346363   -1.257311
    107          1           0        7.808666    0.322368   -1.999504
    108          1           0        8.789157    1.090275    0.023641
    109          1           0        8.658242   -0.484767    0.668272
    110          1           0       10.469619   -0.037339   -1.900246
    111          1           0        9.251436   -2.704641   -1.354391
    112          1           0       11.267967   -2.696341   -1.374342
    113          1           0        9.953292   -2.547990    0.189784
    114          1           0       11.430861    0.743289    0.579746
    115          1           0       11.164802   -1.032942    0.936905
    116          1           0       12.957834   -1.519575   -0.822807
    117          1           0       12.815863    0.176134   -1.638811
    118          1           0       13.632002    1.045723    0.417758
    119          1           0       13.965018   -0.475993    1.213305
    120          1           0       14.953080    0.140165   -1.448435
    121          1           0       14.962709   -2.146592   -1.255837
    122          1           0       16.526343   -1.988299   -0.794236
    123          1           0       15.180579   -2.362197    0.630290
    124          1           0       15.977700    1.720289    0.569597
    125          1           0       16.294050   -0.072182    1.347359
    126          1           0       18.070277   -0.072340   -0.308002
    127          1           0       17.442923    1.343659   -1.036684
    128          1           0       18.322167    2.668255    1.230674
    129          1           0       18.746016    1.182767    1.939847
    130          1           0       20.173075    0.591339   -0.007993
    131          1           0       19.488415    3.102137   -1.279187
    132          1           0       21.020264    2.343482   -1.670111
    133          1           0       19.500819    1.662852   -1.945826
    134          1           0       20.930741    1.901801    2.067522
    135          1           0       22.167391    2.036878    0.717831
    136          1           0       20.714424    3.460243    1.182652
    137          1           0       -7.405753    1.833677    0.332219
    138          1           0       -8.029340   -0.103929    0.233850
 ---------------------------------------------------------------------

 SCF Done:  E(RB3LYP) =  -2732.97861701     A.U. after   17 cycles

 Excitation energies and oscillator strengths:

 Excited State   1:      Singlet-A      2.0243 eV  612.47 nm  f=0.1763  <S**2>=0.000
     235 -> 237       -0.24404
     235 -> 238       -0.25233
     236 -> 237        0.59142
     236 -> 238       -0.14092
 This state for optimization and/or second-order correction.
 Total Energy, E(TD-HF/TD-DFT) =  -2732.90422480
 Copying the excited state density for this state as the 1-particle RhoCI density.

 The electronic state is 1-A.
 Alpha  occ. eigenvalues --  -19.18467 -19.16845 -19.13779 -19.13371 -19.12457
 Alpha  occ. eigenvalues --  -14.36909 -14.36487 -14.32220 -14.31998 -10.32684
 Alpha  occ. eigenvalues --  -10.31715 -10.28670 -10.25611 -10.24401 -10.24269
 Alpha  occ. eigenvalues --  -10.23794 -10.23430 -10.23371 -10.23213 -10.23162
 Alpha  occ. eigenvalues --  -10.23139 -10.23114 -10.22875 -10.21928 -10.21892
 Alpha  occ. eigenvalues --  -10.21815 -10.21579 -10.21569 -10.21373 -10.21151
 Alpha  occ. eigenvalues --  -10.20891 -10.20851 -10.20849 -10.20820 -10.20674
 Alpha  occ. eigenvalues --  -10.20616 -10.20564 -10.20476 -10.20464 -10.20444
 Alpha  occ. eigenvalues --  -10.20403 -10.20291 -10.20247 -10.20092 -10.19620
 Alpha  occ. eigenvalues --  -10.19582 -10.19552 -10.19541 -10.19413 -10.19396
 Alpha  occ. eigenvalues --  -10.19300 -10.19269 -10.19201 -10.19162 -10.19119
 Alpha  occ. eigenvalues --  -10.19084 -10.19077 -10.18815 -10.18576 -10.18477
 Alpha  occ. eigenvalues --  -10.18011 -10.17479 -10.16906 -10.16286  -1.09634
 Alpha  occ. eigenvalues --   -1.09562  -1.01941  -1.01582  -0.99138  -0.98761
 Alpha  occ. eigenvalues --   -0.96333  -0.94547  -0.92690  -0.84303  -0.83301
 Alpha  occ. eigenvalues --   -0.82417  -0.81871  -0.81672  -0.81455  -0.81211
 Alpha  occ. eigenvalues --   -0.80620  -0.80512  -0.79967  -0.79242  -0.78192
 Alpha  occ. eigenvalues --   -0.77006  -0.76236  -0.75706  -0.75300  -0.74545
 Alpha  occ. eigenvalues --   -0.73777  -0.73329  -0.72639  -0.71578  -0.71445
 Alpha  occ. eigenvalues --   -0.69870  -0.69211  -0.68580  -0.68188  -0.67443
 Alpha  occ. eigenvalues --   -0.67111  -0.66670  -0.66256  -0.65610  -0.65527
 Alpha  occ. eigenvalues --   -0.64023  -0.63053  -0.62073  -0.61928  -0.61440
 Alpha  occ. eigenvalues --   -0.61023  -0.58712  -0.58466  -0.58045  -0.57337
 Alpha  occ. eigenvalues --   -0.57061  -0.56484  -0.56074  -0.55460  -0.55270
 Alpha  occ. eigenvalues --   -0.54669  -0.53668  -0.53447  -0.53313  -0.52984
 Alpha  occ. eigenvalues --   -0.52933  -0.51847  -0.51171  -0.50590  -0.50250
 Alpha  occ. eigenvalues --   -0.49845  -0.49654  -0.49523  -0.49234  -0.48595
 Alpha  occ. eigenvalues --   -0.48210  -0.47670  -0.47547  -0.47480  -0.47295
 Alpha  occ. eigenvalues --   -0.47104  -0.46560  -0.46352  -0.46079  -0.45557
 Alpha  occ. eigenvalues --   -0.45414  -0.45121  -0.44949  -0.44769  -0.44600
 Alpha  occ. eigenvalues --   -0.44549  -0.44347  -0.44054  -0.43976  -0.43637
 Alpha  occ. eigenvalues --   -0.43483  -0.43375  -0.43200  -0.43052  -0.42562
 Alpha  occ. eigenvalues --   -0.42230  -0.42217  -0.41939  -0.41866  -0.41761
 Alpha  occ. eigenvalues --   -0.41345  -0.40498  -0.40306  -0.40259  -0.40190
 Alpha  occ. eigenvalues --   -0.40148  -0.39955  -0.39523  -0.39228  -0.39181
 Alpha  occ. eigenvalues --   -0.39010  -0.38840  -0.38654  -0.38566  -0.38493
 Alpha  occ. eigenvalues --   -0.38365  -0.38260  -0.37886  -0.37771  -0.37550
 Alpha  occ. eigenvalues --   -0.37543  -0.37261  -0.37237  -0.36829  -0.36591
 Alpha  occ. eigenvalues --   -0.36469  -0.36288  -0.36173  -0.36015  -0.35985
 Alpha  occ. eigenvalues --   -0.35846  -0.35761  -0.35402  -0.35236  -0.34955
 Alpha  occ. eigenvalues --   -0.34886  -0.34447  -0.33995  -0.33719  -0.33161
 Alpha  occ. eigenvalues --   -0.33100  -0.32653  -0.32558  -0.32241  -0.31958
 Alpha  occ. eigenvalues --   -0.31873  -0.31722  -0.31111  -0.30878  -0.30590
 Alpha  occ. eigenvalues --   -0.30465  -0.30273  -0.30086  -0.29711  -0.29647
 Alpha  occ. eigenvalues --   -0.29313  -0.28910  -0.28852  -0.28762  -0.28563
 Alpha  occ. eigenvalues --   -0.28089  -0.27834  -0.27235  -0.26267  -0.25687
 Alpha  occ. eigenvalues --   -0.25267  -0.24981  -0.24332  -0.23682  -0.20141
 Alpha  occ. eigenvalues --   -0.19514
 Alpha virt. eigenvalues --   -0.11237  -0.08115  -0.05371  -0.02873  -0.01428
 Alpha virt. eigenvalues --   -0.00564  -0.00233   0.00891   0.01648   0.02928
 Alpha virt. eigenvalues --    0.03441   0.03597   0.03745   0.03938   0.04251

 Mulliken charges:
               1
     1  C    0.044195
     2  C   -0.000748
     3  C   -0.080487
     4  C   -0.053303
     5  N   -0.171678
     6  C   -0.098160
     7  C   -0.040600
     8  C   -0.047595
     9  C    0.025503
    10  C    0.035156
    11  C   -0.019193
    12  C    0.108543
    13  C    0.173802
    14  O   -0.206415
    15  O   -0.326342
    16  N    0.004566
    17  C    0.083740
    18  C   -0.143734
    19  C   -0.014076
    20  C   -0.042364
    21  C    0.113126
    22  C   -0.055986
    23  C   -0.069972
    24  N   -0.286871
    25  C    0.177800
    26  C   -0.137585
    27  C   -0.093819
    28  C    0.051785
    29  C    0.021458
    30  C    0.090502
    31  C    0.007405
    32  N   -0.197305
    33  C    0.065060
    34  C   -0.098020
    35  C    0.009570
    36  C    0.116390
    37  C    0.063708
    38  C    0.120620
    39  O   -0.249247
    40  C   -0.086196
    41  C    0.218313
    42  O   -0.212788
    43  O   -0.301933
    44  C    0.159266
    45  C    0.298522
    46  C   -0.086668
    47  C   -0.169486
    48  C    0.049491
    49  C   -0.000393
    50  C   -0.010508
    51  C    0.108503
    52  C   -0.062471
    53  C   -0.073220
    54  C    0.000844
    55  C    0.010492
    56  C    0.066460
    57  C   -0.100542
    58  C    0.007032
    59  C   -0.002804
    60  C    0.148155
    61  C   -0.096337
    62  C   -0.057145
    63  C    0.111684
    64  C    0.015362
    65  H   -0.068762
    66  H   -0.030631
    67  H   -0.039582
    68  H    0.041025
    69  H    0.034402
    70  H    0.024017
    71  H    0.009338
    72  H   -0.018830
    73  H   -0.019432
    74  H    0.026070
    75  H    0.031594
    76  H    0.020258
    77  H    0.008438
    78  H    0.039073
    79  H    0.021629
    80  H    0.045973
    81  H    0.085817
    82  H    0.031202
    83  H    0.049608
    84  H    0.026008
    85  H    0.021608
    86  H    0.000842
    87  H   -0.008095
    88  H    0.011152
    89  H    0.027021
    90  H    0.030315
    91  H    0.039785
    92  H    0.053843
    93  H    0.004366
    94  H    0.109721
    95  H    0.053129
    96  H    0.024650
    97  H    0.040210
    98  H    0.022564
    99  H   -0.017340
   100  H   -0.013375
   101  H    0.033297
   102  H    0.064770
   103  H   -0.011258
   104  H    0.020537
   105  H   -0.004950
   106  H    0.018211
   107  H    0.016758
   108  H    0.008764
   109  H   -0.050698
   110  H    0.008997
   111  H    0.023402
   112  H    0.071130
   113  H    0.007747
   114  H    0.003230
   115  H   -0.006501
   116  H   -0.014700
   117  H    0.005213
   118  H   -0.023651
   119  H   -0.029574
   120  H   -0.023406
   121  H    0.007964
   122  H    0.014388
   123  H    0.034505
   124  H    0.006916
   125  H   -0.018961
   126  H   -0.053191
   127  H    0.002432
   128  H   -0.010697
   129  H    0.005959
   130  H   -0.018621
   131  H   -0.017985
   132  H   -0.022014
   133  H   -0.016165
   134  H   -0.000497
   135  H    0.027498
   136  H    0.029317
   137  H    0.111935
   138  H    0.269227
 Sum of Mulliken charges =  -0.00000

 Dipole moment (field-independent basis, Debye):
    X=             -0.3212    Y=              2.4160    Z=              0.8730  Tot=              2.5889
 Quadrupole moment (field-independent basis, Debye-Ang):
   XX=           -343.5234   YY=           -385.9089   ZZ=           -400.6414
   XY=            -30.1094   XZ=              6.1292   YZ=             -1.8299

 Normal termination of Gaussian 16 at Fri Aug 16 15:34:33 2019.
