 Gaussian 16, Revision A.03,
 Gaussian 16:  ES64L-G16RevA.03 25-Dec-2016

 --------------------------
 # td=(NStates=1) B3LYP/SVP
 --------------------------

 --
 TD
 --
 Symbolic Z-matrix:
 Charge =  0 Multiplicity = 1

                         Standard orientation:
 ---------------------------------------------------------------------
 Center     Atomic      Atomic             Coordinates (Angstroms)
 Number     Number       Type             X           Y           Z
 ---------------------------------------------------------------------
      1          6           0       -5.215504   -1.992214    0.526119
      2          6           0       -4.646426    2.786828    1.670626
      3          6           0       -9.198587    3.383223   -0.228559
      4          6           0       -9.793797   -1.390074   -1.210270
      5          7           0       -5.117682    0.393262    0.963062
      6          6           0       -4.575406   -0.800457    0.913337
      7          6           0       -3.101401   -0.711613    1.462960
      8          6           0       -3.144928    0.746356    2.012634
      9          6           0       -4.328287    1.318991    1.474392
     10          6           0       -3.084332    0.665780    3.570693
     11          6           0       -2.107866   -0.840794    0.199745
     12          6           0       -0.662343   -0.737940    0.604085
     13          6           0        0.383346   -1.029913   -0.589923
     14          8           0        0.116093   -1.154459   -1.773644
     15          8           0        1.609324   -0.731847   -0.091528
     16          7           0       -7.001564    2.775859    0.633152
     17          6           0       -5.837390    3.287789    1.259581
     18          6           0       -6.148904    4.688377    1.389439
     19          6           0       -7.358125    4.941664    0.685024
     20          6           0       -7.967853    3.647095    0.361534
     21          6           0       -5.144153    5.728846    1.781552
     22          6           0       -7.951211    6.240684    0.460798
     23          6           0       -8.784359    6.690485   -0.510072
     24          7           0       -9.105330    0.960310   -0.648070
     25          6           0       -9.768845    2.135477   -0.636831
     26          6           0      -11.105907    1.947025   -1.115038
     27          6           0      -11.350863    0.622359   -1.425449
     28          6           0      -10.082545    0.048937   -1.081160
     29          6           0      -12.148029    3.071334   -1.145356
     30          6           0      -12.568166   -0.029713   -2.065938
     31          6           0      -12.249927   -0.204476   -3.558298
     32          7           0       -7.483811   -1.198753   -0.403698
     33          6           0       -8.570784   -1.941222   -0.858336
     34          6           0       -8.172431   -3.377918   -0.858375
     35          6           0       -6.843889   -3.365015   -0.268579
     36          6           0       -6.555522   -2.076580    0.069069
     37          6           0       -8.977754   -4.479693   -1.281723
     38          6           0       -5.754779   -4.285502   -0.107787
     39          8           0       -5.787856   -5.514694   -0.221143
     40          6           0       -4.614369   -3.445002    0.503766
     41          6           0       -4.124391   -3.951631    1.812071
     42          8           0       -4.337768   -3.699241    2.939325
     43          8           0       -3.124399   -4.939826    1.614456
     44          6           0       -2.755642   -5.619128    2.852225
     45          6           0        2.635899   -0.975313   -1.083821
     46          6           0        3.911853   -0.526116   -0.431901
     47          6           0        4.967562    0.141154   -1.013164
     48          6           0        4.842202    0.659145   -2.520286
     49          6           0        6.281535    0.289099   -0.373596
     50          6           0        7.494925   -0.454776   -0.939068
     51          6           0        8.788449   -0.147042   -0.117556
     52          6           0       10.018790   -0.828143   -0.583846
     53          6           0        9.846009   -2.352352   -0.614630
     54          6           0       11.248427   -0.325548    0.147548
     55          6           0       12.637846   -0.659377   -0.505497
     56          6           0       13.854846   -0.053618    0.186251
     57          6           0       15.154663   -0.099130   -0.574083
     58          6           0       15.621191   -1.621508   -0.762302
     59          6           0       16.171182    0.625817    0.312990
     60          6           0       17.564013    0.746660   -0.360951
     61          6           0       18.477735    1.487060    0.454911
     62          6           0       20.051839    1.590331   -0.014650
     63          6           0       20.065055    2.423797   -1.354258
     64          6           0       20.926954    2.232522    0.992238
     65          1           0       -3.837693    3.371949    2.162671
     66          1           0       -9.849819    4.229375   -0.342614
     67          1           0      -10.677400   -1.984028   -1.901614
     68          1           0       -3.020457   -1.491553    2.107594
     69          1           0       -2.160360    1.248773    1.777145
     70          1           0       -2.258662    0.317719    4.192833
     71          1           0       -2.892672    1.697590    3.898380
     72          1           0       -4.011081    0.235511    3.990482
     73          1           0       -2.254896   -1.888154   -0.371781
     74          1           0       -2.281734    0.075026   -0.471074
     75          1           0       -0.373934    0.098562    1.176498
     76          1           0       -0.401982   -1.612422    1.310420
     77          1           0       -4.326245    6.032913    1.007858
     78          1           0       -5.597539    6.731821    2.047306
     79          1           0       -4.635344    5.601700    2.659839
     80          1           0       -7.628128    6.932594    1.268935
     81          1           0       -9.377027    6.061137   -1.330023
     82          1           0       -9.265116    7.599447   -0.331105
     83          1           0      -11.910692    3.763054   -0.313438
     84          1           0      -12.100095    3.708487   -2.129151
     85          1           0      -13.275227    2.790602   -1.193373
     86          1           0      -12.696252   -0.937178   -1.348921
     87          1           0      -13.488846    0.438856   -1.963093
     88          1           0      -12.515126    0.754602   -3.940364
     89          1           0      -11.214180   -0.493989   -3.809068
     90          1           0      -12.917146   -1.098002   -3.941345
     91          1           0       -9.926928   -4.612290   -0.667370
     92          1           0       -9.292449   -4.190511   -2.416073
     93          1           0       -8.426765   -5.539208   -1.208181
     94          1           0       -3.555134   -3.581874   -0.183663
     95          1           0       -1.754419   -6.246655    2.518218
     96          1           0       -2.489281   -4.875064    3.547652
     97          1           0       -3.711786   -6.213707    3.266609
     98          1           0        2.950655   -2.194536   -1.213074
     99          1           0        2.374943   -0.611624   -2.014486
    100          1           0        4.105776   -1.080078    0.469581
    101          1           0        5.218415    1.687422   -2.653197
    102          1           0        5.306930    0.058380   -3.278165
    103          1           0        3.753937    0.851664   -2.761647
    104          1           0        6.406096    1.416979   -0.248555
    105          1           0        6.128950    0.084693    0.748617
    106          1           0        7.403969   -1.531901   -0.987845
    107          1           0        7.812542   -0.059728   -1.937467
    108          1           0        8.903273    1.105908    0.065582
    109          1           0        8.513871   -0.698346    1.008388
    110          1           0       10.041488   -0.275386   -1.625940
    111          1           0        8.901834   -2.755390   -1.167165
    112          1           0       10.624785   -2.895887   -1.146516
    113          1           0       10.013996   -2.697534    0.580246
    114          1           0       11.188527    0.784219    0.332722
    115          1           0       11.255722   -0.594639    1.140237
    116          1           0       12.702684   -1.732206   -0.443207
    117          1           0       12.695974   -0.358954   -1.516256
    118          1           0       13.721973    1.074206    0.375311
    119          1           0       13.977595   -0.451662    1.320242
    120          1           0       15.043315    0.446569   -1.535120
    121          1           0       14.809618   -2.142528   -1.366824
    122          1           0       16.580077   -1.532241   -1.235178
    123          1           0       15.784312   -1.921836    0.308937
    124          1           0       15.873136    1.659408    0.559694
    125          1           0       16.351676   -0.026900    1.254470
    126          1           0       17.873152   -0.206449   -0.614673
    127          1           0       17.396755    1.176204   -1.317807
    128          1           0       17.964431    2.473409    0.488193
    129          1           0       18.521773    1.287203    1.552506
    130          1           0       20.345171    0.397097   -0.170726
    131          1           0       19.793274    3.508545   -1.156008
    132          1           0       21.253360    2.449175   -1.668526
    133          1           0       19.258150    2.109810   -1.951025
    134          1           0       20.942297    1.894043    2.053254
    135          1           0       22.061603    2.143648    0.590457
    136          1           0       20.534489    3.339257    1.290732
    137          1           0       -6.997103    1.755523    0.531986
    138          1           0       -7.611081   -0.004988   -0.356494
 ---------------------------------------------------------------------

 SCF Done:  E(RB3LYP) =  -2733.11915197     A.U. after   17 cycles

 Excitation energies and oscillator strengths:

 Excited State   1:      Singlet-A      2.0174 eV  614.58 nm  f=0.1274  <S**2>=0.000
     235 -> 237       -0.15224
     235 -> 238       -0.31353
     236 -> 237        0.59606
     236 -> 238       -0.14031
 This state for optimization and/or second-order correction.
 Total Energy, E(TD-HF/TD-DFT) =  -2733.04501455
 Copying the excited state density for this state as the 1-particle RhoCI density.

 The electronic state is 1-A.
 Alpha  occ. eigenvalues --  -19.18522 -19.15284 -19.13312 -19.13027 -19.12053
 Alpha  occ. eigenvalues --  -14.37386 -14.36956 -14.32590 -14.30878 -10.32134
 Alpha  occ. eigenvalues --  -10.31394 -10.27896 -10.25460 -10.24661 -10.24295
 Alpha  occ. eigenvalues --  -10.24256 -10.23904 -10.23583 -10.23536 -10.23292
 Alpha  occ. eigenvalues --  -10.23144 -10.22228 -10.22056 -10.22052 -10.21669
 Alpha  occ. eigenvalues --  -10.21217 -10.21205 -10.21159 -10.21136 -10.20975
 Alpha  occ. eigenvalues --  -10.20895 -10.20855 -10.20822 -10.20726 -10.20711
 Alpha  occ. eigenvalues --  -10.20593 -10.20571 -10.20434 -10.20151 -10.20099
 Alpha  occ. eigenvalues --  -10.20077 -10.20024 -10.20005 -10.19948 -10.19794
 Alpha  occ. eigenvalues --  -10.19675 -10.19589 -10.19443 -10.19314 -10.19147
 Alpha  occ. eigenvalues --  -10.19116 -10.18998 -10.18881 -10.18833 -10.18715
 Alpha  occ. eigenvalues --  -10.18709 -10.18664 -10.18587 -10.18482 -10.18444
 Alpha  occ. eigenvalues --  -10.17819 -10.17798 -10.17699 -10.16473  -1.09569
 Alpha  occ. eigenvalues --   -1.09161  -1.01555  -1.00817  -0.99018  -0.98644
 Alpha  occ. eigenvalues --   -0.97435  -0.96605  -0.93722  -0.85344  -0.82657
 Alpha  occ. eigenvalues --   -0.82058  -0.81852  -0.81286  -0.80973  -0.80524
 Alpha  occ. eigenvalues --   -0.79930  -0.79645  -0.79362  -0.78623  -0.77579
 Alpha  occ. eigenvalues --   -0.76660  -0.75829  -0.75597  -0.75032  -0.74550
 Alpha  occ. eigenvalues --   -0.73575  -0.72986  -0.72778  -0.71321  -0.70889
 Alpha  occ. eigenvalues --   -0.69665  -0.69116  -0.67911  -0.67575  -0.67127
 Alpha  occ. eigenvalues --   -0.66704  -0.66630  -0.66152  -0.65263  -0.64718
 Alpha  occ. eigenvalues --   -0.64644  -0.63177  -0.62482  -0.62293  -0.61912
 Alpha  occ. eigenvalues --   -0.60863  -0.59400  -0.58517  -0.58110  -0.57629
 Alpha  occ. eigenvalues --   -0.57303  -0.56488  -0.56148  -0.55188  -0.54484
 Alpha  occ. eigenvalues --   -0.54311  -0.53730  -0.53576  -0.53195  -0.53046
 Alpha  occ. eigenvalues --   -0.52723  -0.51805  -0.51751  -0.50551  -0.50253
 Alpha  occ. eigenvalues --   -0.49514  -0.49402  -0.48547  -0.48328  -0.48181
 Alpha  occ. eigenvalues --   -0.47836  -0.47667  -0.47344  -0.47196  -0.46737
 Alpha  occ. eigenvalues --   -0.46586  -0.46432  -0.46259  -0.45852  -0.45624
 Alpha  occ. eigenvalues --   -0.45412  -0.45108  -0.44992  -0.44785  -0.44667
 Alpha  occ. eigenvalues --   -0.44288  -0.44235  -0.44082  -0.43949  -0.43778
 Alpha  occ. eigenvalues --   -0.43555  -0.43136  -0.42967  -0.42575  -0.42428
 Alpha  occ. eigenvalues --   -0.42306  -0.42031  -0.41883  -0.41657  -0.41361
 Alpha  occ. eigenvalues --   -0.41187  -0.40969  -0.40828  -0.40701  -0.40501
 Alpha  occ. eigenvalues --   -0.40364  -0.40170  -0.40011  -0.39511  -0.39360
 Alpha  occ. eigenvalues --   -0.39125  -0.38642  -0.38531  -0.38459  -0.38424
 Alpha  occ. eigenvalues --   -0.38262  -0.38152  -0.37894  -0.37890  -0.37655
 Alpha  occ. eigenvalues --   -0.37449  -0.37231  -0.37024  -0.36926  -0.36747
 Alpha  occ. eigenvalues --   -0.36484  -0.36315  -0.36260  -0.36140  -0.35830
 Alpha  occ. eigenvalues --   -0.35651  -0.35241  -0.35222  -0.34771  -0.34735
 Alpha  occ. eigenvalues --   -0.34672  -0.34523  -0.34243  -0.34172  -0.34122
 Alpha  occ. eigenvalues --   -0.33671  -0.33495  -0.33000  -0.32776  -0.32645
 Alpha  occ. eigenvalues --   -0.32564  -0.32244  -0.31838  -0.31567  -0.31300
 Alpha  occ. eigenvalues --   -0.31133  -0.30813  -0.30687  -0.30526  -0.29778
 Alpha  occ. eigenvalues --   -0.29296  -0.28994  -0.28988  -0.28375  -0.28201
 Alpha  occ. eigenvalues --   -0.27922  -0.27878  -0.26668  -0.26157  -0.25515
 Alpha  occ. eigenvalues --   -0.24845  -0.24154  -0.23872  -0.22816  -0.20385
 Alpha  occ. eigenvalues --   -0.18974
 Alpha virt. eigenvalues --   -0.10340  -0.08877  -0.05428  -0.02941  -0.01357
 Alpha virt. eigenvalues --   -0.00658   0.00091   0.00181   0.02239   0.03111
 Alpha virt. eigenvalues --    0.04019   0.04092   0.04170   0.04299   0.04779

 Mulliken charges:
               1
     1  C   -0.013035
     2  C   -0.117882
     3  C   -0.083872
     4  C   -0.144323
     5  N   -0.098925
     6  C   -0.115418
     7  C    0.025230
     8  C   -0.043761
     9  C   -0.009992
    10  C    0.047492
    11  C    0.011772
    12  C    0.017412
    13  C    0.198491
    14  O   -0.231612
    15  O   -0.302517
    16  N   -0.067797
    17  C    0.205004
    18  C   -0.126926
    19  C    0.007813
    20  C    0.118267
    21  C    0.084794
    22  C   -0.058703
    23  C   -0.035981
    24  N   -0.274968
    25  C    0.086832
    26  C   -0.115582
    27  C   -0.106661
    28  C    0.013876
    29  C    0.026751
    30  C    0.085433
    31  C    0.009328
    32  N   -0.155644
    33  C    0.114251
    34  C   -0.085986
    35  C   -0.039623
    36  C    0.158064
    37  C   -0.015261
    38  C    0.091032
    39  O   -0.186240
    40  C   -0.108894
    41  C    0.214646
    42  O   -0.180287
    43  O   -0.371362
    44  C    0.148625
    45  C    0.232779
    46  C   -0.073647
    47  C   -0.140622
    48  C    0.043276
    49  C    0.066625
    50  C    0.084263
    51  C   -0.134359
    52  C   -0.017361
    53  C   -0.011590
    54  C    0.058284
    55  C    0.125686
    56  C   -0.034116
    57  C   -0.090297
    58  C    0.034210
    59  C   -0.048288
    60  C    0.138057
    61  C    0.001030
    62  C   -0.108743
    63  C    0.031097
    64  C   -0.015964
    65  H    0.008351
    66  H   -0.043970
    67  H    0.052921
    68  H   -0.028827
    69  H    0.001312
    70  H    0.010692
    71  H   -0.013919
    72  H    0.034288
    73  H    0.043526
    74  H    0.026392
    75  H    0.018042
    76  H    0.021070
    77  H    0.045066
    78  H    0.002244
    79  H   -0.011286
    80  H    0.011568
    81  H    0.052437
    82  H    0.008574
    83  H    0.031244
    84  H    0.020026
    85  H    0.025281
    86  H    0.020548
    87  H   -0.025553
    88  H    0.016862
    89  H    0.033649
    90  H    0.025563
    91  H    0.049891
    92  H    0.049917
    93  H    0.070039
    94  H    0.109914
    95  H    0.052644
    96  H    0.019886
    97  H    0.053533
    98  H    0.045850
    99  H    0.009644
   100  H   -0.010224
   101  H    0.002780
   102  H    0.030925
   103  H    0.014722
   104  H    0.006036
   105  H   -0.006946
   106  H    0.004066
   107  H   -0.003926
   108  H    0.028861
   109  H   -0.010921
   110  H   -0.006807
   111  H    0.034750
   112  H    0.011747
   113  H    0.033018
   114  H   -0.023156
   115  H   -0.044227
   116  H   -0.007232
   117  H   -0.025582
   118  H   -0.011924
   119  H   -0.001450
   120  H   -0.007123
   121  H    0.032710
   122  H    0.008592
   123  H    0.013040
   124  H   -0.004514
   125  H    0.006111
   126  H   -0.045660
   127  H   -0.029406
   128  H   -0.026176
   129  H   -0.014680
   130  H    0.020058
   131  H    0.005416
   132  H    0.031563
   133  H   -0.001498
   134  H    0.007729
   135  H    0.031983
   136  H    0.014865
   137  H    0.134763
   138  H    0.246121
 Sum of Mulliken charges =  -0.00000

 Dipole moment (field-independent basis, Debye):
    X=              1.5366    Y=              4.5114    Z=              0.7157  Tot=              4.8194
 Quadrupole moment (field-independent basis, Debye-Ang):
   XX=           -351.4046   YY=           -394.1424   ZZ=           -394.3341
   XY=            -26.5407   XZ=              9.7974   YZ=              5.0569

 Normal termination of Gaussian 16 at Fri Aug  9 04:54:32 2019.
