 Gaussian 16, Revision A.03,
 Gaussian 16:  ES64L-G16RevA.03 25-Dec-2016

 --------------------------
 # td=(NStates=1) B3LYP/SVP
 --------------------------

 --
 TD
 --
 Symbolic Z-matrix:
 Charge =  0 Multiplicity = 1

                         Standard orientation:
 ---------------------------------------------------------------------
 Center     Atomic      Atomic             Coordinates (Angstroms)
 Number     Number       Type             X           Y           Z
 ---------------------------------------------------------------------
      1          6           0       -5.073447   -2.043198    0.342669
      2          6           0       -4.666531    2.751275    1.450303
      3          6           0       -9.327449    3.299915   -0.219272
      4          6           0       -9.817304   -1.409841   -0.847940
      5          7           0       -5.145713    0.408588    0.798425
      6          6           0       -4.551804   -0.749612    0.759352
      7          6           0       -3.026473   -0.656440    1.236034
      8          6           0       -3.063753    0.822261    1.868611
      9          6           0       -4.418598    1.337681    1.268815
     10          6           0       -2.953471    0.810159    3.350618
     11          6           0       -1.931992   -0.717629   -0.032843
     12          6           0       -0.568028   -0.825141    0.570749
     13          6           0        0.324786   -0.948561   -0.603001
     14          8           0        0.004997   -1.057549   -1.837359
     15          8           0        1.649790   -0.877768   -0.278119
     16          7           0       -6.974150    2.797017    0.378801
     17          6           0       -5.859864    3.405923    0.880116
     18          6           0       -6.213820    4.799036    0.940053
     19          6           0       -7.579708    4.943928    0.449928
     20          6           0       -8.041587    3.649558    0.158162
     21          6           0       -5.218822    5.847573    1.469603
     22          6           0       -8.133171    6.308353    0.222630
     23          6           0       -9.123307    6.613244   -0.662775
     24          7           0       -9.330820    0.875176   -0.363235
     25          6           0       -9.926797    2.074660   -0.416280
     26          6           0      -11.379420    1.857521   -0.893133
     27          6           0      -11.476207    0.516355   -0.934568
     28          6           0      -10.171141   -0.118649   -0.709533
     29          6           0      -12.272888    3.082907   -1.123986
     30          6           0      -12.713782   -0.297486   -1.441046
     31          6           0      -12.797247   -0.495704   -2.957183
     32          7           0       -7.468189   -1.343016   -0.166105
     33          6           0       -8.590541   -1.999788   -0.559952
     34          6           0       -8.211868   -3.469608   -0.562885
     35          6           0       -6.902244   -3.521377   -0.196437
     36          6           0       -6.416724   -2.135802    0.008940
     37          6           0       -9.060833   -4.710160   -0.979798
     38          6           0       -5.694756   -4.400572    0.017694
     39          8           0       -5.692822   -5.623371    0.088292
     40          6           0       -4.485420   -3.441868    0.428551
     41          6           0       -3.907449   -3.895690    1.687543
     42          8           0       -4.175394   -3.433876    2.725741
     43          8           0       -2.912407   -4.786594    1.516767
     44          6           0       -2.278975   -5.317669    2.629718
     45          6           0        2.661777   -0.989721   -1.316976
     46          6           0        4.017087   -0.683967   -0.632448
     47          6           0        4.985754    0.146367   -0.959972
     48          6           0        4.817764    1.131471   -2.091329
     49          6           0        6.322834    0.189792   -0.287153
     50          6           0        7.557251   -0.360465   -1.078009
     51          6           0        8.784308   -0.357498   -0.256975
     52          6           0       10.088287   -0.571087   -0.978899
     53          6           0       10.144899   -2.054636   -1.624036
     54          6           0       11.250497   -0.325277   -0.159840
     55          6           0       12.683239   -0.537037   -0.674301
     56          6           0       13.769772   -0.042582    0.212741
     57          6           0       15.161898   -0.232732   -0.454160
     58          6           0       15.580322   -1.703845   -0.672813
     59          6           0       16.222806    0.563735    0.462664
     60          6           0       17.674897    0.730556   -0.071198
     61          6           0       18.616642    1.521264    0.806127
     62          6           0       20.092460    1.604119    0.342169
     63          6           0       20.301806    2.189738   -0.990636
     64          6           0       20.818651    2.434170    1.487661
     65          1           0       -3.977129    3.335055    2.045773
     66          1           0      -10.008578    4.307457   -0.175698
     67          1           0      -10.569127   -1.907122   -1.247324
     68          1           0       -2.559137   -1.425717    1.985972
     69          1           0       -2.194093    1.379409    1.567729
     70          1           0       -1.915517    0.435597    3.853632
     71          1           0       -3.092674    1.874582    3.564490
     72          1           0       -3.593562    0.275193    3.963229
     73          1           0       -2.323995   -1.530502   -0.576533
     74          1           0       -1.978531    0.265007   -0.755628
     75          1           0       -0.403546   -0.005650    1.221886
     76          1           0       -0.671677   -1.664423    1.318166
     77          1           0       -4.119154    5.881279    1.068781
     78          1           0       -5.639869    6.987525    1.301708
     79          1           0       -5.200532    5.654730    2.749081
     80          1           0       -7.716128    7.189753    1.012447
     81          1           0       -9.157695    5.942063   -1.539253
     82          1           0       -9.574671    7.533907   -0.489145
     83          1           0      -12.263089    3.689188   -0.234763
     84          1           0      -12.019477    3.580818   -1.933106
     85          1           0      -13.440483    2.686751   -1.244988
     86          1           0      -12.623364   -1.294385   -0.894983
     87          1           0      -13.690516    0.191627   -1.156571
     88          1           0      -12.645820    0.633178   -3.372361
     89          1           0      -11.978417   -1.213499   -3.240511
     90          1           0      -13.793924   -0.855728   -3.256461
     91          1           0      -10.142518   -4.706500   -0.247723
     92          1           0       -9.527695   -4.590239   -2.046789
     93          1           0       -8.332368   -5.379367   -0.647161
     94          1           0       -3.788053   -3.532253   -0.349630
     95          1           0       -1.527130   -6.029199    2.270400
     96          1           0       -1.888377   -4.635859    3.477691
     97          1           0       -2.856701   -5.811199    3.183176
     98          1           0        2.683476   -1.880912   -1.649261
     99          1           0        2.304842   -0.161733   -2.208749
    100          1           0        4.356973   -1.301580    0.165775
    101          1           0        5.311026    2.119768   -2.004562
    102          1           0        5.338303    1.032504   -3.041811
    103          1           0        3.697467    1.379110   -2.447421
    104          1           0        6.325899    1.133565    0.138282
    105          1           0        6.084305   -0.584704    0.560890
    106          1           0        7.350612   -1.358282   -1.524535
    107          1           0        7.555366    0.424970   -1.960369
    108          1           0        8.902058    0.635534    0.245685
    109          1           0        8.473311   -1.137343    0.648746
    110          1           0       10.229575    0.222837   -1.837819
    111          1           0        9.352698   -2.332494   -2.505593
    112          1           0       11.027007   -2.106943   -2.308369
    113          1           0       10.085956   -2.927149   -0.903836
    114          1           0       11.070866    0.805341    0.090808
    115          1           0       11.270959   -0.980509    0.842881
    116          1           0       12.631136   -1.496764   -0.773352
    117          1           0       12.819382   -0.190184   -1.717952
    118          1           0       13.601216    1.078677    0.373645
    119          1           0       13.623834   -0.748555    1.208827
    120          1           0       15.337912    0.207712   -1.390354
    121          1           0       14.900602   -2.250762   -1.420574
    122          1           0       16.679854   -1.776818   -1.242346
    123          1           0       15.501657   -2.298305    0.249658
    124          1           0       15.649372    1.602990    0.804171
    125          1           0       16.468520   -0.213585    1.477681
    126          1           0       18.097672   -0.318325   -0.252623
    127          1           0       17.795313    1.076865   -1.148284
    128          1           0       18.145252    2.493012    0.875884
    129          1           0       18.376370    0.886552    1.780965
    130          1           0       20.465026    0.565121    0.218695
    131          1           0       19.751171    3.239701   -1.104491
    132          1           0       21.304989    2.334428   -1.329085
    133          1           0       19.895967    1.414686   -1.500689
    134          1           0       20.589428    2.076591    2.421706
    135          1           0       21.838409    2.555307    1.276868
    136          1           0       20.411584    3.433621    1.406303
    137          1           0       -7.224666    1.857955    0.265531
    138          1           0       -7.562262   -0.411979   -0.186676
 ---------------------------------------------------------------------

 SCF Done:  E(RB3LYP) =  -2732.99466733     A.U. after   17 cycles

 Excitation energies and oscillator strengths:

 Excited State   1:      Singlet-A      2.0516 eV  604.32 nm  f=0.2005  <S**2>=0.000
     235 -> 238       -0.30548
     236 -> 237        0.63368
 This state for optimization and/or second-order correction.
 Total Energy, E(TD-HF/TD-DFT) =  -2732.91927161
 Copying the excited state density for this state as the 1-particle RhoCI density.

 The electronic state is 1-A.
 Alpha  occ. eigenvalues --  -19.18044 -19.17225 -19.13766 -19.12678 -19.12075
 Alpha  occ. eigenvalues --  -14.37700 -14.36709 -14.32529 -14.29782 -10.32130
 Alpha  occ. eigenvalues --  -10.31564 -10.29683 -10.25231 -10.24435 -10.24373
 Alpha  occ. eigenvalues --  -10.24363 -10.24111 -10.23413 -10.23387 -10.23309
 Alpha  occ. eigenvalues --  -10.23284 -10.22587 -10.22134 -10.22053 -10.21851
 Alpha  occ. eigenvalues --  -10.21459 -10.21375 -10.21331 -10.21048 -10.20865
 Alpha  occ. eigenvalues --  -10.20860 -10.20812 -10.20811 -10.20685 -10.20594
 Alpha  occ. eigenvalues --  -10.20418 -10.20067 -10.20022 -10.20017 -10.19879
 Alpha  occ. eigenvalues --  -10.19830 -10.19805 -10.19732 -10.19703 -10.19686
 Alpha  occ. eigenvalues --  -10.19588 -10.19545 -10.19509 -10.19438 -10.19191
 Alpha  occ. eigenvalues --  -10.19180 -10.19173 -10.19156 -10.19147 -10.19090
 Alpha  occ. eigenvalues --  -10.18943 -10.18549 -10.18535 -10.18485 -10.18337
 Alpha  occ. eigenvalues --  -10.18221 -10.17174 -10.16655 -10.16032  -1.11562
 Alpha  occ. eigenvalues --   -1.07401  -1.03424  -1.02970  -1.00589  -0.98383
 Alpha  occ. eigenvalues --   -0.97318  -0.97070  -0.93936  -0.85675  -0.83300
 Alpha  occ. eigenvalues --   -0.82267  -0.81527  -0.81332  -0.81119  -0.80869
 Alpha  occ. eigenvalues --   -0.80507  -0.79960  -0.79488  -0.78609  -0.78172
 Alpha  occ. eigenvalues --   -0.77140  -0.76760  -0.75363  -0.75009  -0.74572
 Alpha  occ. eigenvalues --   -0.74309  -0.73443  -0.72422  -0.71767  -0.71314
 Alpha  occ. eigenvalues --   -0.70173  -0.69130  -0.68783  -0.68640  -0.68325
 Alpha  occ. eigenvalues --   -0.67752  -0.66465  -0.66252  -0.65894  -0.65391
 Alpha  occ. eigenvalues --   -0.64843  -0.64342  -0.62610  -0.61810  -0.61417
 Alpha  occ. eigenvalues --   -0.60233  -0.59437  -0.58811  -0.58686  -0.58312
 Alpha  occ. eigenvalues --   -0.57322  -0.56845  -0.56544  -0.55966  -0.55413
 Alpha  occ. eigenvalues --   -0.54862  -0.54813  -0.53830  -0.53716  -0.53275
 Alpha  occ. eigenvalues --   -0.52731  -0.52562  -0.52195  -0.51811  -0.51374
 Alpha  occ. eigenvalues --   -0.50127  -0.49648  -0.49333  -0.48944  -0.48726
 Alpha  occ. eigenvalues --   -0.48260  -0.47776  -0.47740  -0.47366  -0.47214
 Alpha  occ. eigenvalues --   -0.47098  -0.46756  -0.46246  -0.46153  -0.45842
 Alpha  occ. eigenvalues --   -0.45723  -0.45131  -0.45022  -0.44804  -0.44746
 Alpha  occ. eigenvalues --   -0.44644  -0.44502  -0.44255  -0.44171  -0.43940
 Alpha  occ. eigenvalues --   -0.43768  -0.43664  -0.43367  -0.43273  -0.43161
 Alpha  occ. eigenvalues --   -0.42596  -0.42378  -0.42106  -0.41811  -0.41680
 Alpha  occ. eigenvalues --   -0.41553  -0.40849  -0.40572  -0.40427  -0.40275
 Alpha  occ. eigenvalues --   -0.39965  -0.39875  -0.39790  -0.39634  -0.39468
 Alpha  occ. eigenvalues --   -0.39071  -0.39035  -0.38679  -0.38630  -0.38525
 Alpha  occ. eigenvalues --   -0.38136  -0.37822  -0.37761  -0.37598  -0.37525
 Alpha  occ. eigenvalues --   -0.37499  -0.37271  -0.36829  -0.36752  -0.36685
 Alpha  occ. eigenvalues --   -0.36572  -0.36377  -0.36238  -0.35995  -0.35803
 Alpha  occ. eigenvalues --   -0.35553  -0.35430  -0.35267  -0.35117  -0.34670
 Alpha  occ. eigenvalues --   -0.34354  -0.34046  -0.34040  -0.33881  -0.33437
 Alpha  occ. eigenvalues --   -0.33263  -0.32792  -0.32677  -0.32475  -0.32206
 Alpha  occ. eigenvalues --   -0.32034  -0.31720  -0.31458  -0.31305  -0.31100
 Alpha  occ. eigenvalues --   -0.30699  -0.30641  -0.30542  -0.30423  -0.30214
 Alpha  occ. eigenvalues --   -0.30078  -0.29488  -0.28982  -0.28402  -0.28311
 Alpha  occ. eigenvalues --   -0.27446  -0.27323  -0.26742  -0.26472  -0.26003
 Alpha  occ. eigenvalues --   -0.25616  -0.25349  -0.23551  -0.23087  -0.20112
 Alpha  occ. eigenvalues --   -0.19169
 Alpha virt. eigenvalues --   -0.10587  -0.07810  -0.05349  -0.02567  -0.01951
 Alpha virt. eigenvalues --   -0.00001   0.00183   0.00722   0.02138   0.03448
 Alpha virt. eigenvalues --    0.03525   0.03701   0.04029   0.04150   0.04660

 Mulliken charges:
               1
     1  C   -0.027002
     2  C   -0.056462
     3  C   -0.101301
     4  C    0.010497
     5  N   -0.032065
     6  C   -0.037912
     7  C   -0.165652
     8  C   -0.019527
     9  C   -0.021300
    10  C    0.059437
    11  C    0.005936
    12  C    0.072335
    13  C    0.241138
    14  O   -0.297936
    15  O   -0.329992
    16  N   -0.024912
    17  C    0.113307
    18  C   -0.121465
    19  C    0.020513
    20  C    0.016185
    21  C   -0.057974
    22  C   -0.105078
    23  C   -0.002708
    24  N   -0.210994
    25  C    0.022832
    26  C   -0.137518
    27  C   -0.094891
    28  C    0.025208
    29  C    0.152590
    30  C    0.010077
    31  C   -0.008965
    32  N    0.096899
    33  C    0.064222
    34  C   -0.173465
    35  C   -0.001073
    36  C    0.044617
    37  C    0.036417
    38  C    0.073425
    39  O   -0.173078
    40  C    0.069923
    41  C    0.174068
    42  O   -0.176331
    43  O   -0.291470
    44  C    0.268679
    45  C    0.346666
    46  C   -0.070166
    47  C   -0.136885
    48  C    0.012627
    49  C    0.076851
    50  C    0.022267
    51  C    0.032225
    52  C   -0.034210
    53  C   -0.055882
    54  C   -0.030752
    55  C    0.108263
    56  C    0.029984
    57  C   -0.023660
    58  C   -0.045760
    59  C   -0.062008
    60  C   -0.022191
    61  C    0.014650
    62  C   -0.108457
    63  C    0.067018
    64  C    0.137924
    65  H   -0.006306
    66  H    0.034172
    67  H   -0.107892
    68  H    0.034681
    69  H   -0.013720
    70  H    0.014928
    71  H   -0.007614
    72  H    0.001785
    73  H    0.003795
    74  H    0.039247
    75  H    0.016895
    76  H    0.037642
    77  H    0.062472
    78  H    0.040743
    79  H    0.054034
    80  H    0.043598
    81  H    0.048641
    82  H    0.010492
    83  H    0.029827
    84  H   -0.008568
    85  H    0.020802
    86  H    0.007500
    87  H    0.006068
    88  H    0.031145
    89  H    0.020167
    90  H    0.023643
    91  H    0.044962
    92  H    0.064437
    93  H    0.047072
    94  H    0.027842
    95  H    0.027722
    96  H    0.016888
    97  H   -0.053275
    98  H   -0.036958
    99  H    0.060233
   100  H   -0.031032
   101  H   -0.011780
   102  H    0.009729
   103  H    0.025846
   104  H   -0.000603
   105  H   -0.011927
   106  H    0.013363
   107  H   -0.001218
   108  H   -0.010217
   109  H    0.014618
   110  H    0.006137
   111  H    0.017300
   112  H    0.016142
   113  H    0.030034
   114  H   -0.004222
   115  H   -0.001641
   116  H   -0.055572
   117  H   -0.023052
   118  H    0.010136
   119  H    0.019766
   120  H   -0.018813
   121  H    0.018982
   122  H    0.034194
   123  H    0.014753
   124  H    0.025576
   125  H    0.011885
   126  H   -0.008384
   127  H   -0.011699
   128  H   -0.009137
   129  H    0.009482
   130  H   -0.013852
   131  H    0.014541
   132  H    0.001414
   133  H   -0.017512
   134  H   -0.014628
   135  H   -0.017043
   136  H   -0.018438
   137  H    0.111894
   138  H    0.070136
 Sum of Mulliken charges =  -0.00000

 Dipole moment (field-independent basis, Debye):
    X=              2.4715    Y=              2.8652    Z=             -0.1579  Tot=              3.7872
 Quadrupole moment (field-independent basis, Debye-Ang):
   XX=           -355.4700   YY=           -384.5188   ZZ=           -398.9949
   XY=            -22.7597   XZ=             -0.5650   YZ=             -1.5401

 Normal termination of Gaussian 16 at Fri Aug 23 07:01:36 2019.
