 Gaussian 16, Revision A.03,
 Gaussian 16:  ES64L-G16RevA.03 25-Dec-2016

 --------------------------
 # td=(NStates=1) B3LYP/SVP
 --------------------------

 --
 TD
 --
 Symbolic Z-matrix:
 Charge =  0 Multiplicity = 1

                         Standard orientation:
 ---------------------------------------------------------------------
 Center     Atomic      Atomic             Coordinates (Angstroms)
 Number     Number       Type             X           Y           Z
 ---------------------------------------------------------------------
      1          6           0       -5.157225   -2.002049    0.480354
      2          6           0       -4.721547    2.724581    1.505637
      3          6           0       -9.206930    3.291492   -0.205678
      4          6           0       -9.751835   -1.391607   -1.045455
      5          7           0       -5.276823    0.445929    0.875860
      6          6           0       -4.489588   -0.793143    0.788094
      7          6           0       -3.042496   -0.673987    1.329085
      8          6           0       -3.052734    0.752794    1.938018
      9          6           0       -4.375814    1.329651    1.307617
     10          6           0       -2.956741    0.828688    3.338086
     11          6           0       -2.006409   -0.814469    0.230895
     12          6           0       -0.636724   -0.796972    0.663213
     13          6           0        0.274630   -1.033756   -0.500505
     14          8           0       -0.095537   -1.586632   -1.568701
     15          8           0        1.569303   -0.620141   -0.224406
     16          7           0       -6.883781    2.774868    0.422647
     17          6           0       -5.817345    3.438337    1.042411
     18          6           0       -6.154607    4.834604    1.129490
     19          6           0       -7.376710    4.991839    0.606284
     20          6           0       -7.915382    3.742306    0.223700
     21          6           0       -5.168058    5.813996    1.613979
     22          6           0       -8.028843    6.208224    0.460497
     23          6           0       -8.894663    6.601203   -0.537744
     24          7           0       -9.179450    0.797082   -0.370625
     25          6           0       -9.799640    2.050414   -0.496291
     26          6           0      -11.203322    1.946002   -0.981368
     27          6           0      -11.357682    0.636420   -1.289632
     28          6           0      -10.116287   -0.074463   -0.919922
     29          6           0      -12.068935    3.169876   -1.261476
     30          6           0      -12.554452   -0.065952   -1.862117
     31          6           0      -12.567408   -0.290814   -3.358136
     32          7           0       -7.530794   -1.212021   -0.217068
     33          6           0       -8.534781   -1.990581   -0.738503
     34          6           0       -8.172883   -3.406045   -0.726098
     35          6           0       -6.864390   -3.404531   -0.311970
     36          6           0       -6.484814   -2.082432   -0.021770
     37          6           0       -8.997852   -4.548979   -1.233730
     38          6           0       -5.758547   -4.324636    0.012684
     39          8           0       -5.635657   -5.503543   -0.060461
     40          6           0       -4.584570   -3.397141    0.450964
     41          6           0       -4.029840   -3.749250    1.726247
     42          8           0       -4.303330   -3.311429    2.850023
     43          8           0       -3.326043   -4.910841    1.594887
     44          6           0       -2.624520   -5.490973    2.695914
     45          6           0        2.691082   -1.033153   -1.060032
     46          6           0        3.940792   -0.750690   -0.453681
     47          6           0        4.954093    0.053447   -0.957391
     48          6           0        4.920630    0.819754   -2.361797
     49          6           0        6.201146    0.218946   -0.234568
     50          6           0        7.411723   -0.555466   -0.776605
     51          6           0        8.749799   -0.374887    0.096399
     52          6           0        9.968440   -0.801848   -0.745142
     53          6           0        9.930738   -2.282622   -1.039567
     54          6           0       11.241485   -0.372525    0.091140
     55          6           0       12.714595   -0.477528   -0.618030
     56          6           0       13.783986   -0.175612    0.285435
     57          6           0       15.202954   -0.205922   -0.449896
     58          6           0       15.607272   -1.610478   -0.726461
     59          6           0       16.290484    0.601033    0.482026
     60          6           0       17.637427    0.694696   -0.211323
     61          6           0       18.582190    1.702082    0.525397
     62          6           0       20.044881    1.797659    0.018244
     63          6           0       19.999584    2.232396   -1.478401
     64          6           0       20.865531    2.517245    1.061779
     65          1           0       -3.790012    3.360864    1.898796
     66          1           0      -10.012414    4.098469   -0.459755
     67          1           0      -10.339758   -2.123696   -1.431986
     68          1           0       -2.815949   -1.317941    2.244345
     69          1           0       -2.254649    1.521151    1.609952
     70          1           0       -1.976265    0.467568    3.697125
     71          1           0       -3.160341    2.092739    3.598382
     72          1           0       -3.839381    0.359060    3.772415
     73          1           0       -2.181013   -1.814916   -0.482565
     74          1           0       -2.269380   -0.209291   -0.635266
     75          1           0       -0.347250   -0.029133    1.244652
     76          1           0       -0.499049   -1.736822    1.103107
     77          1           0       -4.351543    5.607471    1.038828
     78          1           0       -5.588030    7.018328    1.453935
     79          1           0       -5.132857    5.638031    2.785423
     80          1           0       -7.816655    7.000772    1.199529
     81          1           0       -8.858658    5.946401   -1.468433
     82          1           0       -9.228689    7.533391   -0.604299
     83          1           0      -12.109591    4.000454   -0.456761
     84          1           0      -11.477578    3.702776   -2.046061
     85          1           0      -13.189534    3.123109   -1.762735
     86          1           0      -12.775065   -1.047075   -1.216011
     87          1           0      -13.423594    0.393167   -1.859656
     88          1           0      -12.401409    0.883503   -3.748520
     89          1           0      -11.697999   -1.006032   -3.770567
     90          1           0      -13.460293   -0.874490   -3.578742
     91          1           0      -10.032201   -4.531522   -0.422571
     92          1           0       -9.261518   -4.578056   -2.242629
     93          1           0       -8.413723   -5.345922   -0.819991
     94          1           0       -3.731838   -3.656305   -0.245191
     95          1           0       -2.037582   -6.211488    2.236706
     96          1           0       -2.057223   -4.764227    3.298913
     97          1           0       -3.170850   -5.977512    3.491726
     98          1           0        2.477687   -2.163656   -1.081991
     99          1           0        2.670040   -0.586916   -2.131850
    100          1           0        3.986329   -1.256247    0.506991
    101          1           0        5.506106    1.767003   -2.232081
    102          1           0        5.594866    0.104221   -3.104941
    103          1           0        3.968372    0.909849   -2.744354
    104          1           0        6.412128    1.346517   -0.248022
    105          1           0        6.090738   -0.340447    0.790939
    106          1           0        7.172180   -1.560391   -0.717500
    107          1           0        7.675449   -0.234009   -1.740073
    108          1           0        8.711928    0.745090    0.385227
    109          1           0        8.722147   -1.071311    1.057142
    110          1           0       10.029987   -0.327875   -1.665516
    111          1           0        9.139095   -2.641868   -1.680922
    112          1           0       10.795401   -2.638352   -1.711103
    113          1           0       10.264836   -2.644005    0.046354
    114          1           0       11.053801    0.611848    0.484598
    115          1           0       11.466541   -0.993552    0.983723
    116          1           0       12.748403   -1.524853   -0.999700
    117          1           0       12.930972   -0.095431   -1.573248
    118          1           0       13.767279    0.901110    0.520596
    119          1           0       13.786584   -0.811655    1.130224
    120          1           0       15.082401    0.522736   -1.251798
    121          1           0       14.909014   -1.992867   -1.367199
    122          1           0       16.711273   -1.740369   -1.080476
    123          1           0       15.585244   -2.084390    0.334608
    124          1           0       15.887663    1.645596    0.463319
    125          1           0       16.484327    0.001614    1.459488
    126          1           0       18.269504   -0.271615   -0.210763
    127          1           0       17.778099    0.970682   -1.363883
    128          1           0       18.064161    2.756417    0.381806
    129          1           0       18.402902    1.480315    1.635123
    130          1           0       20.469599    0.731853    0.067280
    131          1           0       19.510287    3.233606   -1.696627
    132          1           0       20.954246    2.048957   -1.982203
    133          1           0       19.193363    1.735826   -2.047505
    134          1           0       20.938937    2.071253    2.053455
    135          1           0       21.795411    2.509985    0.771178
    136          1           0       20.348234    3.574394    1.116510
    137          1           0       -6.939244    1.794280    0.263259
    138          1           0       -7.527677   -0.337545    0.049632
 ---------------------------------------------------------------------

 SCF Done:  E(RB3LYP) =  -2733.05361831     A.U. after   17 cycles

 Excitation energies and oscillator strengths:

 Excited State   1:      Singlet-A      2.0403 eV  607.67 nm  f=0.1610  <S**2>=0.000
     235 -> 237       -0.21994
     235 -> 238       -0.26787
     236 -> 237        0.58685
     236 -> 238       -0.18200
 This state for optimization and/or second-order correction.
 Total Energy, E(TD-HF/TD-DFT) =  -2732.97863807
 Copying the excited state density for this state as the 1-particle RhoCI density.

 The electronic state is 1-A.
 Alpha  occ. eigenvalues --  -19.17441 -19.16932 -19.12824 -19.12459 -19.11709
 Alpha  occ. eigenvalues --  -14.36358 -14.35940 -14.33473 -14.29895 -10.32029
 Alpha  occ. eigenvalues --  -10.30962 -10.28282 -10.25152 -10.24055 -10.23603
 Alpha  occ. eigenvalues --  -10.23591 -10.23485 -10.23266 -10.23189 -10.22864
 Alpha  occ. eigenvalues --  -10.21630 -10.21557 -10.21544 -10.21424 -10.21298
 Alpha  occ. eigenvalues --  -10.21186 -10.21057 -10.20864 -10.20777 -10.20775
 Alpha  occ. eigenvalues --  -10.20608 -10.20357 -10.20278 -10.20185 -10.20166
 Alpha  occ. eigenvalues --  -10.20075 -10.20055 -10.20042 -10.20017 -10.19693
 Alpha  occ. eigenvalues --  -10.19609 -10.19578 -10.19492 -10.19467 -10.19353
 Alpha  occ. eigenvalues --  -10.19160 -10.19148 -10.19105 -10.18976 -10.18918
 Alpha  occ. eigenvalues --  -10.18846 -10.18810 -10.18786 -10.18754 -10.18723
 Alpha  occ. eigenvalues --  -10.18716 -10.18621 -10.18573 -10.18417 -10.18163
 Alpha  occ. eigenvalues --  -10.17991 -10.17449 -10.17087 -10.17087  -1.08111
 Alpha  occ. eigenvalues --   -1.06869  -1.04661  -0.99022  -0.98803  -0.98731
 Alpha  occ. eigenvalues --   -0.96754  -0.92894  -0.91848  -0.85685  -0.83430
 Alpha  occ. eigenvalues --   -0.83163  -0.82732  -0.81826  -0.81529  -0.80642
 Alpha  occ. eigenvalues --   -0.80081  -0.79855  -0.79574  -0.79498  -0.78788
 Alpha  occ. eigenvalues --   -0.77140  -0.76375  -0.76058  -0.75593  -0.74420
 Alpha  occ. eigenvalues --   -0.73787  -0.72985  -0.72717  -0.72017  -0.71244
 Alpha  occ. eigenvalues --   -0.70872  -0.69430  -0.68846  -0.68758  -0.67995
 Alpha  occ. eigenvalues --   -0.67779  -0.66963  -0.65843  -0.65674  -0.64856
 Alpha  occ. eigenvalues --   -0.64260  -0.62821  -0.62527  -0.62082  -0.60770
 Alpha  occ. eigenvalues --   -0.60096  -0.59361  -0.58924  -0.57779  -0.57543
 Alpha  occ. eigenvalues --   -0.56592  -0.56317  -0.56082  -0.55518  -0.55228
 Alpha  occ. eigenvalues --   -0.55126  -0.54558  -0.54347  -0.53417  -0.53267
 Alpha  occ. eigenvalues --   -0.53145  -0.52205  -0.51883  -0.50600  -0.50408
 Alpha  occ. eigenvalues --   -0.50305  -0.49672  -0.49376  -0.49275  -0.48690
 Alpha  occ. eigenvalues --   -0.48460  -0.48002  -0.47680  -0.47459  -0.47230
 Alpha  occ. eigenvalues --   -0.46954  -0.46673  -0.46565  -0.46139  -0.45838
 Alpha  occ. eigenvalues --   -0.45685  -0.45588  -0.45227  -0.44996  -0.44678
 Alpha  occ. eigenvalues --   -0.44573  -0.44511  -0.44200  -0.44083  -0.43792
 Alpha  occ. eigenvalues --   -0.43425  -0.43399  -0.43172  -0.43023  -0.42655
 Alpha  occ. eigenvalues --   -0.42603  -0.42415  -0.42073  -0.41817  -0.41687
 Alpha  occ. eigenvalues --   -0.41420  -0.41165  -0.41033  -0.40930  -0.40556
 Alpha  occ. eigenvalues --   -0.40188  -0.39914  -0.39713  -0.39565  -0.39179
 Alpha  occ. eigenvalues --   -0.39138  -0.38925  -0.38730  -0.38625  -0.38069
 Alpha  occ. eigenvalues --   -0.37797  -0.37727  -0.37619  -0.37447  -0.37251
 Alpha  occ. eigenvalues --   -0.36960  -0.36810  -0.36719  -0.36676  -0.36424
 Alpha  occ. eigenvalues --   -0.36327  -0.36146  -0.36056  -0.35762  -0.35636
 Alpha  occ. eigenvalues --   -0.35545  -0.35320  -0.35279  -0.35169  -0.35044
 Alpha  occ. eigenvalues --   -0.34608  -0.34362  -0.34334  -0.33934  -0.33814
 Alpha  occ. eigenvalues --   -0.33702  -0.33400  -0.32826  -0.32474  -0.32425
 Alpha  occ. eigenvalues --   -0.32229  -0.32002  -0.31829  -0.31478  -0.31373
 Alpha  occ. eigenvalues --   -0.30881  -0.30498  -0.30291  -0.29991  -0.29881
 Alpha  occ. eigenvalues --   -0.29424  -0.28590  -0.28536  -0.27893  -0.27486
 Alpha  occ. eigenvalues --   -0.27187  -0.27030  -0.26985  -0.26648  -0.26226
 Alpha  occ. eigenvalues --   -0.25502  -0.24522  -0.23814  -0.22945  -0.19694
 Alpha  occ. eigenvalues --   -0.18534
 Alpha virt. eigenvalues --   -0.10049  -0.07519  -0.04601  -0.02469  -0.01933
 Alpha virt. eigenvalues --   -0.01057  -0.00462   0.00115   0.01328   0.03251
 Alpha virt. eigenvalues --    0.03594   0.03843   0.04234   0.04488   0.04868

 Mulliken charges:
               1
     1  C    0.018953
     2  C   -0.116451
     3  C   -0.078024
     4  C   -0.036095
     5  N   -0.224519
     6  C   -0.024808
     7  C    0.007853
     8  C   -0.082545
     9  C    0.007864
    10  C    0.047760
    11  C   -0.051223
    12  C    0.257800
    13  C    0.156838
    14  O   -0.274082
    15  O   -0.347401
    16  N   -0.112067
    17  C    0.104266
    18  C   -0.119020
    19  C    0.148808
    20  C    0.101120
    21  C    0.052219
    22  C   -0.151551
    23  C    0.015595
    24  N   -0.279826
    25  C    0.032548
    26  C   -0.086031
    27  C   -0.059809
    28  C    0.132073
    29  C    0.009485
    30  C    0.103789
    31  C   -0.056155
    32  N    0.068318
    33  C    0.034044
    34  C   -0.161530
    35  C   -0.021034
    36  C    0.072988
    37  C    0.078951
    38  C    0.078020
    39  O   -0.121111
    40  C   -0.033505
    41  C    0.184407
    42  O   -0.250291
    43  O   -0.313005
    44  C    0.227489
    45  C    0.256985
    46  C   -0.093692
    47  C   -0.126872
    48  C    0.051960
    49  C    0.047919
    50  C    0.058890
    51  C   -0.024129
    52  C   -0.026257
    53  C    0.002151
    54  C    0.036742
    55  C    0.056571
    56  C    0.075414
    57  C   -0.143766
    58  C    0.080025
    59  C    0.052072
    60  C   -0.052718
    61  C   -0.058782
    62  C   -0.089628
    63  C    0.039829
    64  C    0.123150
    65  H    0.007508
    66  H   -0.019812
    67  H   -0.085977
    68  H    0.027832
    69  H    0.001541
    70  H    0.029677
    71  H    0.016537
    72  H    0.027133
    73  H    0.032608
    74  H   -0.004237
    75  H   -0.013753
    76  H    0.006989
    77  H    0.030584
    78  H    0.041002
    79  H    0.060061
    80  H    0.002123
    81  H    0.040057
    82  H   -0.013165
    83  H    0.043687
    84  H    0.030868
    85  H    0.045553
    86  H    0.011594
    87  H   -0.056311
    88  H    0.041299
    89  H    0.020075
    90  H    0.019155
    91  H    0.040974
    92  H    0.044213
    93  H    0.034869
    94  H    0.067212
    95  H    0.014596
    96  H    0.013403
    97  H    0.016956
    98  H    0.017535
    99  H    0.026080
   100  H   -0.018139
   101  H    0.027283
   102  H    0.050309
   103  H    0.013217
   104  H    0.014365
   105  H    0.011684
   106  H   -0.011142
   107  H   -0.020211
   108  H    0.012154
   109  H    0.013507
   110  H   -0.029437
   111  H    0.015395
   112  H    0.007388
   113  H    0.024146
   114  H   -0.013202
   115  H   -0.007209
   116  H   -0.028284
   117  H   -0.044489
   118  H   -0.017205
   119  H   -0.021000
   120  H   -0.016174
   121  H   -0.009336
   122  H    0.026013
   123  H    0.008281
   124  H    0.006066
   125  H    0.019906
   126  H   -0.002728
   127  H    0.006421
   128  H   -0.005096
   129  H   -0.001767
   130  H   -0.007565
   131  H    0.001697
   132  H    0.017919
   133  H   -0.007287
   134  H    0.002702
   135  H   -0.043926
   136  H    0.013836
   137  H    0.124766
   138  H    0.061714
 Sum of Mulliken charges =  -0.00000

 Dipole moment (field-independent basis, Debye):
    X=              3.9367    Y=              3.8412    Z=             -0.5705  Tot=              5.5297
 Quadrupole moment (field-independent basis, Debye-Ang):
   XX=           -355.4287   YY=           -383.0702   ZZ=           -395.6041
   XY=            -28.6568   XZ=              9.6077   YZ=             -3.3472

 Normal termination of Gaussian 16 at Tue Aug 27 07:32:04 2019.
