 Gaussian 16, Revision A.03,
 Gaussian 16:  ES64L-G16RevA.03 25-Dec-2016

 --------------------------
 # td=(NStates=1) B3LYP/SVP
 --------------------------

 --
 TD
 --
 Symbolic Z-matrix:
 Charge =  0 Multiplicity = 1

                         Standard orientation:
 ---------------------------------------------------------------------
 Center     Atomic      Atomic             Coordinates (Angstroms)
 Number     Number       Type             X           Y           Z
 ---------------------------------------------------------------------
      1          6           0       -5.123342   -2.009851    0.473732
      2          6           0       -4.643857    2.694132    1.568866
      3          6           0       -9.212699    3.527895   -0.360113
      4          6           0       -9.864999   -1.369326   -0.726930
      5          7           0       -5.144387    0.406193    0.749489
      6          6           0       -4.557058   -0.794265    0.942602
      7          6           0       -3.102460   -0.640842    1.464740
      8          6           0       -3.047751    0.819580    1.963066
      9          6           0       -4.340279    1.392609    1.355223
     10          6           0       -3.062711    0.774791    3.508332
     11          6           0       -2.012880   -0.908541    0.263225
     12          6           0       -0.608929   -0.956929    0.633028
     13          6           0        0.384265   -1.372713   -0.466788
     14          8           0       -0.045382   -1.644423   -1.631494
     15          8           0        1.662058   -1.127791   -0.224585
     16          7           0       -7.006479    2.720298    0.531432
     17          6           0       -5.883154    3.387892    1.111996
     18          6           0       -6.096579    4.772474    1.075828
     19          6           0       -7.324997    5.027011    0.489281
     20          6           0       -8.022476    3.778516    0.309249
     21          6           0       -5.051641    5.920230    1.444651
     22          6           0       -7.907069    6.331269    0.264685
     23          6           0       -8.941127    6.696199   -0.593187
     24          7           0       -9.235244    0.999311   -0.399358
     25          6           0       -9.870930    2.209206   -0.493207
     26          6           0      -11.253458    2.084709   -1.058782
     27          6           0      -11.289727    0.708259   -1.208975
     28          6           0      -10.064211    0.042099   -0.720382
     29          6           0      -12.104005    3.192242   -1.279653
     30          6           0      -12.622523   -0.030487   -1.797647
     31          6           0      -12.570138   -0.177446   -3.310403
     32          7           0       -7.533156   -1.179380   -0.091352
     33          6           0       -8.689572   -2.004607   -0.462516
     34          6           0       -8.201012   -3.331622   -0.651194
     35          6           0       -6.893651   -3.364543   -0.278966
     36          6           0       -6.443921   -2.050687    0.059508
     37          6           0       -9.121475   -4.465855   -0.873291
     38          6           0       -5.733057   -4.328363   -0.066720
     39          8           0       -5.698093   -5.508753   -0.223081
     40          6           0       -4.506827   -3.322298    0.385211
     41          6           0       -3.900930   -3.930563    1.614025
     42          8           0       -4.293080   -3.522849    2.733863
     43          8           0       -3.134153   -4.964971    1.380816
     44          6           0       -2.569374   -5.682655    2.571048
     45          6           0        2.734581   -1.372469   -1.127576
     46          6           0        4.042848   -0.979128   -0.654844
     47          6           0        4.941334   -0.116237   -1.178410
     48          6           0        4.869981    0.588777   -2.446415
     49          6           0        6.228053    0.110773   -0.388631
     50          6           0        7.519521   -0.370333   -1.031910
     51          6           0        8.780078   -0.050214   -0.288191
     52          6           0       10.016470   -0.768244   -0.855218
     53          6           0        9.926539   -2.281090   -1.088016
     54          6           0       11.291244   -0.355271    0.027548
     55          6           0       12.657771   -0.583069   -0.624224
     56          6           0       13.771446   -0.094420    0.240368
     57          6           0       15.196151   -0.094343   -0.470931
     58          6           0       15.667980   -1.551290   -0.850606
     59          6           0       16.214351    0.568015    0.428106
     60          6           0       17.609960    0.745516   -0.244813
     61          6           0       18.544991    1.641043    0.692987
     62          6           0       19.947833    1.814560    0.264577
     63          6           0       20.028478    2.503012   -1.107425
     64          6           0       20.757468    2.619308    1.302632
     65          1           0       -3.981029    3.271550    1.877299
     66          1           0       -9.878719    4.286801   -0.249113
     67          1           0      -10.730451   -2.077187   -1.019123
     68          1           0       -2.951428   -1.385381    2.357920
     69          1           0       -2.243244    1.450990    1.846648
     70          1           0       -1.915865    0.564258    3.705528
     71          1           0       -3.267452    1.560515    3.977877
     72          1           0       -3.745366    0.177273    4.038080
     73          1           0       -2.446967   -1.799005   -0.098246
     74          1           0       -2.152650   -0.140858   -0.409420
     75          1           0       -0.287476    0.048264    1.109077
     76          1           0       -0.526599   -1.828413    1.436459
     77          1           0       -4.113774    6.033220    0.746895
     78          1           0       -5.560947    6.892590    1.417836
     79          1           0       -4.472664    5.725564    2.283089
     80          1           0       -7.578113    7.130891    1.016582
     81          1           0       -9.524861    5.859629   -1.368511
     82          1           0       -9.440084    7.627807   -0.712121
     83          1           0      -12.145184    3.830284   -0.472292
     84          1           0      -11.702282    3.854222   -1.954140
     85          1           0      -12.969407    2.782148   -1.484314
     86          1           0      -12.858125   -0.857192   -1.231253
     87          1           0      -13.475880    0.539268   -1.340531
     88          1           0      -12.601199    0.787908   -3.898880
     89          1           0      -11.782381   -0.737523   -3.516823
     90          1           0      -13.476443   -0.660643   -3.603141
     91          1           0       -9.980361   -4.377591   -0.318873
     92          1           0       -9.191632   -4.494803   -1.969682
     93          1           0       -8.578983   -5.396145   -0.583239
     94          1           0       -3.787609   -3.318271   -0.373264
     95          1           0       -1.765108   -6.341736    1.961913
     96          1           0       -2.048667   -4.963849    3.250182
     97          1           0       -3.465680   -6.175451    3.155747
     98          1           0        2.643536   -2.544872   -1.409364
     99          1           0        2.497441   -0.740448   -1.999211
    100          1           0        4.241197   -1.251819    0.297159
    101          1           0        5.194975    1.586972   -2.491773
    102          1           0        5.338645   -0.209678   -3.240946
    103          1           0        3.653402    0.725163   -2.668062
    104          1           0        6.169307    1.227995   -0.223945
    105          1           0        6.071775   -0.403600    0.625309
    106          1           0        7.502619   -1.323703   -1.000775
    107          1           0        7.689712    0.125859   -1.958396
    108          1           0        9.007357    0.963333   -0.146854
    109          1           0        8.670730   -0.593258    0.696053
    110          1           0       10.253626   -0.275694   -1.822530
    111          1           0        9.296573   -2.584856   -1.922795
    112          1           0       10.978143   -2.654806   -1.756949
    113          1           0        9.824252   -2.872215   -0.246582
    114          1           0       11.145438    0.696087    0.385056
    115          1           0       11.040716   -0.983044    1.093047
    116          1           0       12.822722   -1.607617   -0.762267
    117          1           0       12.594540   -0.065547   -1.462289
    118          1           0       13.418360    0.838866    0.513098
    119          1           0       13.861285   -0.541226    1.247441
    120          1           0       15.321645    0.698161   -1.470083
    121          1           0       15.067455   -1.985066   -1.604420
    122          1           0       16.765218   -1.559357   -1.294595
    123          1           0       15.773547   -2.232762    0.035872
    124          1           0       15.821362    1.577327    0.846481
    125          1           0       16.350195    0.108790    1.543720
    126          1           0       18.361035   -0.019479   -0.549490
    127          1           0       17.365350    1.213939   -1.213823
    128          1           0       18.109760    2.686108    0.873748
    129          1           0       18.567950    1.146298    1.761045
    130          1           0       20.230498    0.783877    0.206701
    131          1           0       19.518673    3.451277   -0.941021
    132          1           0       21.083153    2.814801   -1.460386
    133          1           0       19.634794    1.985225   -1.828154
    134          1           0       20.603931    2.139127    2.358269
    135          1           0       21.968330    2.652007    1.027936
    136          1           0       20.446915    3.591277    1.306191
    137          1           0       -7.093852    1.774881    0.792830
    138          1           0       -7.616740   -0.236615   -0.020321
 ---------------------------------------------------------------------

 SCF Done:  E(RB3LYP) =  -2733.01230901     A.U. after   17 cycles

 Excitation energies and oscillator strengths:

 Excited State   1:      Singlet-A      1.9766 eV  627.25 nm  f=0.1680  <S**2>=0.000
     235 -> 237       -0.16982
     235 -> 238        0.29137
     236 -> 237        0.60801
     236 -> 238        0.11936
 This state for optimization and/or second-order correction.
 Total Energy, E(TD-HF/TD-DFT) =  -2732.93966899
 Copying the excited state density for this state as the 1-particle RhoCI density.

 The electronic state is 1-A.
 Alpha  occ. eigenvalues --  -19.19041 -19.17985 -19.13888 -19.11272 -19.11047
 Alpha  occ. eigenvalues --  -14.35879 -14.35467 -14.31998 -14.29013 -10.31819
 Alpha  occ. eigenvalues --  -10.31361 -10.29226 -10.27592 -10.25674 -10.23779
 Alpha  occ. eigenvalues --  -10.23447 -10.23403 -10.23155 -10.23048 -10.22161
 Alpha  occ. eigenvalues --  -10.21731 -10.21613 -10.21414 -10.21243 -10.21188
 Alpha  occ. eigenvalues --  -10.21112 -10.21032 -10.21003 -10.20738 -10.20662
 Alpha  occ. eigenvalues --  -10.20587 -10.20523 -10.20497 -10.20344 -10.20330
 Alpha  occ. eigenvalues --  -10.19808 -10.19777 -10.19761 -10.19598 -10.19595
 Alpha  occ. eigenvalues --  -10.19462 -10.19359 -10.19227 -10.19106 -10.18998
 Alpha  occ. eigenvalues --  -10.18855 -10.18802 -10.18744 -10.18679 -10.18137
 Alpha  occ. eigenvalues --  -10.18130 -10.18059 -10.18013 -10.17951 -10.17920
 Alpha  occ. eigenvalues --  -10.17698 -10.17643 -10.17456 -10.17153 -10.16946
 Alpha  occ. eigenvalues --  -10.16765 -10.16739 -10.16646 -10.16049  -1.09450
 Alpha  occ. eigenvalues --   -1.09212  -1.04952  -0.98471  -0.97486  -0.95960
 Alpha  occ. eigenvalues --   -0.94684  -0.93301  -0.92564  -0.84890  -0.83828
 Alpha  occ. eigenvalues --   -0.82070  -0.81468  -0.81394  -0.81356  -0.80585
 Alpha  occ. eigenvalues --   -0.80256  -0.79955  -0.79464  -0.78364  -0.77823
 Alpha  occ. eigenvalues --   -0.77295  -0.76222  -0.75828  -0.75171  -0.74271
 Alpha  occ. eigenvalues --   -0.73871  -0.73728  -0.72294  -0.71559  -0.70399
 Alpha  occ. eigenvalues --   -0.70028  -0.69244  -0.68811  -0.68591  -0.68087
 Alpha  occ. eigenvalues --   -0.67800  -0.67227  -0.66613  -0.65902  -0.65646
 Alpha  occ. eigenvalues --   -0.64673  -0.63235  -0.62448  -0.61644  -0.61350
 Alpha  occ. eigenvalues --   -0.60916  -0.59829  -0.58532  -0.57889  -0.57649
 Alpha  occ. eigenvalues --   -0.57395  -0.55734  -0.55620  -0.55549  -0.55269
 Alpha  occ. eigenvalues --   -0.54632  -0.54087  -0.53853  -0.53630  -0.53273
 Alpha  occ. eigenvalues --   -0.52710  -0.51892  -0.51682  -0.51081  -0.50692
 Alpha  occ. eigenvalues --   -0.50510  -0.49904  -0.49253  -0.48892  -0.48773
 Alpha  occ. eigenvalues --   -0.48516  -0.47715  -0.47555  -0.47479  -0.47339
 Alpha  occ. eigenvalues --   -0.47198  -0.46694  -0.46196  -0.45636  -0.45618
 Alpha  occ. eigenvalues --   -0.45232  -0.45094  -0.44955  -0.44782  -0.44719
 Alpha  occ. eigenvalues --   -0.44668  -0.44401  -0.43982  -0.43942  -0.43757
 Alpha  occ. eigenvalues --   -0.43700  -0.43660  -0.43320  -0.43090  -0.42423
 Alpha  occ. eigenvalues --   -0.42092  -0.41958  -0.41942  -0.41662  -0.41528
 Alpha  occ. eigenvalues --   -0.41187  -0.40990  -0.40720  -0.40632  -0.40516
 Alpha  occ. eigenvalues --   -0.40137  -0.40053  -0.39891  -0.39742  -0.39631
 Alpha  occ. eigenvalues --   -0.39409  -0.39186  -0.38905  -0.38863  -0.38621
 Alpha  occ. eigenvalues --   -0.38397  -0.38326  -0.38235  -0.38097  -0.37853
 Alpha  occ. eigenvalues --   -0.37822  -0.37648  -0.37565  -0.37109  -0.36950
 Alpha  occ. eigenvalues --   -0.36873  -0.36796  -0.36766  -0.36361  -0.36104
 Alpha  occ. eigenvalues --   -0.35681  -0.35307  -0.35163  -0.34805  -0.34543
 Alpha  occ. eigenvalues --   -0.34322  -0.34263  -0.34063  -0.33846  -0.33742
 Alpha  occ. eigenvalues --   -0.33192  -0.33067  -0.32921  -0.32590  -0.32114
 Alpha  occ. eigenvalues --   -0.31945  -0.31854  -0.31606  -0.30842  -0.30713
 Alpha  occ. eigenvalues --   -0.30563  -0.30529  -0.30461  -0.30383  -0.29969
 Alpha  occ. eigenvalues --   -0.29727  -0.29396  -0.28816  -0.27768  -0.27000
 Alpha  occ. eigenvalues --   -0.26645  -0.26442  -0.26340  -0.25730  -0.25372
 Alpha  occ. eigenvalues --   -0.24823  -0.24713  -0.23834  -0.21873  -0.19823
 Alpha  occ. eigenvalues --   -0.18540
 Alpha virt. eigenvalues --   -0.10216  -0.07993  -0.03977  -0.02049  -0.01340
 Alpha virt. eigenvalues --   -0.00636  -0.00268   0.00539   0.02030   0.03404
 Alpha virt. eigenvalues --    0.03715   0.04183   0.04497   0.04702   0.04803

 Mulliken charges:
               1
     1  C   -0.005270
     2  C    0.056480
     3  C    0.037986
     4  C   -0.111652
     5  N   -0.195261
     6  C   -0.058334
     7  C   -0.076028
     8  C   -0.008001
     9  C    0.079789
    10  C    0.122853
    11  C    0.149849
    12  C    0.018478
    13  C    0.194349
    14  O   -0.295444
    15  O   -0.289652
    16  N   -0.118194
    17  C    0.064575
    18  C   -0.112703
    19  C    0.043486
    20  C    0.085946
    21  C    0.100477
    22  C   -0.066693
    23  C   -0.090169
    24  N   -0.186014
    25  C   -0.035343
    26  C   -0.150252
    27  C   -0.175469
    28  C    0.080604
    29  C    0.312091
    30  C    0.050402
    31  C    0.117611
    32  N   -0.084447
    33  C    0.087574
    34  C   -0.194643
    35  C   -0.008061
    36  C    0.149299
    37  C    0.149881
    38  C    0.101494
    39  O   -0.124040
    40  C   -0.011684
    41  C    0.182774
    42  O   -0.286426
    43  O   -0.279745
    44  C    0.122112
    45  C    0.284150
    46  C   -0.050623
    47  C   -0.168740
    48  C    0.023616
    49  C    0.052340
    50  C    0.178856
    51  C    0.035210
    52  C   -0.082287
    53  C    0.018570
    54  C   -0.085261
    55  C    0.212389
    56  C    0.058297
    57  C   -0.098995
    58  C    0.023126
    59  C   -0.019443
    60  C    0.041106
    61  C   -0.061085
    62  C   -0.055733
    63  C    0.089360
    64  C    0.018769
    65  H   -0.151348
    66  H   -0.034650
    67  H    0.007715
    68  H    0.041394
    69  H   -0.037524
    70  H    0.013058
    71  H   -0.075286
    72  H    0.005136
    73  H   -0.024221
    74  H   -0.016058
    75  H    0.044180
    76  H    0.029441
    77  H    0.024832
    78  H    0.016445
    79  H   -0.000967
    80  H    0.033001
    81  H    0.055077
    82  H    0.021767
    83  H   -0.020850
    84  H   -0.016350
    85  H   -0.041686
    86  H   -0.037522
    87  H   -0.016252
    88  H    0.016203
    89  H   -0.019945
    90  H   -0.007409
    91  H    0.018333
    92  H    0.029889
    93  H    0.030227
    94  H    0.042988
    95  H    0.074862
    96  H    0.053087
    97  H    0.079878
    98  H    0.042092
    99  H    0.000806
   100  H   -0.057234
   101  H    0.016569
   102  H    0.071521
   103  H    0.031906
   104  H    0.002011
   105  H   -0.002529
   106  H   -0.065890
   107  H   -0.016078
   108  H   -0.020419
   109  H   -0.020338
   110  H   -0.023581
   111  H    0.016237
   112  H    0.009483
   113  H    0.006781
   114  H   -0.004326
   115  H   -0.005502
   116  H   -0.012113
   117  H   -0.050756
   118  H   -0.048826
   119  H   -0.009987
   120  H    0.014170
   121  H    0.008461
   122  H    0.015647
   123  H    0.016547
   124  H    0.005070
   125  H   -0.004399
   126  H    0.008922
   127  H   -0.005368
   128  H   -0.010994
   129  H    0.004905
   130  H   -0.021831
   131  H   -0.007917
   132  H    0.006900
   133  H   -0.035309
   134  H    0.018308
   135  H    0.023180
   136  H   -0.013310
   137  H    0.142523
   138  H    0.079019
 Sum of Mulliken charges =  -0.00000

 Dipole moment (field-independent basis, Debye):
    X=              3.6481    Y=              2.7492    Z=              1.3683  Tot=              4.7686
 Quadrupole moment (field-independent basis, Debye-Ang):
   XX=           -366.9042   YY=           -370.8069   ZZ=           -396.3978
   XY=            -17.5894   XZ=             -4.6086   YZ=             -2.8852

 Normal termination of Gaussian 16 at Tue Aug 13 15:19:19 2019.
