 Gaussian 16, Revision A.03,
 Gaussian 16:  ES64L-G16RevA.03 25-Dec-2016

 --------------------------
 # td=(NStates=1) B3LYP/SVP
 --------------------------

 --
 TD
 --
 Symbolic Z-matrix:
 Charge =  0 Multiplicity = 1

                         Standard orientation:
 ---------------------------------------------------------------------
 Center     Atomic      Atomic             Coordinates (Angstroms)
 Number     Number       Type             X           Y           Z
 ---------------------------------------------------------------------
      1          6           0       -5.105659   -1.854822    0.526005
      2          6           0       -4.898875    2.863101    1.314134
      3          6           0       -9.499716    3.167537   -0.342607
      4          6           0       -9.725146   -1.747235   -1.022061
      5          7           0       -5.252318    0.538936    0.857033
      6          6           0       -4.545572   -0.708112    0.972156
      7          6           0       -3.062032   -0.417794    1.454101
      8          6           0       -3.097571    1.015233    1.924103
      9          6           0       -4.453732    1.564896    1.321033
     10          6           0       -3.205703    1.144027    3.455176
     11          6           0       -2.118957   -0.595274    0.257250
     12          6           0       -0.585820   -0.495952    0.749602
     13          6           0        0.361518   -0.639209   -0.364764
     14          8           0        0.056835   -1.138533   -1.374051
     15          8           0        1.702080   -0.464067   -0.011914
     16          7           0       -7.234625    2.783673    0.496053
     17          6           0       -6.068157    3.470675    0.795951
     18          6           0       -6.461234    4.790155    0.974923
     19          6           0       -7.686163    4.971778    0.420709
     20          6           0       -8.243924    3.568576    0.130934
     21          6           0       -5.528749    5.953699    1.423987
     22          6           0       -8.500874    6.210500    0.209672
     23          6           0       -9.293061    6.355360   -0.879483
     24          7           0       -9.268859    0.706570   -0.424221
     25          6           0       -9.907514    1.854459   -0.578113
     26          6           0      -11.419768    1.635527   -0.954382
     27          6           0      -11.403890    0.252674   -1.146336
     28          6           0      -10.049610   -0.311080   -0.887230
     29          6           0      -12.373685    2.634662   -1.216165
     30          6           0      -12.635264   -0.540874   -1.689771
     31          6           0      -12.474159   -0.956212   -3.196035
     32          7           0       -7.484933   -1.350993   -0.121966
     33          6           0       -8.550849   -2.165541   -0.676421
     34          6           0       -8.044459   -3.548201   -0.624149
     35          6           0       -6.704611   -3.475918   -0.157496
     36          6           0       -6.402199   -2.101781    0.118335
     37          6           0       -8.748167   -4.760088   -0.998714
     38          6           0       -5.618372   -4.265506   -0.028197
     39          8           0       -5.302766   -5.487325   -0.105755
     40          6           0       -4.464178   -3.242416    0.449258
     41          6           0       -3.653004   -3.733920    1.700329
     42          8           0       -4.219203   -3.551106    2.858806
     43          8           0       -2.800607   -4.701622    1.407062
     44          6           0       -2.214948   -5.374186    2.545507
     45          6           0        2.653146   -0.753867   -1.031265
     46          6           0        4.081778   -0.407173   -0.416793
     47          6           0        5.013898    0.351726   -0.901000
     48          6           0        4.881339    1.058785   -2.258613
     49          6           0        6.288097    0.415136   -0.180764
     50          6           0        7.581102   -0.092958   -0.925829
     51          6           0        8.886055   -0.015471   -0.051550
     52          6           0       10.074528   -0.463446   -0.865898
     53          6           0       10.004264   -1.840983   -1.466859
     54          6           0       11.328072   -0.346573    0.066852
     55          6           0       12.696261   -0.417784   -0.733511
     56          6           0       13.880448   -0.072932    0.177635
     57          6           0       15.236112   -0.247867   -0.572474
     58          6           0       15.386903   -1.780928   -0.926740
     59          6           0       16.384747    0.402637    0.305804
     60          6           0       17.807640    0.436456   -0.101401
     61          6           0       18.660420    1.323821    0.694162
     62          6           0       20.168307    1.313222    0.190982
     63          6           0       20.254768    2.129962   -1.140036
     64          6           0       21.021276    2.099755    1.171775
     65          1           0       -4.164536    3.435334    2.054655
     66          1           0      -10.083633    3.900325   -0.863850
     67          1           0      -10.393007   -2.425634   -1.399509
     68          1           0       -2.829137   -1.219101    2.297537
     69          1           0       -2.219761    1.684114    1.611643
     70          1           0       -2.364479    0.449650    3.779285
     71          1           0       -3.201062    2.170977    3.890557
     72          1           0       -4.058811    0.723090    4.030257
     73          1           0       -2.334326   -1.696252   -0.060506
     74          1           0       -2.286013    0.093439   -0.457643
     75          1           0       -0.502862    0.507184    1.129536
     76          1           0       -0.663311   -1.183692    1.696030
     77          1           0       -4.586772    5.694507    0.876294
     78          1           0       -5.955206    6.974896    1.204779
     79          1           0       -5.424037    5.823128    2.550504
     80          1           0       -8.273603    7.113838    0.816770
     81          1           0       -9.332930    5.487027   -1.621195
     82          1           0      -10.044387    7.352484   -0.821081
     83          1           0      -12.557965    3.310623   -0.272716
     84          1           0      -12.286982    2.996695   -2.291605
     85          1           0      -13.321364    2.021302   -1.388997
     86          1           0      -12.788129   -1.422081   -0.796497
     87          1           0      -13.616396   -0.076526   -1.589163
     88          1           0      -12.397291    0.023532   -3.849266
     89          1           0      -11.555181   -1.559700   -3.165345
     90          1           0      -13.401626   -1.497226   -3.368783
     91          1           0       -9.892405   -4.606461   -0.408986
     92          1           0       -8.868377   -4.777700   -2.168894
     93          1           0       -8.414343   -5.850496   -0.706282
     94          1           0       -3.622874   -3.291698   -0.443215
     95          1           0       -1.703126   -6.094764    2.061340
     96          1           0       -1.824366   -4.678718    3.357274
     97          1           0       -2.846344   -5.864691    3.236515
     98          1           0        2.529204   -1.862291   -1.059233
     99          1           0        2.413983   -0.194196   -1.984838
    100          1           0        3.898749   -1.066562    0.587253
    101          1           0        5.240236    2.207550   -2.171072
    102          1           0        5.687784    0.752628   -2.970881
    103          1           0        3.923362    1.182517   -2.628698
    104          1           0        6.354810    1.484955   -0.075462
    105          1           0        6.064879   -0.002392    0.835322
    106          1           0        7.304347   -1.031477   -1.137081
    107          1           0        7.606652    0.430358   -1.950117
    108          1           0        8.843780    0.951507    0.361180
    109          1           0        8.594202   -0.673657    0.860127
    110          1           0       10.110873    0.333151   -1.761529
    111          1           0        9.160391   -1.903256   -2.246456
    112          1           0       10.997834   -2.054487   -1.897346
    113          1           0        9.720741   -2.717038   -0.696345
    114          1           0       11.261411    0.602843    0.784493
    115          1           0       11.498182   -1.258777    0.727559
    116          1           0       12.778110   -1.197278   -1.250483
    117          1           0       12.598370    0.565391   -1.473727
    118          1           0       13.698533    1.011204    0.565283
    119          1           0       14.006186   -0.858325    1.091843
    120          1           0       15.157699    0.389588   -1.626868
    121          1           0       14.614800   -2.130468   -1.641274
    122          1           0       16.438763   -2.150358   -1.397154
    123          1           0       15.367654   -2.287665   -0.051600
    124          1           0       16.102834    1.391432    0.589719
    125          1           0       16.209749   -0.156366    1.260175
    126          1           0       18.129050   -0.638170   -0.159749
    127          1           0       17.802326    0.665215   -1.074247
    128          1           0       18.405886    2.312245    0.848426
    129          1           0       18.625119    1.020302    1.684112
    130          1           0       20.479439    0.239800    0.339052
    131          1           0       20.063494    3.167866   -1.082815
    132          1           0       21.220319    2.207276   -1.784117
    133          1           0       19.617359    1.733583   -1.821891
    134          1           0       20.798752    1.818778    2.192329
    135          1           0       21.982443    1.891504    0.896476
    136          1           0       20.740805    3.251397    1.231922
    137          1           0       -7.194366    1.643529    0.436377
    138          1           0       -7.275990   -0.256865   -0.203900
 ---------------------------------------------------------------------

 SCF Done:  E(RB3LYP) =  -2733.00199574     A.U. after   17 cycles

 Excitation energies and oscillator strengths:

 Excited State   1:      Singlet-A      1.9454 eV  637.31 nm  f=0.1933  <S**2>=0.000
     235 -> 238       -0.25851
     236 -> 237        0.64064
     236 -> 238       -0.10758
 This state for optimization and/or second-order correction.
 Total Energy, E(TD-HF/TD-DFT) =  -2732.93050215
 Copying the excited state density for this state as the 1-particle RhoCI density.

 The electronic state is 1-A.
 Alpha  occ. eigenvalues --  -19.19544 -19.16211 -19.12737 -19.11491 -19.11102
 Alpha  occ. eigenvalues --  -14.37687 -14.37627 -14.32962 -14.30361 -10.31719
 Alpha  occ. eigenvalues --  -10.31158 -10.26901 -10.24393 -10.23977 -10.23967
 Alpha  occ. eigenvalues --  -10.23957 -10.23901 -10.23692 -10.23673 -10.23174
 Alpha  occ. eigenvalues --  -10.22959 -10.22888 -10.22694 -10.21733 -10.21732
 Alpha  occ. eigenvalues --  -10.21620 -10.21400 -10.21276 -10.20956 -10.20950
 Alpha  occ. eigenvalues --  -10.20882 -10.20645 -10.20494 -10.20483 -10.20319
 Alpha  occ. eigenvalues --  -10.20205 -10.20104 -10.19976 -10.19962 -10.19958
 Alpha  occ. eigenvalues --  -10.19866 -10.19851 -10.19697 -10.19661 -10.19618
 Alpha  occ. eigenvalues --  -10.19602 -10.19545 -10.19517 -10.19482 -10.19348
 Alpha  occ. eigenvalues --  -10.19130 -10.19053 -10.18633 -10.18627 -10.18528
 Alpha  occ. eigenvalues --  -10.18278 -10.18272 -10.18248 -10.18074 -10.17311
 Alpha  occ. eigenvalues --  -10.17169 -10.16905 -10.16325 -10.16309  -1.09653
 Alpha  occ. eigenvalues --   -1.09473  -1.01408  -0.99239  -0.98672  -0.97516
 Alpha  occ. eigenvalues --   -0.96342  -0.93410  -0.92129  -0.85150  -0.82717
 Alpha  occ. eigenvalues --   -0.82133  -0.81877  -0.81447  -0.81263  -0.81063
 Alpha  occ. eigenvalues --   -0.80139  -0.79580  -0.79312  -0.79035  -0.77163
 Alpha  occ. eigenvalues --   -0.76496  -0.76110  -0.75860  -0.74731  -0.74611
 Alpha  occ. eigenvalues --   -0.74369  -0.73329  -0.72640  -0.71627  -0.70088
 Alpha  occ. eigenvalues --   -0.69354  -0.68781  -0.68495  -0.68291  -0.67999
 Alpha  occ. eigenvalues --   -0.67428  -0.67063  -0.66435  -0.66077  -0.65067
 Alpha  occ. eigenvalues --   -0.64303  -0.62834  -0.62441  -0.61604  -0.60611
 Alpha  occ. eigenvalues --   -0.60195  -0.59578  -0.58930  -0.58439  -0.57667
 Alpha  occ. eigenvalues --   -0.57362  -0.56346  -0.56284  -0.55179  -0.55087
 Alpha  occ. eigenvalues --   -0.54647  -0.54382  -0.53738  -0.53298  -0.53055
 Alpha  occ. eigenvalues --   -0.52306  -0.51917  -0.51427  -0.50750  -0.49795
 Alpha  occ. eigenvalues --   -0.49622  -0.49101  -0.48197  -0.48164  -0.48048
 Alpha  occ. eigenvalues --   -0.47721  -0.47575  -0.47251  -0.47031  -0.47023
 Alpha  occ. eigenvalues --   -0.46494  -0.46340  -0.46067  -0.45975  -0.45778
 Alpha  occ. eigenvalues --   -0.45294  -0.45221  -0.45081  -0.44905  -0.44794
 Alpha  occ. eigenvalues --   -0.44601  -0.44467  -0.44293  -0.43854  -0.43538
 Alpha  occ. eigenvalues --   -0.43349  -0.43115  -0.42874  -0.42727  -0.42476
 Alpha  occ. eigenvalues --   -0.42299  -0.42113  -0.41774  -0.41477  -0.41406
 Alpha  occ. eigenvalues --   -0.41115  -0.40923  -0.40675  -0.40613  -0.40543
 Alpha  occ. eigenvalues --   -0.40387  -0.40319  -0.40054  -0.39771  -0.39643
 Alpha  occ. eigenvalues --   -0.39191  -0.38975  -0.38784  -0.38705  -0.38358
 Alpha  occ. eigenvalues --   -0.38007  -0.37711  -0.37576  -0.37415  -0.37156
 Alpha  occ. eigenvalues --   -0.37034  -0.36866  -0.36818  -0.36545  -0.36506
 Alpha  occ. eigenvalues --   -0.36474  -0.36394  -0.36169  -0.35777  -0.35609
 Alpha  occ. eigenvalues --   -0.35345  -0.35225  -0.35060  -0.34843  -0.34826
 Alpha  occ. eigenvalues --   -0.34570  -0.34102  -0.34013  -0.33948  -0.33271
 Alpha  occ. eigenvalues --   -0.33146  -0.32944  -0.32874  -0.32738  -0.32729
 Alpha  occ. eigenvalues --   -0.32215  -0.32036  -0.31683  -0.31432  -0.31307
 Alpha  occ. eigenvalues --   -0.30779  -0.30357  -0.30301  -0.30256  -0.29808
 Alpha  occ. eigenvalues --   -0.29601  -0.29550  -0.28567  -0.28325  -0.27994
 Alpha  occ. eigenvalues --   -0.27289  -0.26892  -0.26293  -0.25839  -0.25281
 Alpha  occ. eigenvalues --   -0.24993  -0.24070  -0.23989  -0.22349  -0.20432
 Alpha  occ. eigenvalues --   -0.18791
 Alpha virt. eigenvalues --   -0.10810  -0.08315  -0.05180  -0.03062  -0.01864
 Alpha virt. eigenvalues --   -0.00983   0.00855   0.01502   0.01927   0.03571
 Alpha virt. eigenvalues --    0.03746   0.04040   0.04139   0.04667   0.04686

 Mulliken charges:
               1
     1  C    0.121092
     2  C   -0.084754
     3  C   -0.073454
     4  C   -0.097141
     5  N   -0.275226
     6  C   -0.073523
     7  C   -0.072633
     8  C   -0.017459
     9  C   -0.020776
    10  C    0.024205
    11  C    0.068654
    12  C    0.017203
    13  C    0.198996
    14  O   -0.182624
    15  O   -0.355364
    16  N   -0.113688
    17  C    0.134791
    18  C   -0.160985
    19  C    0.015484
    20  C    0.072130
    21  C    0.072481
    22  C   -0.034180
    23  C   -0.088799
    24  N   -0.192793
    25  C    0.027490
    26  C   -0.173198
    27  C   -0.081535
    28  C    0.061239
    29  C    0.088218
    30  C   -0.052298
    31  C    0.023177
    32  N   -0.110986
    33  C    0.204038
    34  C   -0.062434
    35  C    0.069162
    36  C    0.040555
    37  C   -0.056515
    38  C    0.045799
    39  O   -0.223020
    40  C   -0.151415
    41  C    0.230302
    42  O   -0.326920
    43  O   -0.251078
    44  C    0.237535
    45  C    0.227994
    46  C   -0.142381
    47  C   -0.114050
    48  C    0.074530
    49  C    0.103564
    50  C    0.003830
    51  C    0.075856
    52  C   -0.061893
    53  C   -0.003518
    54  C   -0.011541
    55  C    0.089077
    56  C   -0.033694
    57  C   -0.110701
    58  C    0.027205
    59  C    0.019440
    60  C    0.197338
    61  C    0.070172
    62  C   -0.114427
    63  C    0.081705
    64  C    0.076284
    65  H    0.008783
    66  H   -0.019206
    67  H   -0.051296
    68  H    0.041784
    69  H    0.022329
    70  H    0.014166
    71  H    0.020890
    72  H    0.026025
    73  H    0.039041
    74  H   -0.020926
    75  H    0.004658
    76  H    0.055275
    77  H    0.043420
    78  H    0.032440
    79  H    0.037058
    80  H    0.010684
    81  H    0.058660
    82  H    0.056968
    83  H    0.056519
    84  H    0.037724
    85  H   -0.004246
    86  H    0.017912
    87  H   -0.002362
    88  H    0.038364
    89  H    0.018873
    90  H    0.022882
    91  H    0.052779
    92  H    0.063264
    93  H    0.078660
    94  H    0.072574
    95  H    0.014349
    96  H    0.031919
    97  H    0.013513
    98  H    0.011154
    99  H    0.023774
   100  H    0.024198
   101  H    0.005019
   102  H    0.032198
   103  H   -0.000789
   104  H   -0.018577
   105  H    0.001213
   106  H   -0.025124
   107  H    0.000331
   108  H   -0.019203
   109  H   -0.001767
   110  H    0.010840
   111  H    0.025495
   112  H    0.016643
   113  H    0.023821
   114  H    0.014240
   115  H    0.001859
   116  H   -0.081035
   117  H    0.002821
   118  H    0.018150
   119  H    0.011668
   120  H   -0.000304
   121  H    0.026854
   122  H    0.019090
   123  H   -0.020276
   124  H   -0.029075
   125  H   -0.025875
   126  H   -0.022024
   127  H   -0.060810
   128  H   -0.045131
   129  H   -0.046536
   130  H    0.005276
   131  H   -0.008184
   132  H    0.001468
   133  H   -0.030571
   134  H   -0.016205
   135  H   -0.008185
   136  H    0.005592
   137  H    0.205503
   138  H    0.204451
 Sum of Mulliken charges =  -0.00000

 Dipole moment (field-independent basis, Debye):
    X=              1.2074    Y=              4.1652    Z=             -0.3632  Tot=              4.3519
 Quadrupole moment (field-independent basis, Debye-Ang):
   XX=           -355.7596   YY=           -383.6783   ZZ=           -393.9029
   XY=            -23.9972   XZ=             16.4884   YZ=              0.6614

 Normal termination of Gaussian 16 at Wed Aug 14 09:57:50 2019.
