 Gaussian 16, Revision A.03,
 Gaussian 16:  ES64L-G16RevA.03 25-Dec-2016

 --------------------------
 # td=(NStates=1) B3LYP/SVP
 --------------------------

 --
 TD
 --
 Symbolic Z-matrix:
 Charge =  0 Multiplicity = 1

                         Standard orientation:
 ---------------------------------------------------------------------
 Center     Atomic      Atomic             Coordinates (Angstroms)
 Number     Number       Type             X           Y           Z
 ---------------------------------------------------------------------
      1          6           0       -5.178152   -1.919144    0.486940
      2          6           0       -4.680327    2.713229    1.695812
      3          6           0       -9.219795    3.355298   -0.298744
      4          6           0       -9.814369   -1.384313   -1.120492
      5          7           0       -5.195360    0.438853    0.969824
      6          6           0       -4.544087   -0.808645    0.908503
      7          6           0       -3.147682   -0.649671    1.388219
      8          6           0       -3.153758    0.728407    2.094999
      9          6           0       -4.465181    1.335128    1.603867
     10          6           0       -3.334721    0.511836    3.591550
     11          6           0       -2.167458   -0.856713    0.180011
     12          6           0       -0.634579   -0.841842    0.612096
     13          6           0        0.332011   -1.107344   -0.519311
     14          8           0        0.043795   -1.502752   -1.595511
     15          8           0        1.622945   -0.843119   -0.162094
     16          7           0       -7.064842    2.794735    0.580789
     17          6           0       -5.919055    3.395196    1.164225
     18          6           0       -6.103730    4.802503    1.239933
     19          6           0       -7.383672    4.965580    0.630139
     20          6           0       -7.914519    3.681828    0.206337
     21          6           0       -5.074023    5.815080    1.588439
     22          6           0       -7.980113    6.351023    0.414899
     23          6           0       -8.829369    6.854785   -0.475446
     24          7           0       -9.131126    0.942866   -0.588330
     25          6           0       -9.802822    2.188701   -0.548165
     26          6           0      -11.201650    2.021246   -1.030312
     27          6           0      -11.400301    0.653419   -1.332803
     28          6           0      -10.100643   -0.028593   -1.017371
     29          6           0      -12.102470    3.079045   -1.285257
     30          6           0      -12.502678    0.040960   -1.989843
     31          6           0      -12.360910   -0.221225   -3.508085
     32          7           0       -7.582363   -1.143410   -0.300605
     33          6           0       -8.589488   -1.928458   -0.863712
     34          6           0       -8.163582   -3.369321   -0.813474
     35          6           0       -6.897183   -3.324565   -0.357409
     36          6           0       -6.465588   -2.055805   -0.091903
     37          6           0       -8.938865   -4.591784   -1.344062
     38          6           0       -5.740963   -4.242990   -0.052929
     39          8           0       -5.686286   -5.457517   -0.227416
     40          6           0       -4.612428   -3.385672    0.405369
     41          6           0       -4.104256   -3.844730    1.689863
     42          8           0       -4.386869   -3.533647    2.859126
     43          8           0       -3.298077   -4.896884    1.508785
     44          6           0       -2.932326   -5.588250    2.685938
     45          6           0        2.729917   -1.080641   -1.004170
     46          6           0        3.987826   -0.681892   -0.358779
     47          6           0        4.987690    0.013179   -0.889976
     48          6           0        4.961619    0.745702   -2.275392
     49          6           0        6.313013    0.138267   -0.172181
     50          6           0        7.437511   -0.639197   -0.714438
     51          6           0        8.772450   -0.315087    0.039119
     52          6           0       10.058531   -0.848404   -0.570062
     53          6           0       10.145616   -2.505386   -0.553127
     54          6           0       11.223934   -0.371039    0.100065
     55          6           0       12.725220   -0.704823   -0.543211
     56          6           0       13.903005   -0.232925    0.193141
     57          6           0       15.227608   -0.164635   -0.496437
     58          6           0       15.741077   -1.581299   -0.705678
     59          6           0       16.234298    0.732811    0.273862
     60          6           0       17.653273    0.786378   -0.380481
     61          6           0       18.558524    1.747546    0.358114
     62          6           0       20.075745    1.844974   -0.079285
     63          6           0       20.190137    2.485119   -1.420831
     64          6           0       20.911834    2.576236    0.920803
     65          1           0       -3.873271    3.342038    2.192931
     66          1           0       -9.755187    4.177585   -0.670490
     67          1           0      -10.507180   -1.975055   -1.583121
     68          1           0       -2.890586   -1.354716    2.246988
     69          1           0       -2.295356    1.366100    1.970685
     70          1           0       -2.397110    0.187957    3.973371
     71          1           0       -3.612715    1.437130    4.098174
     72          1           0       -4.210303   -0.300992    3.893595
     73          1           0       -2.132161   -1.882567   -0.190748
     74          1           0       -2.304847   -0.115818   -0.713713
     75          1           0       -0.460221    0.165797    1.086775
     76          1           0       -0.390623   -1.676802    1.292035
     77          1           0       -3.981775    5.906269    1.184249
     78          1           0       -5.461433    6.822668    1.679244
     79          1           0       -4.907607    5.688553    2.702247
     80          1           0       -7.608426    7.032388    1.214117
     81          1           0       -9.173079    6.166283   -1.397884
     82          1           0       -9.239148    7.886700   -0.428062
     83          1           0      -12.468903    3.664987   -0.502922
     84          1           0      -11.725187    3.945973   -2.138810
     85          1           0      -13.073523    2.716611   -1.762928
     86          1           0      -12.695910   -0.944390   -1.359622
     87          1           0      -13.298735    0.675506   -1.848895
     88          1           0      -12.288073    0.627090   -4.023129
     89          1           0      -11.447834   -0.676926   -3.774060
     90          1           0      -13.257309   -0.817541   -3.972636
     91          1           0      -10.015045   -4.405689   -1.015398
     92          1           0       -8.991131   -4.402227   -2.451054
     93          1           0       -8.273001   -5.509383   -0.999180
     94          1           0       -3.750787   -3.394636   -0.205599
     95          1           0       -2.369154   -6.627446    2.290017
     96          1           0       -2.256982   -4.981013    3.385524
     97          1           0       -3.676587   -5.963975    3.191185
     98          1           0        2.708311   -2.211178   -1.238893
     99          1           0        2.255734   -0.719354   -1.975185
    100          1           0        4.148147   -1.029792    0.505282
    101          1           0        5.277614    1.718028   -2.033408
    102          1           0        5.741824    0.256663   -2.734374
    103          1           0        3.905053    0.794236   -2.768944
    104          1           0        6.581278    1.203254   -0.276260
    105          1           0        6.092073   -0.039160    0.764941
    106          1           0        7.427476   -1.940741   -0.495057
    107          1           0        7.802533   -0.366854   -1.753404
    108          1           0        8.928691    0.750458    0.002939
    109          1           0        8.641432   -0.463281    1.256245
    110          1           0       10.065197   -0.540580   -1.729045
    111          1           0        9.163990   -2.972669   -1.086877
    112          1           0       10.954960   -2.975071   -1.134815
    113          1           0       10.334353   -2.826497    0.637491
    114          1           0       11.082085    0.770916    0.164415
    115          1           0       11.092183   -0.919521    1.201376
    116          1           0       12.667825   -1.940771   -0.535765
    117          1           0       12.720071   -0.322008   -1.388698
    118          1           0       13.443063    0.852095    0.483182
    119          1           0       14.025857   -0.576561    1.192044
    120          1           0       15.125178    0.527471   -1.352972
    121          1           0       14.706926   -2.139617   -1.198908
    122          1           0       16.585349   -1.791680   -1.429280
    123          1           0       15.838807   -2.269541    0.206658
    124          1           0       15.678367    1.734750    0.260508
    125          1           0       16.310621    0.276262    1.324815
    126          1           0       17.953264   -0.016232   -0.425934
    127          1           0       17.400079    1.086178   -1.342488
    128          1           0       18.097473    2.655971    0.442670
    129          1           0       18.621097    1.214807    1.439833
    130          1           0       20.485826    0.805971   -0.281690
    131          1           0       19.394952    3.300530   -1.460815
    132          1           0       21.262564    2.484382   -1.824671
    133          1           0       19.752138    1.626175   -2.107978
    134          1           0       20.668076    2.231058    1.814330
    135          1           0       22.034548    2.553707    0.644172
    136          1           0       20.731766    3.691909    0.953681
    137          1           0       -7.074286    1.824842    0.348685
    138          1           0       -7.652125   -0.173483   -0.078812
 ---------------------------------------------------------------------

 SCF Done:  E(RB3LYP) =  -2732.98132323     A.U. after   18 cycles

 Excitation energies and oscillator strengths:

 Excited State   1:      Singlet-A      1.9871 eV  623.94 nm  f=0.1908  <S**2>=0.000
     235 -> 237       -0.25075
     235 -> 238       -0.25190
     236 -> 237        0.58671
     236 -> 238       -0.16113
 This state for optimization and/or second-order correction.
 Total Energy, E(TD-HF/TD-DFT) =  -2732.90829851
 Copying the excited state density for this state as the 1-particle RhoCI density.

 The electronic state is 1-A.
 Alpha  occ. eigenvalues --  -19.18082 -19.16122 -19.13296 -19.12559 -19.12284
 Alpha  occ. eigenvalues --  -14.37281 -14.36219 -14.31880 -14.30196 -10.31845
 Alpha  occ. eigenvalues --  -10.31303 -10.28952 -10.24909 -10.24649 -10.24328
 Alpha  occ. eigenvalues --  -10.23605 -10.23600 -10.23596 -10.22847 -10.22121
 Alpha  occ. eigenvalues --  -10.21856 -10.21797 -10.21757 -10.21416 -10.21270
 Alpha  occ. eigenvalues --  -10.21070 -10.20925 -10.20884 -10.20874 -10.20870
 Alpha  occ. eigenvalues --  -10.20861 -10.20810 -10.20739 -10.20735 -10.20683
 Alpha  occ. eigenvalues --  -10.20598 -10.20428 -10.20096 -10.20091 -10.20067
 Alpha  occ. eigenvalues --  -10.19935 -10.19778 -10.19753 -10.19665 -10.19137
 Alpha  occ. eigenvalues --  -10.19100 -10.19094 -10.19050 -10.18968 -10.18931
 Alpha  occ. eigenvalues --  -10.18919 -10.18865 -10.18708 -10.18634 -10.18615
 Alpha  occ. eigenvalues --  -10.18601 -10.18582 -10.18415 -10.18333 -10.18249
 Alpha  occ. eigenvalues --  -10.17920 -10.17168 -10.16893 -10.15441  -1.10492
 Alpha  occ. eigenvalues --   -1.09479  -1.03028  -1.01431  -0.99698  -0.99104
 Alpha  occ. eigenvalues --   -0.96400  -0.94138  -0.90493  -0.86332  -0.83594
 Alpha  occ. eigenvalues --   -0.82808  -0.81725  -0.81550  -0.80887  -0.80619
 Alpha  occ. eigenvalues --   -0.80553  -0.80392  -0.79977  -0.78746  -0.78182
 Alpha  occ. eigenvalues --   -0.77688  -0.76912  -0.76338  -0.75727  -0.74886
 Alpha  occ. eigenvalues --   -0.74248  -0.73433  -0.72773  -0.72023  -0.71152
 Alpha  occ. eigenvalues --   -0.70395  -0.69931  -0.69120  -0.68507  -0.67644
 Alpha  occ. eigenvalues --   -0.67598  -0.66582  -0.66163  -0.66066  -0.65551
 Alpha  occ. eigenvalues --   -0.63778  -0.63161  -0.63038  -0.62094  -0.62019
 Alpha  occ. eigenvalues --   -0.61594  -0.59902  -0.58759  -0.57979  -0.57555
 Alpha  occ. eigenvalues --   -0.57140  -0.56732  -0.56064  -0.55561  -0.55386
 Alpha  occ. eigenvalues --   -0.55273  -0.54563  -0.54074  -0.53573  -0.53221
 Alpha  occ. eigenvalues --   -0.53109  -0.52279  -0.52072  -0.51548  -0.50525
 Alpha  occ. eigenvalues --   -0.49876  -0.49725  -0.49232  -0.49001  -0.48780
 Alpha  occ. eigenvalues --   -0.48659  -0.48004  -0.47743  -0.47652  -0.47395
 Alpha  occ. eigenvalues --   -0.46831  -0.46695  -0.46561  -0.46351  -0.46026
 Alpha  occ. eigenvalues --   -0.45841  -0.45578  -0.45329  -0.45007  -0.44739
 Alpha  occ. eigenvalues --   -0.44634  -0.44574  -0.44292  -0.44263  -0.44088
 Alpha  occ. eigenvalues --   -0.43948  -0.43764  -0.43319  -0.42933  -0.42856
 Alpha  occ. eigenvalues --   -0.42754  -0.42142  -0.42097  -0.41823  -0.41728
 Alpha  occ. eigenvalues --   -0.41487  -0.41293  -0.41115  -0.41015  -0.40868
 Alpha  occ. eigenvalues --   -0.40404  -0.40084  -0.39973  -0.39826  -0.39676
 Alpha  occ. eigenvalues --   -0.39486  -0.39195  -0.39069  -0.38704  -0.38279
 Alpha  occ. eigenvalues --   -0.38252  -0.38206  -0.37960  -0.37909  -0.37623
 Alpha  occ. eigenvalues --   -0.37487  -0.37407  -0.37086  -0.36886  -0.36784
 Alpha  occ. eigenvalues --   -0.36577  -0.36370  -0.36172  -0.36027  -0.35766
 Alpha  occ. eigenvalues --   -0.35668  -0.35611  -0.35247  -0.34961  -0.34815
 Alpha  occ. eigenvalues --   -0.34610  -0.34545  -0.34471  -0.34096  -0.34057
 Alpha  occ. eigenvalues --   -0.33950  -0.33650  -0.33216  -0.33130  -0.32463
 Alpha  occ. eigenvalues --   -0.32300  -0.31944  -0.31593  -0.31261  -0.31058
 Alpha  occ. eigenvalues --   -0.30983  -0.30637  -0.30429  -0.30041  -0.29841
 Alpha  occ. eigenvalues --   -0.29431  -0.29322  -0.28047  -0.28011  -0.27809
 Alpha  occ. eigenvalues --   -0.27805  -0.27091  -0.26395  -0.26322  -0.26182
 Alpha  occ. eigenvalues --   -0.25824  -0.25127  -0.23823  -0.21956  -0.19889
 Alpha  occ. eigenvalues --   -0.18804
 Alpha virt. eigenvalues --   -0.10778  -0.07705  -0.05132  -0.01504  -0.00591
 Alpha virt. eigenvalues --    0.00287   0.00715   0.01152   0.01644   0.03456
 Alpha virt. eigenvalues --    0.03544   0.04108   0.04239   0.04489   0.04757

 Mulliken charges:
               1
     1  C    0.044026
     2  C   -0.066282
     3  C   -0.052793
     4  C   -0.057268
     5  N   -0.179929
     6  C   -0.093267
     7  C    0.001917
     8  C   -0.059822
     9  C    0.014053
    10  C    0.031963
    11  C    0.030199
    12  C    0.001796
    13  C    0.157443
    14  O   -0.205124
    15  O   -0.333054
    16  N    0.016478
    17  C    0.057168
    18  C   -0.102771
    19  C   -0.012645
    20  C    0.028659
    21  C    0.087682
    22  C   -0.026498
    23  C   -0.071277
    24  N   -0.340121
    25  C    0.134528
    26  C   -0.069766
    27  C   -0.087598
    28  C    0.080586
    29  C    0.030801
    30  C    0.075853
    31  C    0.080478
    32  N   -0.101739
    33  C    0.119337
    34  C   -0.206354
    35  C    0.020641
    36  C    0.118102
    37  C    0.063016
    38  C    0.088556
    39  O   -0.170314
    40  C    0.080886
    41  C    0.160226
    42  O   -0.259603
    43  O   -0.278026
    44  C    0.201173
    45  C    0.227936
    46  C    0.058651
    47  C   -0.200739
    48  C    0.144384
    49  C    0.182249
    50  C   -0.025767
    51  C   -0.018215
    52  C   -0.063963
    53  C   -0.072473
    54  C   -0.046327
    55  C    0.136733
    56  C   -0.004228
    57  C   -0.015514
    58  C   -0.032628
    59  C   -0.065268
    60  C    0.276455
    61  C    0.007115
    62  C   -0.109409
    63  C    0.006930
    64  C    0.110970
    65  H    0.003704
    66  H   -0.063656
    67  H   -0.062948
    68  H    0.020355
    69  H   -0.015997
    70  H    0.002902
    71  H    0.003212
    72  H    0.059628
    73  H    0.017298
    74  H    0.041373
    75  H    0.036139
    76  H    0.035555
    77  H    0.058915
    78  H   -0.007112
    79  H    0.011754
    80  H    0.004495
    81  H    0.046291
    82  H    0.032349
    83  H    0.008433
    84  H    0.031687
    85  H    0.005288
    86  H    0.018003
    87  H   -0.031157
    88  H   -0.030300
    89  H   -0.008590
    90  H    0.024793
    91  H    0.036796
    92  H    0.042406
    93  H    0.086057
    94  H    0.039748
    95  H    0.036618
    96  H    0.038763
    97  H   -0.009806
    98  H    0.016027
    99  H    0.019077
   100  H   -0.106643
   101  H   -0.006934
   102  H   -0.004131
   103  H    0.038760
   104  H   -0.012153
   105  H   -0.055206
   106  H    0.039384
   107  H    0.013954
   108  H   -0.022616
   109  H    0.007802
   110  H    0.005063
   111  H    0.028408
   112  H    0.029841
   113  H    0.027934
   114  H    0.002908
   115  H    0.015128
   116  H    0.026028
   117  H   -0.080130
   118  H   -0.013850
   119  H   -0.026059
   120  H   -0.014915
   121  H    0.008361
   122  H    0.036771
   123  H    0.024459
   124  H    0.001148
   125  H   -0.006501
   126  H   -0.147991
   127  H   -0.037994
   128  H   -0.026336
   129  H    0.002380
   130  H   -0.010030
   131  H    0.019425
   132  H    0.023788
   133  H   -0.003619
   134  H   -0.035293
   135  H    0.009682
   136  H   -0.005639
   137  H    0.132461
   138  H    0.126044
 Sum of Mulliken charges =  -0.00000

 Dipole moment (field-independent basis, Debye):
    X=              2.5756    Y=              3.6831    Z=              0.0290  Tot=              4.4944
 Quadrupole moment (field-independent basis, Debye-Ang):
   XX=           -358.9112   YY=           -385.8711   ZZ=           -396.3319
   XY=            -20.2257   XZ=             11.1827   YZ=              0.0417

 Normal termination of Gaussian 16 at Sat Aug 24 18:56:39 2019.
