 Gaussian 16, Revision A.03,
 Gaussian 16:  ES64L-G16RevA.03 25-Dec-2016

 --------------------------
 # td=(NStates=1) B3LYP/SVP
 --------------------------

 --
 TD
 --
 Symbolic Z-matrix:
 Charge =  0 Multiplicity = 1

                         Standard orientation:
 ---------------------------------------------------------------------
 Center     Atomic      Atomic             Coordinates (Angstroms)
 Number     Number       Type             X           Y           Z
 ---------------------------------------------------------------------
      1          6           0       -5.123961   -1.846912    0.504779
      2          6           0       -4.817275    2.802175    1.337251
      3          6           0       -9.567113    3.204337   -0.229687
      4          6           0       -9.810048   -1.552799   -0.975360
      5          7           0       -5.222328    0.493728    0.698030
      6          6           0       -4.497666   -0.589728    0.839919
      7          6           0       -3.057642   -0.395781    1.219971
      8          6           0       -3.076585    0.972291    1.697374
      9          6           0       -4.452811    1.483152    1.288664
     10          6           0       -2.983740    1.146295    3.249459
     11          6           0       -2.075198   -0.639960    0.067545
     12          6           0       -0.662771   -0.649727    0.481349
     13          6           0        0.373334   -0.957701   -0.583988
     14          8           0        0.208432   -1.484010   -1.679163
     15          8           0        1.636584   -0.691253   -0.144313
     16          7           0       -7.101989    2.862896    0.446211
     17          6           0       -6.084336    3.458441    0.926855
     18          6           0       -6.432699    4.796351    1.121771
     19          6           0       -7.712111    5.065046    0.628255
     20          6           0       -8.170065    3.617001    0.143620
     21          6           0       -5.575547    5.969366    1.403911
     22          6           0       -8.405219    6.208262    0.363490
     23          6           0       -9.388901    6.568921   -0.625425
     24          7           0       -9.299518    0.684062   -0.417939
     25          6           0      -10.016714    1.915275   -0.496955
     26          6           0      -11.337083    1.704486   -1.002680
     27          6           0      -11.434571    0.334751   -1.224706
     28          6           0      -10.230181   -0.204586   -0.809314
     29          6           0      -12.348772    2.752817   -1.249143
     30          6           0      -12.586950   -0.530852   -1.670196
     31          6           0      -12.592577   -0.912719   -3.155276
     32          7           0       -7.467308   -1.315886   -0.146843
     33          6           0       -8.550676   -2.055470   -0.650104
     34          6           0       -8.129313   -3.477706   -0.532934
     35          6           0       -6.824775   -3.449617   -0.022995
     36          6           0       -6.358451   -2.088527    0.008826
     37          6           0       -8.878473   -4.727944   -0.980067
     38          6           0       -5.620781   -4.320673    0.095894
     39          8           0       -5.517046   -5.539154    0.101689
     40          6           0       -4.489664   -3.267736    0.467464
     41          6           0       -3.871538   -3.808023    1.688628
     42          8           0       -4.027131   -3.296738    2.802127
     43          8           0       -2.917113   -4.743260    1.439856
     44          6           0       -2.355072   -5.305214    2.611574
     45          6           0        2.723287   -1.009484   -1.072887
     46          6           0        4.055761   -0.685554   -0.493422
     47          6           0        4.952343    0.177707   -0.936434
     48          6           0        4.887396    0.801436   -2.364840
     49          6           0        6.310682    0.340728   -0.314930
     50          6           0        7.412327   -0.377847   -1.041870
     51          6           0        8.777818   -0.148197   -0.162088
     52          6           0       10.116804   -0.719576   -0.753650
     53          6           0        9.998906   -2.328306   -0.642218
     54          6           0       11.380889   -0.257610    0.039738
     55          6           0       12.736585   -0.626978   -0.528568
     56          6           0       13.836517    0.312758    0.187619
     57          6           0       15.337239   -0.163219   -0.368152
     58          6           0       15.675196   -1.538943   -0.199872
     59          6           0       16.359983    0.760921    0.361581
     60          6           0       17.660529    0.695327   -0.288262
     61          6           0       18.681973    1.563307    0.456282
     62          6           0       20.182501    1.386213    0.036923
     63          6           0       20.282232    2.142396   -1.412299
     64          6           0       21.112216    2.061952    1.054313
     65          1           0       -4.201228    3.654260    1.634454
     66          1           0      -10.280344    4.182910   -0.217031
     67          1           0      -10.688343   -2.274927   -1.406056
     68          1           0       -2.708341   -1.077582    2.021840
     69          1           0       -2.168262    1.583602    1.243094
     70          1           0       -2.108391    0.653843    3.666302
     71          1           0       -3.264544    2.126098    3.749111
     72          1           0       -3.900660    0.548997    3.748790
     73          1           0       -2.317791   -1.502869   -0.673555
     74          1           0       -2.033814    0.205648   -0.756475
     75          1           0       -0.330940    0.325516    0.896710
     76          1           0       -0.280861   -1.196219    1.404018
     77          1           0       -4.766793    6.188800    0.683460
     78          1           0       -6.205617    7.000211    1.531127
     79          1           0       -4.945088    5.865381    2.372838
     80          1           0       -8.230280    7.213960    0.973271
     81          1           0       -9.575875    5.937934   -1.341129
     82          1           0       -9.861601    7.591026   -0.460458
     83          1           0      -12.531385    3.321956   -0.458309
     84          1           0      -12.094245    3.612848   -1.830255
     85          1           0      -13.294641    2.429999   -1.603758
     86          1           0      -12.534926   -1.320786   -0.984236
     87          1           0      -13.570418    0.044837   -1.503429
     88          1           0      -12.926114   -0.071307   -3.988369
     89          1           0      -11.823684   -1.347140   -3.523832
     90          1           0      -13.585493   -1.472397   -3.466150
     91          1           0       -9.572519   -5.025513   -0.106809
     92          1           0       -9.430007   -4.587002   -1.802355
     93          1           0       -8.347466   -5.599642   -0.863147
     94          1           0       -3.767786   -3.443492   -0.200467
     95          1           0       -1.531356   -5.857182    2.282001
     96          1           0       -1.877077   -4.570911    3.285188
     97          1           0       -3.105544   -5.999365    3.213562
     98          1           0        2.559871   -2.034392   -1.289513
     99          1           0        2.526794   -0.700670   -2.083790
    100          1           0        4.261460   -0.995773    0.550088
    101          1           0        5.654526    1.750990   -2.310530
    102          1           0        5.279418   -0.036110   -3.067781
    103          1           0        3.719205    1.214008   -2.572313
    104          1           0        6.597333    1.330320   -0.173690
    105          1           0        6.311148   -0.060090    0.776203
    106          1           0        7.195475   -1.449619   -0.778912
    107          1           0        7.380206    0.007957   -2.023713
    108          1           0        9.014310    0.894653   -0.173080
    109          1           0        8.534048   -0.483509    0.857264
    110          1           0       10.400069   -0.194695   -1.633684
    111          1           0        9.151432   -2.677716   -1.546041
    112          1           0       11.059550   -2.508758   -0.924807
    113          1           0        9.844066   -2.725509    0.369299
    114          1           0       11.471110    0.962500    0.090872
    115          1           0       11.331607   -0.520288    1.070297
    116          1           0       12.880694   -1.808034   -0.250040
    117          1           0       12.906991   -0.522195   -1.664027
    118          1           0       13.935511    1.522208    0.050775
    119          1           0       13.508953    0.402040    1.255985
    120          1           0       15.518791    0.116394   -1.358523
    121          1           0       14.969959   -2.223500   -0.525159
    122          1           0       16.504935   -2.022839   -0.850180
    123          1           0       15.749915   -1.757787    0.893187
    124          1           0       15.982738    1.699780    0.409994
    125          1           0       16.501361    0.505517    1.436186
    126          1           0       18.055595   -0.210093   -0.464647
    127          1           0       17.509815    1.314221   -1.243439
    128          1           0       18.281573    2.762410    0.635645
    129          1           0       18.640058    1.233539    1.350256
    130          1           0       20.557023    0.319397   -0.093841
    131          1           0       20.136173    3.314315   -1.530704
    132          1           0       21.460890    2.039254   -1.747470
    133          1           0       19.749064    1.496307   -2.053492
    134          1           0       20.968505    1.541399    1.863278
    135          1           0       22.115393    2.104314    0.691754
    136          1           0       20.911895    3.215374    1.048360
    137          1           0       -7.085401    1.792376    0.143817
    138          1           0       -7.633849   -0.413412    0.159996
 ---------------------------------------------------------------------

 SCF Done:  E(RB3LYP) =  -2732.96305629     A.U. after   17 cycles

 Excitation energies and oscillator strengths:

 Excited State   1:      Singlet-A      2.0424 eV  607.06 nm  f=0.1853  <S**2>=0.000
     235 -> 237        0.18644
     235 -> 238       -0.29034
     236 -> 237        0.60396
     236 -> 238        0.10758
 This state for optimization and/or second-order correction.
 Total Energy, E(TD-HF/TD-DFT) =  -2732.88800109
 Copying the excited state density for this state as the 1-particle RhoCI density.

 The electronic state is 1-A.
 Alpha  occ. eigenvalues --  -19.18094 -19.17254 -19.13091 -19.12422 -19.11816
 Alpha  occ. eigenvalues --  -14.38855 -14.36121 -14.33234 -14.29732 -10.31773
 Alpha  occ. eigenvalues --  -10.31212 -10.28675 -10.24608 -10.24443 -10.24221
 Alpha  occ. eigenvalues --  -10.24132 -10.23943 -10.23559 -10.23315 -10.23115
 Alpha  occ. eigenvalues --  -10.22959 -10.22661 -10.22219 -10.21444 -10.21397
 Alpha  occ. eigenvalues --  -10.21370 -10.21352 -10.21288 -10.21101 -10.20773
 Alpha  occ. eigenvalues --  -10.20742 -10.20700 -10.20662 -10.20620 -10.20504
 Alpha  occ. eigenvalues --  -10.20483 -10.20415 -10.20097 -10.20075 -10.20012
 Alpha  occ. eigenvalues --  -10.19968 -10.19934 -10.19871 -10.19648 -10.19647
 Alpha  occ. eigenvalues --  -10.19540 -10.19425 -10.19205 -10.18968 -10.18963
 Alpha  occ. eigenvalues --  -10.18951 -10.18937 -10.18702 -10.18526 -10.18500
 Alpha  occ. eigenvalues --  -10.18491 -10.18477 -10.17621 -10.17579 -10.17185
 Alpha  occ. eigenvalues --  -10.17118 -10.16741 -10.16630 -10.16315  -1.09219
 Alpha  occ. eigenvalues --   -1.08472  -1.02782  -1.01206  -0.99427  -0.99311
 Alpha  occ. eigenvalues --   -0.98143  -0.96502  -0.93319  -0.85159  -0.83200
 Alpha  occ. eigenvalues --   -0.82684  -0.82497  -0.81992  -0.80883  -0.80404
 Alpha  occ. eigenvalues --   -0.79989  -0.79548  -0.79208  -0.78991  -0.78460
 Alpha  occ. eigenvalues --   -0.77115  -0.76553  -0.76034  -0.74932  -0.74412
 Alpha  occ. eigenvalues --   -0.73605  -0.73256  -0.72688  -0.71743  -0.70872
 Alpha  occ. eigenvalues --   -0.70114  -0.69311  -0.69027  -0.68668  -0.67797
 Alpha  occ. eigenvalues --   -0.66619  -0.66481  -0.66343  -0.65893  -0.65187
 Alpha  occ. eigenvalues --   -0.64893  -0.63926  -0.63132  -0.62861  -0.62311
 Alpha  occ. eigenvalues --   -0.61016  -0.59160  -0.58817  -0.58149  -0.57851
 Alpha  occ. eigenvalues --   -0.57450  -0.56699  -0.56477  -0.56295  -0.55921
 Alpha  occ. eigenvalues --   -0.55718  -0.54938  -0.54343  -0.54044  -0.53874
 Alpha  occ. eigenvalues --   -0.53679  -0.52056  -0.51464  -0.51360  -0.51012
 Alpha  occ. eigenvalues --   -0.49474  -0.49211  -0.49137  -0.48870  -0.48818
 Alpha  occ. eigenvalues --   -0.48570  -0.47934  -0.47597  -0.47380  -0.46978
 Alpha  occ. eigenvalues --   -0.46801  -0.46487  -0.46140  -0.46025  -0.45846
 Alpha  occ. eigenvalues --   -0.45559  -0.45523  -0.45516  -0.44942  -0.44560
 Alpha  occ. eigenvalues --   -0.44374  -0.44209  -0.44064  -0.43800  -0.43561
 Alpha  occ. eigenvalues --   -0.43495  -0.43329  -0.43005  -0.42723  -0.42526
 Alpha  occ. eigenvalues --   -0.42279  -0.42151  -0.41907  -0.41768  -0.41599
 Alpha  occ. eigenvalues --   -0.41153  -0.41017  -0.40980  -0.40772  -0.40675
 Alpha  occ. eigenvalues --   -0.40505  -0.40342  -0.40200  -0.40037  -0.39706
 Alpha  occ. eigenvalues --   -0.39504  -0.39036  -0.38966  -0.38842  -0.38629
 Alpha  occ. eigenvalues --   -0.38318  -0.38072  -0.37846  -0.37546  -0.37445
 Alpha  occ. eigenvalues --   -0.37267  -0.37155  -0.37037  -0.36473  -0.36451
 Alpha  occ. eigenvalues --   -0.36226  -0.36208  -0.36172  -0.36048  -0.35851
 Alpha  occ. eigenvalues --   -0.35800  -0.35594  -0.35486  -0.35453  -0.35342
 Alpha  occ. eigenvalues --   -0.35084  -0.34937  -0.34416  -0.33638  -0.33634
 Alpha  occ. eigenvalues --   -0.33469  -0.33091  -0.32923  -0.32617  -0.32446
 Alpha  occ. eigenvalues --   -0.32288  -0.32111  -0.31799  -0.31737  -0.31265
 Alpha  occ. eigenvalues --   -0.30927  -0.30893  -0.30273  -0.29881  -0.29873
 Alpha  occ. eigenvalues --   -0.29287  -0.28970  -0.28184  -0.28132  -0.27978
 Alpha  occ. eigenvalues --   -0.27365  -0.27227  -0.26885  -0.26853  -0.26135
 Alpha  occ. eigenvalues --   -0.25394  -0.25312  -0.22907  -0.22246  -0.19925
 Alpha  occ. eigenvalues --   -0.19265
 Alpha virt. eigenvalues --   -0.10612  -0.08267  -0.05038  -0.03215  -0.00449
 Alpha virt. eigenvalues --   -0.00368  -0.00240   0.00559   0.01574   0.03458
 Alpha virt. eigenvalues --    0.03995   0.04058   0.04252   0.04424   0.04486

 Mulliken charges:
               1
     1  C    0.111371
     2  C   -0.039039
     3  C   -0.121878
     4  C   -0.129406
     5  N   -0.160341
     6  C   -0.067435
     7  C    0.077429
     8  C   -0.068754
     9  C    0.085601
    10  C    0.011416
    11  C    0.010704
    12  C    0.025074
    13  C    0.169823
    14  O   -0.252610
    15  O   -0.337010
    16  N    0.030225
    17  C   -0.053600
    18  C   -0.081626
    19  C    0.099185
    20  C   -0.036344
    21  C   -0.002065
    22  C   -0.188485
    23  C    0.010740
    24  N   -0.267972
    25  C    0.133187
    26  C   -0.142810
    27  C   -0.108506
    28  C    0.037601
    29  C    0.238189
    30  C    0.099241
    31  C    0.015096
    32  N   -0.025525
    33  C    0.115430
    34  C   -0.165653
    35  C   -0.043765
    36  C    0.032363
    37  C    0.220896
    38  C    0.075242
    39  O   -0.172709
    40  C    0.029551
    41  C    0.181773
    42  O   -0.253464
    43  O   -0.293047
    44  C    0.186616
    45  C    0.327244
    46  C   -0.040673
    47  C   -0.127467
    48  C   -0.074955
    49  C    0.044142
    50  C    0.058099
    51  C    0.022440
    52  C   -0.014924
    53  C   -0.017248
    54  C   -0.049854
    55  C   -0.022833
    56  C   -0.045758
    57  C   -0.006317
    58  C    0.071004
    59  C    0.070801
    60  C    0.085926
    61  C    0.062225
    62  C   -0.142958
    63  C   -0.033662
    64  C    0.120181
    65  H   -0.031968
    66  H    0.041965
    67  H    0.028610
    68  H    0.015146
    69  H    0.030888
    70  H    0.016608
    71  H    0.032810
    72  H    0.021921
    73  H    0.048157
    74  H    0.018633
    75  H    0.015048
    76  H    0.031180
    77  H    0.032446
    78  H    0.038925
    79  H    0.019572
    80  H    0.025141
    81  H   -0.027987
    82  H    0.042850
    83  H   -0.044047
    84  H   -0.020061
    85  H   -0.009426
    86  H    0.002324
    87  H    0.004988
    88  H    0.013404
    89  H   -0.025841
    90  H    0.010380
    91  H    0.020405
    92  H    0.001916
    93  H   -0.004027
    94  H   -0.010431
    95  H    0.005663
    96  H    0.023780
    97  H    0.050724
    98  H   -0.013919
    99  H   -0.007035
   100  H   -0.012113
   101  H    0.040647
   102  H    0.071861
   103  H    0.065219
   104  H   -0.024237
   105  H   -0.011492
   106  H    0.011542
   107  H   -0.007886
   108  H   -0.022787
   109  H   -0.004496
   110  H   -0.013820
   111  H    0.050216
   112  H    0.009099
   113  H    0.024974
   114  H    0.004511
   115  H   -0.012685
   116  H    0.045016
   117  H    0.019036
   118  H    0.016368
   119  H    0.006465
   120  H   -0.035293
   121  H   -0.034244
   122  H    0.009786
   123  H    0.000888
   124  H   -0.060264
   125  H   -0.025969
   126  H   -0.037504
   127  H   -0.000165
   128  H    0.006248
   129  H   -0.083973
   130  H    0.011162
   131  H    0.039135
   132  H   -0.000135
   133  H    0.009112
   134  H   -0.025022
   135  H   -0.011527
   136  H    0.007918
   137  H    0.204607
   138  H    0.100939
 Sum of Mulliken charges =  -0.00000

 Dipole moment (field-independent basis, Debye):
    X=              1.9613    Y=              3.1825    Z=              0.3544  Tot=              3.7550
 Quadrupole moment (field-independent basis, Debye-Ang):
   XX=           -348.1352   YY=           -387.1900   ZZ=           -398.8422
   XY=            -22.2857   XZ=             15.7501   YZ=             -0.5118

 Normal termination of Gaussian 16 at Sat Aug 10 14:31:20 2019.
