 Gaussian 16, Revision A.03,
 Gaussian 16:  ES64L-G16RevA.03 25-Dec-2016

 --------------------------
 # td=(NStates=1) B3LYP/SVP
 --------------------------

 --
 TD
 --
 Symbolic Z-matrix:
 Charge =  0 Multiplicity = 1

                         Standard orientation:
 ---------------------------------------------------------------------
 Center     Atomic      Atomic             Coordinates (Angstroms)
 Number     Number       Type             X           Y           Z
 ---------------------------------------------------------------------
      1          6           0       -5.050228   -1.905747    0.494618
      2          6           0       -4.628564    2.840767    1.335959
      3          6           0       -9.318777    3.278779   -0.258089
      4          6           0       -9.736805   -1.513275   -0.816860
      5          7           0       -5.180392    0.430617    0.774852
      6          6           0       -4.456696   -0.735474    0.865085
      7          6           0       -3.001325   -0.531071    1.208253
      8          6           0       -2.971556    1.013195    1.688673
      9          6           0       -4.380494    1.458756    1.218552
     10          6           0       -2.773379    1.098195    3.295765
     11          6           0       -2.030480   -0.783008    0.006081
     12          6           0       -0.572381   -0.849974    0.424748
     13          6           0        0.382503   -1.109892   -0.626510
     14          8           0        0.103049   -1.686706   -1.656601
     15          8           0        1.593993   -0.830154   -0.285033
     16          7           0       -6.906016    2.780973    0.361185
     17          6           0       -5.885860    3.420332    0.859572
     18          6           0       -6.271103    4.836512    1.017151
     19          6           0       -7.522898    5.034913    0.444873
     20          6           0       -7.978299    3.591837    0.139233
     21          6           0       -5.277624    5.844387    1.565686
     22          6           0       -8.229316    6.270962    0.370774
     23          6           0       -9.210899    6.626706   -0.505494
     24          7           0       -9.110731    0.829717   -0.393520
     25          6           0       -9.712686    1.978888   -0.550794
     26          6           0      -11.117777    1.828476   -0.929386
     27          6           0      -11.374204    0.495304   -1.067240
     28          6           0       -9.975522   -0.131408   -0.790461
     29          6           0      -12.276480    2.747135   -1.306055
     30          6           0      -12.604397   -0.224094   -1.418382
     31          6           0      -12.638219   -0.485695   -3.051195
     32          7           0       -7.394373   -1.273498   -0.204096
     33          6           0       -8.511030   -2.055964   -0.511857
     34          6           0       -8.051853   -3.408491   -0.620904
     35          6           0       -6.754449   -3.505066   -0.167254
     36          6           0       -6.357347   -2.068171   -0.050023
     37          6           0       -8.936373   -4.555319   -0.831034
     38          6           0       -5.614794   -4.301783   -0.033103
     39          8           0       -5.444768   -5.471300   -0.288398
     40          6           0       -4.440593   -3.284467    0.477349
     41          6           0       -3.907408   -3.843980    1.813343
     42          8           0       -4.196938   -3.367102    2.803072
     43          8           0       -3.080754   -4.833857    1.610619
     44          6           0       -2.628730   -5.525801    2.800804
     45          6           0        2.630911   -1.061352   -1.231069
     46          6           0        3.896930   -0.687181   -0.666242
     47          6           0        4.924108    0.135052   -1.157640
     48          6           0        4.762241    0.885399   -2.404570
     49          6           0        6.186560    0.457268   -0.332589
     50          6           0        7.482042   -0.277711   -0.901025
     51          6           0        8.677588   -0.153144    0.019749
     52          6           0        9.935875   -0.579721   -0.784751
     53          6           0        9.753116   -2.195374   -1.223039
     54          6           0       11.174504   -0.306878    0.015288
     55          6           0       12.559091   -0.516600   -0.729296
     56          6           0       13.733050   -0.015203    0.226698
     57          6           0       15.117734   -0.264619   -0.320161
     58          6           0       15.534713   -1.673283   -0.307027
     59          6           0       16.177932    0.636682    0.453655
     60          6           0       17.504375    0.671825   -0.082264
     61          6           0       18.555254    1.748843    0.515878
     62          6           0       19.966408    1.619935    0.240973
     63          6           0       20.260223    1.934799   -1.202998
     64          6           0       20.929192    2.333470    1.177816
     65          1           0       -3.897340    3.548632    1.718678
     66          1           0      -10.145580    3.832859   -0.234989
     67          1           0      -10.333717   -2.351497   -1.065475
     68          1           0       -2.667059   -1.313936    2.041471
     69          1           0       -2.066844    1.567270    1.276533
     70          1           0       -1.803252    0.691517    3.683660
     71          1           0       -2.743460    2.215957    3.707479
     72          1           0       -3.488876    0.585770    3.649119
     73          1           0       -2.246139   -1.733285   -0.451237
     74          1           0       -2.481037   -0.142580   -0.803028
     75          1           0       -0.412193    0.259924    0.738904
     76          1           0       -0.564165   -1.556363    1.389433
     77          1           0       -4.477257    5.907678    1.035509
     78          1           0       -5.709875    6.890522    1.283675
     79          1           0       -4.923504    5.767321    2.514250
     80          1           0       -7.982136    7.094367    1.192763
     81          1           0       -9.415199    5.879509   -1.150280
     82          1           0       -9.522400    7.675728   -0.399657
     83          1           0      -12.357157    3.481804   -0.407235
     84          1           0      -11.915406    3.481312   -2.104400
     85          1           0      -13.352668    2.260107   -1.222567
     86          1           0      -12.565205   -1.341681   -0.909958
     87          1           0      -13.389446    0.276019   -1.373209
     88          1           0      -12.898141    0.595120   -3.458270
     89          1           0      -11.796024   -0.840555   -3.439501
     90          1           0      -13.400662   -1.314114   -3.267326
     91          1           0       -9.679704   -4.664277   -0.063430
     92          1           0       -9.505537   -4.486274   -1.687328
     93          1           0       -8.196525   -5.395690   -0.962796
     94          1           0       -3.693896   -3.550156   -0.295577
     95          1           0       -2.310209   -6.578908    2.560715
     96          1           0       -1.809593   -4.882350    3.298716
     97          1           0       -3.491757   -5.292016    3.673803
     98          1           0        2.530610   -2.120209   -1.662181
     99          1           0        2.444893   -0.374772   -2.095752
    100          1           0        3.995854   -1.270327    0.455286
    101          1           0        5.035871    1.856482   -2.100739
    102          1           0        5.535715    0.661948   -3.193395
    103          1           0        3.775619    0.890802   -2.763856
    104          1           0        6.490780    1.515551   -0.623852
    105          1           0        5.945653    0.310350    0.670037
    106          1           0        7.223504   -1.354415   -1.022738
    107          1           0        7.750463   -0.074654   -2.005345
    108          1           0        8.868934    1.061534    0.281004
    109          1           0        8.571160   -0.685359    0.812406
    110          1           0       10.148140   -0.194411   -1.805314
    111          1           0        8.646936   -2.314963   -1.668288
    112          1           0       10.566083   -2.428402   -2.059303
    113          1           0        9.791028   -2.655744   -0.194553
    114          1           0       11.220281    0.875812    0.537571
    115          1           0       11.222196   -0.997323    0.751276
    116          1           0       12.647862   -1.486004   -0.874610
    117          1           0       12.502223    0.294768   -1.608746
    118          1           0       13.555254    1.112453    0.571693
    119          1           0       13.496340   -0.474238    1.235811
    120          1           0       15.249996    0.119140   -1.420452
    121          1           0       14.786473   -2.284393   -0.926437
    122          1           0       16.545000   -1.760968   -0.831797
    123          1           0       15.596434   -2.259900    0.444926
    124          1           0       15.698341    1.705410    0.297904
    125          1           0       15.962449    0.612693    1.559628
    126          1           0       18.053707   -0.321465   -0.066221
    127          1           0       17.505007    0.664325   -1.221054
    128          1           0       18.134613    2.628076    0.331322
    129          1           0       18.325148    1.766124    1.640274
    130          1           0       20.299593    0.443887    0.448391
    131          1           0       19.905574    2.979090   -1.816959
    132          1           0       21.324530    1.643261   -1.403213
    133          1           0       19.736359    1.187257   -1.657485
    134          1           0       20.669268    1.871889    2.213600
    135          1           0       21.954518    2.036305    0.791656
    136          1           0       20.670334    3.515300    1.091375
    137          1           0       -6.935637    1.706128    0.394907
    138          1           0       -7.536032   -0.262524   -0.009012
 ---------------------------------------------------------------------

 SCF Done:  E(RB3LYP) =  -2732.96494492     A.U. after   17 cycles

 Excitation energies and oscillator strengths:

 Excited State   1:      Singlet-A      2.0434 eV  606.74 nm  f=0.2079  <S**2>=0.000
     235 -> 238        0.28041
     236 -> 237        0.64770
 This state for optimization and/or second-order correction.
 Total Energy, E(TD-HF/TD-DFT) =  -2732.88984972
 Copying the excited state density for this state as the 1-particle RhoCI density.

 The electronic state is 1-A.
 Alpha  occ. eigenvalues --  -19.18069 -19.17639 -19.11863 -19.11650 -19.11106
 Alpha  occ. eigenvalues --  -14.38567 -14.36862 -14.32951 -14.30636 -10.30628
 Alpha  occ. eigenvalues --  -10.30238 -10.26994 -10.26206 -10.25100 -10.25099
 Alpha  occ. eigenvalues --  -10.24011 -10.23498 -10.23470 -10.22702 -10.22339
 Alpha  occ. eigenvalues --  -10.22073 -10.21251 -10.21197 -10.21175 -10.21153
 Alpha  occ. eigenvalues --  -10.21130 -10.21088 -10.21054 -10.20993 -10.20865
 Alpha  occ. eigenvalues --  -10.20683 -10.20662 -10.20234 -10.20054 -10.19859
 Alpha  occ. eigenvalues --  -10.19836 -10.19807 -10.19656 -10.19646 -10.19530
 Alpha  occ. eigenvalues --  -10.19510 -10.19505 -10.19482 -10.19467 -10.19302
 Alpha  occ. eigenvalues --  -10.19302 -10.19080 -10.19044 -10.19012 -10.18878
 Alpha  occ. eigenvalues --  -10.18786 -10.18661 -10.18644 -10.18640 -10.18631
 Alpha  occ. eigenvalues --  -10.18598 -10.18560 -10.18348 -10.18286 -10.18144
 Alpha  occ. eigenvalues --  -10.18112 -10.17888 -10.17363 -10.16853  -1.11876
 Alpha  occ. eigenvalues --   -1.11763  -1.03342  -1.02410  -1.00260  -1.00102
 Alpha  occ. eigenvalues --   -0.98841  -0.94908  -0.93433  -0.84056  -0.82753
 Alpha  occ. eigenvalues --   -0.82299  -0.82055  -0.81797  -0.81413  -0.80797
 Alpha  occ. eigenvalues --   -0.80326  -0.80301  -0.79925  -0.79127  -0.77810
 Alpha  occ. eigenvalues --   -0.76760  -0.76452  -0.76086  -0.74812  -0.74285
 Alpha  occ. eigenvalues --   -0.73831  -0.73289  -0.72844  -0.71709  -0.71478
 Alpha  occ. eigenvalues --   -0.70486  -0.68859  -0.68346  -0.68167  -0.67700
 Alpha  occ. eigenvalues --   -0.67301  -0.66965  -0.66711  -0.66053  -0.65407
 Alpha  occ. eigenvalues --   -0.64285  -0.63299  -0.62927  -0.62616  -0.62286
 Alpha  occ. eigenvalues --   -0.61502  -0.59324  -0.58763  -0.57877  -0.57355
 Alpha  occ. eigenvalues --   -0.56854  -0.56391  -0.56212  -0.56102  -0.55567
 Alpha  occ. eigenvalues --   -0.55392  -0.54978  -0.54059  -0.53948  -0.53617
 Alpha  occ. eigenvalues --   -0.53350  -0.52083  -0.51761  -0.51372  -0.50735
 Alpha  occ. eigenvalues --   -0.50368  -0.49563  -0.49267  -0.48796  -0.48217
 Alpha  occ. eigenvalues --   -0.48002  -0.47711  -0.47515  -0.47262  -0.47144
 Alpha  occ. eigenvalues --   -0.46544  -0.46446  -0.46297  -0.46224  -0.45937
 Alpha  occ. eigenvalues --   -0.45672  -0.45575  -0.45384  -0.45189  -0.45073
 Alpha  occ. eigenvalues --   -0.44529  -0.44467  -0.44281  -0.43773  -0.43664
 Alpha  occ. eigenvalues --   -0.43502  -0.43379  -0.43227  -0.43127  -0.43034
 Alpha  occ. eigenvalues --   -0.42904  -0.42446  -0.42376  -0.42050  -0.41779
 Alpha  occ. eigenvalues --   -0.41442  -0.41079  -0.40979  -0.40842  -0.40769
 Alpha  occ. eigenvalues --   -0.40572  -0.40384  -0.40299  -0.39858  -0.39425
 Alpha  occ. eigenvalues --   -0.39405  -0.39066  -0.38987  -0.38819  -0.38634
 Alpha  occ. eigenvalues --   -0.38329  -0.38159  -0.38058  -0.37769  -0.37602
 Alpha  occ. eigenvalues --   -0.37388  -0.37299  -0.37198  -0.37021  -0.36687
 Alpha  occ. eigenvalues --   -0.36493  -0.36353  -0.36268  -0.35735  -0.35658
 Alpha  occ. eigenvalues --   -0.35349  -0.35164  -0.34984  -0.34682  -0.34590
 Alpha  occ. eigenvalues --   -0.34454  -0.34378  -0.34203  -0.34187  -0.34016
 Alpha  occ. eigenvalues --   -0.33780  -0.33466  -0.33193  -0.32906  -0.32657
 Alpha  occ. eigenvalues --   -0.31897  -0.31595  -0.31155  -0.31125  -0.30960
 Alpha  occ. eigenvalues --   -0.30898  -0.30763  -0.30445  -0.30347  -0.30008
 Alpha  occ. eigenvalues --   -0.28886  -0.28709  -0.28411  -0.28074  -0.27923
 Alpha  occ. eigenvalues --   -0.27595  -0.27260  -0.27090  -0.26678  -0.26261
 Alpha  occ. eigenvalues --   -0.24313  -0.24156  -0.23957  -0.22447  -0.19925
 Alpha  occ. eigenvalues --   -0.18728
 Alpha virt. eigenvalues --   -0.10282  -0.07275  -0.04378  -0.02109  -0.01065
 Alpha virt. eigenvalues --   -0.00333   0.00742   0.02035   0.03102   0.03425
 Alpha virt. eigenvalues --    0.03899   0.03908   0.04229   0.04426   0.04535

 Mulliken charges:
               1
     1  C    0.112028
     2  C   -0.059357
     3  C   -0.044553
     4  C   -0.036167
     5  N   -0.218791
     6  C   -0.057841
     7  C   -0.069530
     8  C   -0.080779
     9  C    0.080753
    10  C    0.075249
    11  C    0.029037
    12  C    0.024149
    13  C    0.161429
    14  O   -0.250316
    15  O   -0.256461
    16  N   -0.008069
    17  C    0.028101
    18  C   -0.176867
    19  C    0.069973
    20  C    0.127629
    21  C    0.206074
    22  C   -0.163431
    23  C    0.052729
    24  N   -0.193585
    25  C    0.037220
    26  C   -0.164442
    27  C   -0.091066
    28  C    0.105952
    29  C    0.041136
    30  C    0.154692
    31  C   -0.018910
    32  N   -0.002641
    33  C   -0.006270
    34  C   -0.154522
    35  C    0.027956
    36  C   -0.003945
    37  C    0.141381
    38  C    0.014661
    39  O   -0.167779
    40  C   -0.092797
    41  C    0.148586
    42  O   -0.152702
    43  O   -0.268045
    44  C    0.098617
    45  C    0.254079
    46  C   -0.144851
    47  C   -0.166691
    48  C    0.145368
    49  C    0.129244
    50  C   -0.061938
    51  C    0.127622
    52  C   -0.104532
    53  C   -0.093718
    54  C    0.012599
    55  C    0.074449
    56  C   -0.036349
    57  C   -0.044428
    58  C    0.097055
    59  C    0.005116
    60  C    0.014106
    61  C    0.118154
    62  C   -0.158189
    63  C    0.059362
    64  C    0.006065
    65  H   -0.018277
    66  H   -0.081606
    67  H   -0.058843
    68  H    0.024127
    69  H    0.021061
    70  H    0.016341
    71  H    0.020020
    72  H   -0.021241
    73  H   -0.000121
    74  H    0.010369
    75  H    0.028500
    76  H    0.065232
    77  H   -0.038376
    78  H    0.008083
    79  H    0.000620
    80  H    0.031747
    81  H   -0.015376
    82  H    0.032844
    83  H    0.012438
    84  H    0.037575
    85  H    0.052697
    86  H    0.030189
    87  H   -0.093138
    88  H    0.033753
    89  H   -0.011810
    90  H    0.018889
    91  H    0.026611
    92  H   -0.010100
    93  H    0.046326
    94  H    0.051543
    95  H    0.071427
    96  H    0.031414
    97  H    0.063304
    98  H    0.048155
    99  H   -0.000154
   100  H    0.015949
   101  H   -0.007556
   102  H    0.028147
   103  H   -0.005706
   104  H    0.007516
   105  H   -0.006631
   106  H    0.007754
   107  H    0.012449
   108  H    0.017259
   109  H   -0.051164
   110  H   -0.005582
   111  H    0.041440
   112  H    0.051117
   113  H    0.026011
   114  H    0.014023
   115  H   -0.044502
   116  H   -0.030837
   117  H    0.021616
   118  H   -0.002064
   119  H   -0.007969
   120  H    0.002561
   121  H   -0.008656
   122  H    0.005573
   123  H   -0.051618
   124  H   -0.010706
   125  H   -0.004291
   126  H   -0.012945
   127  H   -0.006745
   128  H   -0.055133
   129  H   -0.023641
   130  H    0.002635
   131  H    0.036154
   132  H   -0.002269
   133  H   -0.031924
   134  H    0.025718
   135  H    0.024150
   136  H    0.025767
   137  H    0.188063
   138  H    0.150806
 Sum of Mulliken charges =  -0.00000

 Dipole moment (field-independent basis, Debye):
    X=              1.9735    Y=              4.1499    Z=              1.0788  Tot=              4.7202
 Quadrupole moment (field-independent basis, Debye-Ang):
   XX=           -360.6341   YY=           -385.7413   ZZ=           -396.8585
   XY=            -27.3114   XZ=              1.2937   YZ=             -6.3938

 Normal termination of Gaussian 16 at Sun Aug 18 05:56:41 2019.
