 Gaussian 16, Revision A.03,
 Gaussian 16:  ES64L-G16RevA.03 25-Dec-2016

 --------------------------
 # td=(NStates=1) B3LYP/SVP
 --------------------------

 --
 TD
 --
 Symbolic Z-matrix:
 Charge =  0 Multiplicity = 1

                         Standard orientation:
 ---------------------------------------------------------------------
 Center     Atomic      Atomic             Coordinates (Angstroms)
 Number     Number       Type             X           Y           Z
 ---------------------------------------------------------------------
      1          6           0       -5.116151   -1.955505    0.425194
      2          6           0       -4.819614    2.783678    1.492719
      3          6           0       -9.412044    3.240395   -0.241866
      4          6           0       -9.756432   -1.568537   -1.192850
      5          7           0       -5.202159    0.406748    0.799131
      6          6           0       -4.493416   -0.671451    0.848109
      7          6           0       -3.127291   -0.423110    1.281386
      8          6           0       -3.150905    1.005426    1.870286
      9          6           0       -4.463442    1.437720    1.407424
     10          6           0       -3.123984    0.927159    3.445565
     11          6           0       -2.099391   -0.613993    0.150322
     12          6           0       -0.607944   -0.623795    0.615888
     13          6           0        0.387627   -0.891089   -0.437078
     14          8           0        0.108663   -1.210977   -1.627311
     15          8           0        1.582503   -0.580736   -0.008378
     16          7           0       -7.083722    2.684232    0.554768
     17          6           0       -6.028901    3.422432    1.059108
     18          6           0       -6.349968    4.725004    1.067025
     19          6           0       -7.656074    4.929138    0.563461
     20          6           0       -8.061319    3.533759    0.211381
     21          6           0       -5.516980    5.769654    1.738403
     22          6           0       -8.357715    6.152484    0.362015
     23          6           0       -9.363372    6.435277   -0.513606
     24          7           0       -9.205725    0.795567   -0.535589
     25          6           0       -9.901354    1.943075   -0.530745
     26          6           0      -11.259260    1.866926   -1.092497
     27          6           0      -11.294636    0.445396   -1.390967
     28          6           0      -10.008515   -0.103202   -1.086912
     29          6           0      -12.225054    2.955842   -1.117478
     30          6           0      -12.501708   -0.281789   -1.877155
     31          6           0      -12.501155   -0.617596   -3.352967
     32          7           0       -7.330076   -1.283898   -0.337626
     33          6           0       -8.502252   -2.040047   -0.945833
     34          6           0       -8.083395   -3.443760   -0.783367
     35          6           0       -6.726251   -3.455395   -0.429564
     36          6           0       -6.377884   -2.138243   -0.079440
     37          6           0       -8.891817   -4.591539   -1.181264
     38          6           0       -5.679979   -4.290028    0.003362
     39          8           0       -5.513921   -5.494521   -0.110246
     40          6           0       -4.486391   -3.347750    0.497297
     41          6           0       -3.967166   -3.858320    1.763147
     42          8           0       -4.259778   -3.399216    2.848191
     43          8           0       -3.057436   -4.898033    1.636179
     44          6           0       -2.639491   -5.561848    2.948729
     45          6           0        2.696998   -0.885484   -0.959735
     46          6           0        3.959623   -0.609270   -0.335626
     47          6           0        4.943775    0.088690   -0.897782
     48          6           0        4.856257    0.849109   -2.238613
     49          6           0        6.295932    0.338015   -0.122861
     50          6           0        7.459428   -0.367358   -0.852501
     51          6           0        8.779972   -0.157445   -0.059646
     52          6           0        9.999634   -0.681695   -0.682725
     53          6           0       10.026369   -2.245597   -0.793031
     54          6           0       11.181605   -0.115695   -0.000289
     55          6           0       12.669927   -0.450107   -0.551865
     56          6           0       13.837665    0.114022    0.179103
     57          6           0       15.218540   -0.198212   -0.356657
     58          6           0       15.617468   -1.717950   -0.303409
     59          6           0       16.282770    0.712237    0.388220
     60          6           0       17.695788    0.601259   -0.209971
     61          6           0       18.710788    1.691018    0.344604
     62          6           0       20.194160    1.432566   -0.211511
     63          6           0       20.392403    1.918093   -1.590894
     64          6           0       21.084758    2.270415    0.798467
     65          1           0       -4.154796    3.484283    1.918258
     66          1           0      -10.131310    4.021930   -0.317352
     67          1           0      -10.451890   -2.301749   -1.670553
     68          1           0       -2.620855   -0.938009    2.139355
     69          1           0       -2.504319    1.575639    1.547083
     70          1           0       -2.213731    0.458126    3.697036
     71          1           0       -3.151197    1.843039    3.744520
     72          1           0       -3.968796    0.416256    3.755238
     73          1           0       -2.463973   -1.543536   -0.595804
     74          1           0       -2.224391    0.283437   -0.748031
     75          1           0       -0.346652    0.341202    1.137567
     76          1           0       -0.581405   -1.574962    1.228835
     77          1           0       -4.726014    6.196639    0.986518
     78          1           0       -6.126914    6.591024    2.109654
     79          1           0       -4.972466    5.375618    2.680258
     80          1           0       -8.009600    7.014562    0.882590
     81          1           0       -9.870310    5.699352   -1.207757
     82          1           0       -9.684716    7.491380   -0.631762
     83          1           0      -12.326996    3.397525   -0.058221
     84          1           0      -11.764894    3.944364   -1.647130
     85          1           0      -13.086689    2.585307   -1.643952
     86          1           0      -12.698653   -1.288870   -1.375900
     87          1           0      -13.335828    0.445327   -1.648842
     88          1           0      -12.593673    0.375901   -4.005591
     89          1           0      -11.592871   -1.326793   -3.536601
     90          1           0      -13.446619   -1.156418   -3.853357
     91          1           0       -9.641901   -5.081864   -0.122429
     92          1           0       -9.723039   -4.236108   -2.030671
     93          1           0       -8.204098   -5.547795   -1.474418
     94          1           0       -3.606494   -3.705414   -0.232997
     95          1           0       -2.050892   -6.353296    2.788799
     96          1           0       -1.915253   -4.723987    3.356890
     97          1           0       -3.611636   -5.813960    3.497428
     98          1           0        2.410713   -1.923982   -1.313657
     99          1           0        2.764261   -0.238118   -1.817063
    100          1           0        4.285195   -1.082269    0.706656
    101          1           0        4.957474    1.947892   -1.952552
    102          1           0        5.338334    0.371519   -3.105882
    103          1           0        3.659501    1.015375   -2.503444
    104          1           0        6.540215    1.473916   -0.012477
    105          1           0        6.414981   -0.171485    0.817812
    106          1           0        7.376418   -1.534683   -0.856775
    107          1           0        7.572059   -0.028945   -1.737898
    108          1           0        9.003721    0.905689    0.104791
    109          1           0        8.743513   -0.724897    0.918428
    110          1           0       10.056927   -0.316601   -1.764410
    111          1           0        9.077563   -2.685485   -1.188303
    112          1           0       11.029368   -2.605729   -1.255476
    113          1           0       10.309307   -2.588208    0.330113
    114          1           0       11.101260    0.998153    0.045701
    115          1           0       11.221244   -0.421933    1.124130
    116          1           0       12.620019   -1.737485   -0.418791
    117          1           0       12.669853   -0.414392   -1.621423
    118          1           0       13.654564    1.222444    0.006202
    119          1           0       13.640218   -0.025816    1.242567
    120          1           0       15.113435    0.099401   -1.348536
    121          1           0       15.101967   -2.311444   -0.803761
    122          1           0       16.732732   -1.677387   -0.546500
    123          1           0       15.662978   -1.945273    0.702320
    124          1           0       15.935696    1.830383    0.440685
    125          1           0       16.343724    0.609276    1.577606
    126          1           0       18.168292   -0.402068    0.130253
    127          1           0       17.815825    0.752901   -1.242948
    128          1           0       18.702469    2.689592    0.159819
    129          1           0       18.832790    1.512459    1.400421
    130          1           0       20.602465    0.433698   -0.046048
    131          1           0       20.151002    3.112176   -1.678411
    132          1           0       21.519799    1.769460   -1.826818
    133          1           0       19.760551    1.303533   -2.170134
    134          1           0       20.929156    1.912098    1.773085
    135          1           0       22.146817    2.371944    0.449845
    136          1           0       20.678924    3.296278    0.781506
    137          1           0       -6.960987    1.779675    0.746907
    138          1           0       -7.451390   -0.168365   -0.431548
 ---------------------------------------------------------------------

 SCF Done:  E(RB3LYP) =  -2733.02939240     A.U. after   17 cycles

 Excitation energies and oscillator strengths:

 Excited State   1:      Singlet-A      1.9658 eV  630.70 nm  f=0.1365  <S**2>=0.000
     235 -> 238       -0.32293
     236 -> 237        0.62404
 This state for optimization and/or second-order correction.
 Total Energy, E(TD-HF/TD-DFT) =  -2732.95715039
 Copying the excited state density for this state as the 1-particle RhoCI density.

 The electronic state is 1-A.
 Alpha  occ. eigenvalues --  -19.18282 -19.15992 -19.11629 -19.11111 -19.10832
 Alpha  occ. eigenvalues --  -14.36765 -14.36444 -14.32446 -14.29918 -10.30998
 Alpha  occ. eigenvalues --  -10.30113 -10.27270 -10.24747 -10.24737 -10.24312
 Alpha  occ. eigenvalues --  -10.24029 -10.23972 -10.23750 -10.22994 -10.22704
 Alpha  occ. eigenvalues --  -10.22555 -10.22435 -10.21860 -10.21796 -10.21728
 Alpha  occ. eigenvalues --  -10.21377 -10.21254 -10.21237 -10.21020 -10.20783
 Alpha  occ. eigenvalues --  -10.20759 -10.20715 -10.20665 -10.20654 -10.20447
 Alpha  occ. eigenvalues --  -10.20287 -10.20194 -10.20170 -10.20160 -10.20031
 Alpha  occ. eigenvalues --  -10.19837 -10.19690 -10.19607 -10.19550 -10.19504
 Alpha  occ. eigenvalues --  -10.19394 -10.19326 -10.19180 -10.19047 -10.19007
 Alpha  occ. eigenvalues --  -10.18949 -10.18929 -10.18864 -10.18789 -10.18444
 Alpha  occ. eigenvalues --  -10.18362 -10.18257 -10.18234 -10.18141 -10.17929
 Alpha  occ. eigenvalues --  -10.17370 -10.17130 -10.16857 -10.16052  -1.09393
 Alpha  occ. eigenvalues --   -1.06066  -1.01916  -0.99664  -0.97700  -0.97590
 Alpha  occ. eigenvalues --   -0.96995  -0.95834  -0.94479  -0.84287  -0.83392
 Alpha  occ. eigenvalues --   -0.82606  -0.82368  -0.81880  -0.81320  -0.81076
 Alpha  occ. eigenvalues --   -0.80559  -0.80200  -0.79462  -0.79227  -0.78166
 Alpha  occ. eigenvalues --   -0.77267  -0.76258  -0.75816  -0.75101  -0.74417
 Alpha  occ. eigenvalues --   -0.73296  -0.72827  -0.72259  -0.71739  -0.70708
 Alpha  occ. eigenvalues --   -0.70462  -0.68652  -0.68581  -0.68012  -0.67705
 Alpha  occ. eigenvalues --   -0.67534  -0.67354  -0.66412  -0.65673  -0.65189
 Alpha  occ. eigenvalues --   -0.64906  -0.64334  -0.62562  -0.61970  -0.61323
 Alpha  occ. eigenvalues --   -0.60302  -0.59592  -0.58759  -0.58268  -0.57619
 Alpha  occ. eigenvalues --   -0.57005  -0.56135  -0.55868  -0.55532  -0.55066
 Alpha  occ. eigenvalues --   -0.54821  -0.54559  -0.54123  -0.53258  -0.52873
 Alpha  occ. eigenvalues --   -0.52017  -0.51831  -0.51290  -0.50896  -0.50779
 Alpha  occ. eigenvalues --   -0.49230  -0.49191  -0.48871  -0.48163  -0.47969
 Alpha  occ. eigenvalues --   -0.47899  -0.47675  -0.47536  -0.47479  -0.47408
 Alpha  occ. eigenvalues --   -0.46905  -0.46634  -0.46357  -0.46075  -0.45936
 Alpha  occ. eigenvalues --   -0.45781  -0.45549  -0.45076  -0.44983  -0.44503
 Alpha  occ. eigenvalues --   -0.44336  -0.44254  -0.44169  -0.43928  -0.43809
 Alpha  occ. eigenvalues --   -0.43627  -0.43513  -0.43295  -0.42962  -0.42635
 Alpha  occ. eigenvalues --   -0.42542  -0.42135  -0.42042  -0.41874  -0.41571
 Alpha  occ. eigenvalues --   -0.41563  -0.41197  -0.41001  -0.40943  -0.40813
 Alpha  occ. eigenvalues --   -0.40353  -0.39912  -0.39538  -0.39333  -0.39283
 Alpha  occ. eigenvalues --   -0.39133  -0.38799  -0.38699  -0.38375  -0.38191
 Alpha  occ. eigenvalues --   -0.38133  -0.37999  -0.37748  -0.37627  -0.37499
 Alpha  occ. eigenvalues --   -0.37307  -0.37090  -0.36982  -0.36870  -0.36762
 Alpha  occ. eigenvalues --   -0.36710  -0.36463  -0.36196  -0.36079  -0.35704
 Alpha  occ. eigenvalues --   -0.35473  -0.35381  -0.35159  -0.35086  -0.34793
 Alpha  occ. eigenvalues --   -0.34539  -0.34375  -0.34238  -0.34004  -0.33986
 Alpha  occ. eigenvalues --   -0.33809  -0.33770  -0.33601  -0.33021  -0.32524
 Alpha  occ. eigenvalues --   -0.32265  -0.32117  -0.31345  -0.31195  -0.31140
 Alpha  occ. eigenvalues --   -0.30890  -0.30794  -0.30391  -0.30177  -0.29579
 Alpha  occ. eigenvalues --   -0.28997  -0.28571  -0.28505  -0.28333  -0.27906
 Alpha  occ. eigenvalues --   -0.27265  -0.26716  -0.26318  -0.26112  -0.25675
 Alpha  occ. eigenvalues --   -0.25601  -0.24420  -0.23788  -0.21880  -0.19813
 Alpha  occ. eigenvalues --   -0.19086
 Alpha virt. eigenvalues --   -0.10653  -0.08708  -0.04333  -0.02038  -0.01006
 Alpha virt. eigenvalues --   -0.00190   0.00133   0.00924   0.02076   0.02775
 Alpha virt. eigenvalues --    0.03154   0.03819   0.04188   0.04539   0.04640

 Mulliken charges:
               1
     1  C    0.068398
     2  C   -0.029678
     3  C   -0.071442
     4  C   -0.070769
     5  N   -0.156547
     6  C   -0.003426
     7  C   -0.023459
     8  C    0.066024
     9  C   -0.001674
    10  C    0.221997
    11  C   -0.108945
    12  C    0.072289
    13  C    0.162795
    14  O   -0.293837
    15  O   -0.299367
    16  N    0.059935
    17  C   -0.002489
    18  C   -0.102437
    19  C    0.047622
    20  C    0.098958
    21  C    0.044589
    22  C   -0.034460
    23  C   -0.068442
    24  N   -0.185051
    25  C    0.046352
    26  C   -0.153092
    27  C   -0.108444
    28  C    0.051232
    29  C    0.071690
    30  C    0.063090
    31  C   -0.074940
    32  N   -0.132134
    33  C    0.112805
    34  C   -0.069668
    35  C    0.061438
    36  C    0.039163
    37  C   -0.102856
    38  C    0.024014
    39  O   -0.178493
    40  C   -0.088570
    41  C    0.193282
    42  O   -0.237502
    43  O   -0.370468
    44  C    0.204025
    45  C    0.316908
    46  C   -0.093009
    47  C   -0.154150
    48  C    0.008838
    49  C    0.066992
    50  C    0.074750
    51  C    0.011033
    52  C   -0.047943
    53  C   -0.032402
    54  C   -0.021633
    55  C   -0.040692
    56  C    0.067703
    57  C   -0.012738
    58  C    0.169200
    59  C   -0.033226
    60  C    0.063419
    61  C    0.049516
    62  C   -0.164761
    63  C    0.040272
    64  C    0.041060
    65  H   -0.056586
    66  H   -0.046651
    67  H    0.004704
    68  H    0.002333
    69  H   -0.113196
    70  H    0.001201
    71  H   -0.054332
    72  H    0.007195
    73  H    0.061068
    74  H    0.020177
    75  H    0.051514
    76  H    0.045693
    77  H    0.039884
    78  H    0.014594
    79  H    0.035605
    80  H   -0.023070
    81  H    0.039832
    82  H    0.027562
    83  H    0.046188
    84  H    0.034189
    85  H    0.019255
    86  H    0.014306
    87  H    0.001508
    88  H    0.021820
    89  H    0.029111
    90  H    0.020751
    91  H    0.063801
    92  H    0.060734
    93  H    0.087395
    94  H    0.076640
    95  H    0.005090
    96  H    0.043519
    97  H    0.067958
    98  H    0.042138
    99  H   -0.007047
   100  H    0.009396
   101  H    0.037556
   102  H    0.067584
   103  H    0.028443
   104  H    0.023277
   105  H   -0.009520
   106  H    0.014422
   107  H   -0.065501
   108  H   -0.013469
   109  H   -0.005482
   110  H   -0.012877
   111  H    0.034788
   112  H    0.029582
   113  H    0.007543
   114  H   -0.008036
   115  H   -0.001214
   116  H   -0.010542
   117  H   -0.012842
   118  H   -0.011686
   119  H   -0.014462
   120  H   -0.032460
   121  H   -0.045013
   122  H   -0.003418
   123  H   -0.024904
   124  H   -0.000468
   125  H    0.005082
   126  H    0.023187
   127  H   -0.012779
   128  H   -0.033396
   129  H   -0.019420
   130  H   -0.006200
   131  H    0.022614
   132  H    0.021010
   133  H    0.003815
   134  H   -0.004751
   135  H    0.005675
   136  H   -0.014669
   137  H    0.086651
   138  H    0.206957
 Sum of Mulliken charges =  -0.00000

 Dipole moment (field-independent basis, Debye):
    X=              3.2835    Y=              4.7598    Z=              1.1407  Tot=              5.8939
 Quadrupole moment (field-independent basis, Debye-Ang):
   XX=           -349.9470   YY=           -381.9409   ZZ=           -396.4951
   XY=            -22.9026   XZ=              4.8163   YZ=             -0.8773

 Normal termination of Gaussian 16 at Wed Aug 21 03:40:24 2019.
