 Gaussian 16, Revision A.03,
 Gaussian 16:  ES64L-G16RevA.03 25-Dec-2016

 --------------------------
 # td=(NStates=1) B3LYP/SVP
 --------------------------

 --
 TD
 --
 Symbolic Z-matrix:
 Charge =  0 Multiplicity = 1

                         Standard orientation:
 ---------------------------------------------------------------------
 Center     Atomic      Atomic             Coordinates (Angstroms)
 Number     Number       Type             X           Y           Z
 ---------------------------------------------------------------------
      1          6           0       -5.066764   -1.978096    0.482411
      2          6           0       -4.720756    2.733914    1.488936
      3          6           0       -9.176617    3.307284   -0.398320
      4          6           0       -9.804956   -1.472563   -0.981871
      5          7           0       -5.168818    0.451621    0.913013
      6          6           0       -4.481209   -0.741446    0.848672
      7          6           0       -3.036310   -0.584506    1.351468
      8          6           0       -3.068579    0.853103    1.991656
      9          6           0       -4.350367    1.418565    1.449100
     10          6           0       -2.919612    1.000945    3.568391
     11          6           0       -2.103976   -0.728865    0.160157
     12          6           0       -0.595079   -0.877369    0.600066
     13          6           0        0.323457   -0.964253   -0.556931
     14          8           0       -0.022423   -1.114024   -1.756850
     15          8           0        1.658091   -0.762175   -0.182655
     16          7           0       -7.012564    2.795318    0.387481
     17          6           0       -5.879371    3.301301    1.083001
     18          6           0       -6.225907    4.758439    1.198390
     19          6           0       -7.635145    4.892842    0.652456
     20          6           0       -7.957691    3.621068    0.203026
     21          6           0       -5.340211    5.875349    1.735995
     22          6           0       -8.242930    6.241895    0.473825
     23          6           0       -9.040311    6.681862   -0.424046
     24          7           0       -9.192287    0.874808   -0.634832
     25          6           0       -9.799162    2.100499   -0.763936
     26          6           0      -11.168319    1.886874   -1.217604
     27          6           0      -11.438251    0.468106   -1.346817
     28          6           0      -10.139650   -0.045283   -0.957424
     29          6           0      -12.199788    3.084391   -1.308642
     30          6           0      -12.644457   -0.327035   -1.800904
     31          6           0      -12.682962   -0.422586   -3.375296
     32          7           0       -7.439509   -1.321982   -0.132241
     33          6           0       -8.580700   -2.052174   -0.614242
     34          6           0       -8.169964   -3.382047   -0.710940
     35          6           0       -6.725740   -3.419350   -0.260590
     36          6           0       -6.455759   -2.059551    0.049405
     37          6           0       -8.969092   -4.539947   -1.045045
     38          6           0       -5.662067   -4.273557   -0.000329
     39          8           0       -5.673097   -5.468715   -0.083255
     40          6           0       -4.501830   -3.378683    0.494076
     41          6           0       -3.940021   -3.827295    1.802003
     42          8           0       -4.124309   -3.400201    2.919880
     43          8           0       -3.231104   -4.878067    1.648402
     44          6           0       -2.752238   -5.568366    2.858793
     45          6           0        2.667236   -0.913115   -1.245336
     46          6           0        4.015473   -0.779267   -0.640150
     47          6           0        5.014752   -0.004919   -1.081390
     48          6           0        4.863103    0.852922   -2.245908
     49          6           0        6.281429    0.136022   -0.279025
     50          6           0        7.591944   -0.441365   -1.021393
     51          6           0        8.770026   -0.377296   -0.218724
     52          6           0       10.001176   -0.865714   -0.953043
     53          6           0       10.184908   -2.305706   -1.105735
     54          6           0       11.233704   -0.342302    0.017631
     55          6           0       12.692809   -0.575471   -0.625035
     56          6           0       13.714758   -0.019089    0.165290
     57          6           0       15.125176   -0.268828   -0.478123
     58          6           0       15.515847   -1.733874   -0.410785
     59          6           0       16.264603    0.635806    0.414838
     60          6           0       17.678568    0.691859   -0.203480
     61          6           0       18.532276    1.631789    0.609607
     62          6           0       20.102637    1.744304    0.079202
     63          6           0       20.180727    2.561192   -1.292706
     64          6           0       20.925460    2.347259    1.084047
     65          1           0       -3.920837    3.449381    2.108494
     66          1           0       -9.946837    4.112558   -0.293116
     67          1           0      -10.597481   -2.166104   -1.150421
     68          1           0       -2.677826   -1.111603    2.167246
     69          1           0       -2.255068    1.425533    1.539608
     70          1           0       -1.982899    0.560829    3.857590
     71          1           0       -3.008166    2.187688    3.894638
     72          1           0       -3.750034    0.286965    3.951776
     73          1           0       -2.133511   -1.891930   -0.244397
     74          1           0       -2.213450    0.048652   -0.662131
     75          1           0       -0.400117   -0.070703    1.203564
     76          1           0       -0.380377   -1.797652    1.269735
     77          1           0       -4.316380    6.005149    1.076839
     78          1           0       -5.979996    6.823014    2.090029
     79          1           0       -4.891044    5.333456    2.794452
     80          1           0       -7.942455    7.021370    1.366018
     81          1           0       -9.291595    6.062043   -1.077732
     82          1           0       -9.545374    7.688382   -0.279699
     83          1           0      -12.348626    3.699371   -0.325901
     84          1           0      -11.878781    3.900097   -2.154335
     85          1           0      -12.924734    2.686698   -1.814272
     86          1           0      -12.589448   -1.280365   -1.274723
     87          1           0      -13.432269    0.257178   -1.513694
     88          1           0      -12.529411    0.565668   -3.927084
     89          1           0      -11.881766   -1.165921   -3.566731
     90          1           0      -13.622035   -0.683918   -3.700021
     91          1           0      -10.076031   -4.173186   -0.655134
     92          1           0       -9.103067   -4.594957   -2.137363
     93          1           0       -8.438119   -5.420082   -0.535828
     94          1           0       -3.674775   -3.309193   -0.346942
     95          1           0       -2.446527   -6.700906    2.584505
     96          1           0       -1.977817   -4.999601    3.495992
     97          1           0       -3.462504   -5.705863    3.684867
     98          1           0        2.663832   -1.915932   -1.869230
     99          1           0        2.512816   -0.347208   -2.188436
    100          1           0        4.007639   -1.252272    0.430043
    101          1           0        5.070491    1.885418   -2.209535
    102          1           0        5.739187    0.591794   -3.026179
    103          1           0        3.878439    0.877550   -2.564684
    104          1           0        6.549854    1.354786    0.002395
    105          1           0        6.305805   -0.306010    0.624598
    106          1           0        7.314067   -1.537771   -1.220966
    107          1           0        7.744720    0.072262   -1.872489
    108          1           0        8.924793    0.598486    0.105917
    109          1           0        8.639087   -0.830971    0.825704
    110          1           0       10.234783   -0.358236   -1.935980
    111          1           0        9.340905   -2.454658   -1.825930
    112          1           0       10.931180   -2.437412   -1.765570
    113          1           0       10.077056   -3.182044   -0.287431
    114          1           0       11.055847    0.799401    0.353369
    115          1           0       11.334789   -0.964090    1.013621
    116          1           0       12.582255   -1.750863   -0.636550
    117          1           0       12.707134   -0.097140   -1.801895
    118          1           0       13.542965    1.186886   -0.024115
    119          1           0       13.691184   -0.656942    1.280026
    120          1           0       15.038085    0.160230   -1.509813
    121          1           0       14.446804   -2.175650   -0.872587
    122          1           0       16.275440   -2.069033   -1.200657
    123          1           0       16.011686   -2.199530    0.580454
    124          1           0       15.825218    1.609179    0.598312
    125          1           0       16.261314   -0.013623    1.398499
    126          1           0       18.153728   -0.303013   -0.233632
    127          1           0       17.669804    0.984193   -1.279321
    128          1           0       18.095990    2.588629    0.657712
    129          1           0       18.651872    1.328322    1.662002
    130          1           0       20.624484    0.654713   -0.188737
    131          1           0       19.750044    3.606330   -1.010586
    132          1           0       21.082372    2.582700   -1.639713
    133          1           0       19.707080    1.982096   -2.114822
    134          1           0       20.734883    1.766832    2.018068
    135          1           0       22.141635    2.524159    1.138157
    136          1           0       20.366006    3.308243    1.471708
    137          1           0       -7.003631    1.762137    0.027152
    138          1           0       -7.452945   -0.372954   -0.224843
 ---------------------------------------------------------------------

 SCF Done:  E(RB3LYP) =  -2732.92834465     A.U. after   17 cycles

 Excitation energies and oscillator strengths:

 Excited State   1:      Singlet-A      2.0329 eV  609.89 nm  f=0.1386  <S**2>=0.000
     235 -> 237       -0.31538
     235 -> 238        0.23621
     236 -> 237        0.53980
     236 -> 238        0.21455
 This state for optimization and/or second-order correction.
 Total Energy, E(TD-HF/TD-DFT) =  -2732.85363669
 Copying the excited state density for this state as the 1-particle RhoCI density.

 The electronic state is 1-A.
 Alpha  occ. eigenvalues --  -19.18542 -19.18385 -19.13144 -19.11208 -19.11094
 Alpha  occ. eigenvalues --  -14.37473 -14.36933 -14.32640 -14.29558 -10.32556
 Alpha  occ. eigenvalues --  -10.30978 -10.26668 -10.26238 -10.25407 -10.24624
 Alpha  occ. eigenvalues --  -10.23630 -10.23520 -10.23506 -10.23270 -10.23190
 Alpha  occ. eigenvalues --  -10.22891 -10.22014 -10.21982 -10.21815 -10.21761
 Alpha  occ. eigenvalues --  -10.21643 -10.21322 -10.21294 -10.21261 -10.21128
 Alpha  occ. eigenvalues --  -10.20947 -10.20807 -10.20770 -10.20715 -10.20594
 Alpha  occ. eigenvalues --  -10.20492 -10.20435 -10.20246 -10.20038 -10.19984
 Alpha  occ. eigenvalues --  -10.19889 -10.19870 -10.19821 -10.19816 -10.19734
 Alpha  occ. eigenvalues --  -10.19715 -10.19649 -10.19613 -10.19581 -10.19546
 Alpha  occ. eigenvalues --  -10.19466 -10.19213 -10.18882 -10.18814 -10.18798
 Alpha  occ. eigenvalues --  -10.18543 -10.18292 -10.18195 -10.18145 -10.17854
 Alpha  occ. eigenvalues --  -10.17715 -10.17286 -10.17212 -10.17017  -1.11652
 Alpha  occ. eigenvalues --   -1.07122  -1.03088  -1.00822  -0.99505  -0.99476
 Alpha  occ. eigenvalues --   -0.98911  -0.93702  -0.92838  -0.85220  -0.83282
 Alpha  occ. eigenvalues --   -0.82199  -0.82009  -0.81648  -0.81071  -0.80741
 Alpha  occ. eigenvalues --   -0.80643  -0.79679  -0.79368  -0.78422  -0.77585
 Alpha  occ. eigenvalues --   -0.76680  -0.76229  -0.75924  -0.75366  -0.74699
 Alpha  occ. eigenvalues --   -0.73638  -0.73498  -0.72755  -0.71975  -0.71008
 Alpha  occ. eigenvalues --   -0.70266  -0.69323  -0.69138  -0.68670  -0.67778
 Alpha  occ. eigenvalues --   -0.67600  -0.66593  -0.66053  -0.64941  -0.64426
 Alpha  occ. eigenvalues --   -0.64304  -0.63675  -0.62873  -0.62383  -0.61314
 Alpha  occ. eigenvalues --   -0.60208  -0.58946  -0.58399  -0.58314  -0.57537
 Alpha  occ. eigenvalues --   -0.56696  -0.56518  -0.56451  -0.55291  -0.55009
 Alpha  occ. eigenvalues --   -0.54607  -0.53851  -0.53654  -0.53386  -0.52889
 Alpha  occ. eigenvalues --   -0.52617  -0.52324  -0.51936  -0.51575  -0.51128
 Alpha  occ. eigenvalues --   -0.49824  -0.49454  -0.48934  -0.48768  -0.48582
 Alpha  occ. eigenvalues --   -0.48283  -0.48168  -0.47740  -0.47269  -0.46973
 Alpha  occ. eigenvalues --   -0.46689  -0.46631  -0.46459  -0.46064  -0.45965
 Alpha  occ. eigenvalues --   -0.45754  -0.45422  -0.45099  -0.45023  -0.44918
 Alpha  occ. eigenvalues --   -0.44510  -0.44121  -0.43741  -0.43641  -0.43338
 Alpha  occ. eigenvalues --   -0.43150  -0.42849  -0.42688  -0.42534  -0.42315
 Alpha  occ. eigenvalues --   -0.42205  -0.41782  -0.41634  -0.41547  -0.41390
 Alpha  occ. eigenvalues --   -0.41053  -0.40720  -0.40694  -0.40451  -0.40253
 Alpha  occ. eigenvalues --   -0.40066  -0.39830  -0.39630  -0.39494  -0.39306
 Alpha  occ. eigenvalues --   -0.38934  -0.38884  -0.38824  -0.38743  -0.38248
 Alpha  occ. eigenvalues --   -0.37977  -0.37741  -0.37669  -0.37653  -0.37429
 Alpha  occ. eigenvalues --   -0.37387  -0.37255  -0.36742  -0.36517  -0.36426
 Alpha  occ. eigenvalues --   -0.36326  -0.36142  -0.36046  -0.35812  -0.35687
 Alpha  occ. eigenvalues --   -0.35545  -0.35462  -0.35277  -0.34866  -0.34703
 Alpha  occ. eigenvalues --   -0.34649  -0.34549  -0.34353  -0.34164  -0.33935
 Alpha  occ. eigenvalues --   -0.33750  -0.33583  -0.33412  -0.32860  -0.32423
 Alpha  occ. eigenvalues --   -0.32240  -0.32041  -0.31444  -0.31294  -0.30934
 Alpha  occ. eigenvalues --   -0.30886  -0.30513  -0.30492  -0.30280  -0.29835
 Alpha  occ. eigenvalues --   -0.29224  -0.28827  -0.28253  -0.27683  -0.27511
 Alpha  occ. eigenvalues --   -0.27405  -0.26678  -0.26662  -0.26333  -0.25463
 Alpha  occ. eigenvalues --   -0.24809  -0.23933  -0.23291  -0.22016  -0.20119
 Alpha  occ. eigenvalues --   -0.19078
 Alpha virt. eigenvalues --   -0.10894  -0.08269  -0.04335  -0.01840  -0.01498
 Alpha virt. eigenvalues --   -0.00304   0.00380   0.00959   0.01990   0.02180
 Alpha virt. eigenvalues --    0.03384   0.03477   0.03903   0.03920   0.04313

 Mulliken charges:
               1
     1  C   -0.043339
     2  C   -0.124497
     3  C   -0.093111
     4  C   -0.056981
     5  N   -0.203248
     6  C   -0.027340
     7  C    0.033138
     8  C   -0.034590
     9  C   -0.029719
    10  C    0.023994
    11  C   -0.034992
    12  C    0.049224
    13  C    0.221489
    14  O   -0.267453
    15  O   -0.338516
    16  N   -0.034821
    17  C    0.166730
    18  C   -0.133753
    19  C    0.015515
    20  C    0.054395
    21  C   -0.036607
    22  C   -0.074685
    23  C    0.069920
    24  N   -0.248115
    25  C    0.050977
    26  C   -0.163027
    27  C   -0.132385
    28  C    0.034788
    29  C    0.113997
    30  C    0.134794
    31  C    0.028859
    32  N    0.131423
    33  C    0.089309
    34  C   -0.117944
    35  C   -0.018523
    36  C    0.010939
    37  C    0.047967
    38  C   -0.014164
    39  O   -0.158348
    40  C   -0.022050
    41  C    0.176211
    42  O   -0.244638
    43  O   -0.240445
    44  C    0.137110
    45  C    0.231950
    46  C   -0.114623
    47  C   -0.079412
    48  C    0.119671
    49  C    0.066532
    50  C    0.063407
    51  C    0.102056
    52  C   -0.102794
    53  C    0.108307
    54  C   -0.069079
    55  C   -0.088535
    56  C    0.013087
    57  C   -0.075486
    58  C   -0.053670
    59  C    0.001376
    60  C    0.079969
    61  C    0.035234
    62  C   -0.159579
    63  C    0.096716
    64  C    0.013643
    65  H    0.020666
    66  H   -0.001821
    67  H   -0.044860
    68  H   -0.033541
    69  H   -0.014578
    70  H    0.017648
    71  H    0.049049
    72  H    0.051263
    73  H    0.046721
    74  H    0.045211
    75  H   -0.004418
    76  H    0.054476
    77  H    0.070297
    78  H    0.061670
    79  H    0.041531
    80  H    0.018142
    81  H   -0.068740
    82  H    0.032988
    83  H    0.061314
    84  H    0.012358
    85  H   -0.048484
    86  H    0.010729
    87  H   -0.022323
    88  H    0.024277
    89  H    0.020847
    90  H   -0.004277
    91  H    0.038136
    92  H    0.040795
    93  H    0.076595
    94  H    0.085280
    95  H    0.063933
    96  H    0.038593
    97  H    0.034217
    98  H    0.030324
    99  H    0.011856
   100  H    0.017539
   101  H   -0.006157
   102  H    0.025085
   103  H   -0.020641
   104  H    0.009025
   105  H   -0.047106
   106  H    0.010843
   107  H   -0.039636
   108  H   -0.051848
   109  H   -0.014836
   110  H    0.004539
   111  H   -0.023485
   112  H   -0.029298
   113  H    0.045031
   114  H    0.004420
   115  H    0.005016
   116  H    0.040288
   117  H    0.008609
   118  H    0.023399
   119  H    0.026393
   120  H   -0.004780
   121  H    0.022105
   122  H    0.017224
   123  H    0.042554
   124  H   -0.010067
   125  H    0.007456
   126  H   -0.010826
   127  H   -0.003705
   128  H   -0.017425
   129  H   -0.009295
   130  H    0.003758
   131  H    0.020001
   132  H   -0.045449
   133  H   -0.000301
   134  H   -0.007805
   135  H    0.041414
   136  H   -0.006187
   137  H    0.186634
   138  H    0.085375
 Sum of Mulliken charges =  -0.00000

 Dipole moment (field-independent basis, Debye):
    X=              1.1155    Y=              3.0683    Z=              0.5538  Tot=              3.3114
 Quadrupole moment (field-independent basis, Debye-Ang):
   XX=           -365.3004   YY=           -389.3459   ZZ=           -394.1451
   XY=            -21.5726   XZ=              7.8751   YZ=             -1.7968

 Normal termination of Gaussian 16 at Sat Aug 31 07:36:12 2019.
