 Gaussian 16, Revision A.03,
 Gaussian 16:  ES64L-G16RevA.03 25-Dec-2016

 --------------------------
 # td=(NStates=1) B3LYP/SVP
 --------------------------

 --
 TD
 --
 Symbolic Z-matrix:
 Charge =  0 Multiplicity = 1

                         Standard orientation:
 ---------------------------------------------------------------------
 Center     Atomic      Atomic             Coordinates (Angstroms)
 Number     Number       Type             X           Y           Z
 ---------------------------------------------------------------------
      1          6           0       -5.028235   -1.908353    0.417332
      2          6           0       -4.772538    2.785124    1.298100
      3          6           0       -9.405085    3.382978   -0.142004
      4          6           0       -9.714546   -1.530238   -0.910579
      5          7           0       -5.236368    0.420714    0.916622
      6          6           0       -4.439611   -0.689808    0.802694
      7          6           0       -3.055595   -0.519662    1.257438
      8          6           0       -3.109746    0.967547    1.868294
      9          6           0       -4.384167    1.419427    1.266134
     10          6           0       -3.029118    0.910728    3.412295
     11          6           0       -2.095428   -0.752976    0.218466
     12          6           0       -0.597798   -0.702283    0.649328
     13          6           0        0.313242   -0.977522   -0.519685
     14          8           0       -0.149678   -1.314761   -1.611082
     15          8           0        1.672987   -0.846545   -0.197555
     16          7           0       -7.163491    2.708055    0.469148
     17          6           0       -6.006190    3.431745    0.966287
     18          6           0       -6.202945    4.806788    0.983384
     19          6           0       -7.539446    4.995585    0.508826
     20          6           0       -8.096330    3.611884    0.232045
     21          6           0       -5.181837    5.831727    1.471100
     22          6           0       -8.096320    6.363025    0.254455
     23          6           0       -9.199169    6.734575   -0.577247
     24          7           0       -9.205131    0.793899   -0.461929
     25          6           0       -9.894125    2.092843   -0.551875
     26          6           0      -11.316928    1.805500   -0.988781
     27          6           0      -11.382766    0.494990   -1.155137
     28          6           0      -10.020290   -0.065411   -0.879763
     29          6           0      -12.390273    2.909905   -1.070413
     30          6           0      -12.533136   -0.314049   -1.586461
     31          6           0      -12.635943   -0.483650   -3.236397
     32          7           0       -7.445661   -1.266576   -0.195768
     33          6           0       -8.493616   -2.063661   -0.556798
     34          6           0       -8.160177   -3.363940   -0.613506
     35          6           0       -6.730703   -3.348469   -0.254157
     36          6           0       -6.316242   -2.078143   -0.014156
     37          6           0       -8.946015   -4.570946   -1.152278
     38          6           0       -5.642683   -4.326015    0.096390
     39          8           0       -5.588383   -5.552867    0.002611
     40          6           0       -4.397692   -3.309322    0.459409
     41          6           0       -3.855681   -3.795016    1.665596
     42          8           0       -4.207761   -3.390346    2.766824
     43          8           0       -2.995850   -4.775555    1.568656
     44          6           0       -2.541243   -5.474421    2.736465
     45          6           0        2.640738   -1.144499   -1.218759
     46          6           0        3.946552   -0.865510   -0.648936
     47          6           0        4.949276    0.021913   -1.195768
     48          6           0        4.812459    0.807784   -2.488454
     49          6           0        6.305978    0.111932   -0.287578
     50          6           0        7.475011   -0.479774   -0.908582
     51          6           0        8.782191   -0.263009   -0.031995
     52          6           0       10.061595   -0.840180   -0.753301
     53          6           0        9.901960   -2.364413   -1.002837
     54          6           0       11.306536   -0.388127    0.072056
     55          6           0       12.656483   -0.640709   -0.613295
     56          6           0       13.844341    0.063799    0.098779
     57          6           0       15.214610   -0.115903   -0.426322
     58          6           0       15.686422   -1.658939   -0.334634
     59          6           0       16.241565    0.643834    0.373130
     60          6           0       17.758749    0.826368   -0.207191
     61          6           0       18.680311    1.767786    0.706435
     62          6           0       20.082274    1.722772    0.204392
     63          6           0       20.168004    2.091825   -1.270655
     64          6           0       20.926847    2.606961    1.056192
     65          1           0       -4.147206    3.501669    1.798686
     66          1           0      -10.129911    4.110731   -0.311670
     67          1           0      -10.627446   -2.168763   -1.507733
     68          1           0       -3.111804   -1.346374    2.076817
     69          1           0       -2.157115    1.455638    1.372938
     70          1           0       -2.259402    0.174615    3.980921
     71          1           0       -3.096243    1.924990    4.096821
     72          1           0       -3.897725    0.382832    3.823526
     73          1           0       -2.318646   -1.606385   -0.308861
     74          1           0       -2.017076   -0.000341   -0.621614
     75          1           0       -0.463804    0.054571    1.110876
     76          1           0       -0.322841   -1.237672    1.311633
     77          1           0       -4.046771    5.642966    1.184265
     78          1           0       -5.411964    6.771395    1.402789
     79          1           0       -5.334362    5.668253    2.762410
     80          1           0       -7.533373    7.013803    0.896766
     81          1           0       -9.465631    6.129957   -1.310992
     82          1           0       -9.600813    7.810710   -0.715875
     83          1           0      -12.400223    3.552360   -0.110951
     84          1           0      -12.131194    3.586492   -1.997408
     85          1           0      -13.257654    2.482156   -1.158978
     86          1           0      -12.588390   -1.301648   -1.312352
     87          1           0      -13.434200    0.371627   -1.232145
     88          1           0      -13.062154    0.463874   -3.671866
     89          1           0      -11.606545   -0.932761   -3.627364
     90          1           0      -13.504019   -1.289741   -3.368946
     91          1           0       -9.592173   -4.850095   -0.378260
     92          1           0       -9.347004   -4.038288   -2.107144
     93          1           0       -8.492680   -5.453568   -1.246024
     94          1           0       -3.691831   -3.304651   -0.466211
     95          1           0       -1.971219   -6.425099    2.347744
     96          1           0       -1.682292   -5.051408    3.210342
     97          1           0       -3.422263   -5.781928    3.338018
     98          1           0        2.591377   -2.190706   -1.691644
     99          1           0        2.355671   -0.533653   -2.286532
    100          1           0        4.330976   -1.391512    0.233700
    101          1           0        4.770271    1.918697   -2.305214
    102          1           0        5.768394    0.761056   -3.212450
    103          1           0        4.050127    0.469602   -3.119611
    104          1           0        6.298038    1.128613   -0.262092
    105          1           0        6.218396   -0.077934    0.575607
    106          1           0        7.351856   -1.455425   -1.299093
    107          1           0        7.637471    0.007057   -1.894429
    108          1           0        8.924905    0.814838    0.213918
    109          1           0        8.916486   -0.674750    1.012083
    110          1           0       10.122022   -0.413164   -1.804293
    111          1           0        8.981159   -2.524377   -1.453661
    112          1           0       10.610936   -2.760900   -1.586940
    113          1           0        9.885852   -3.161983   -0.155137
    114          1           0       10.957035    0.698090    0.299962
    115          1           0       11.455491   -0.750539    0.976813
    116          1           0       12.817101   -1.661100   -0.611137
    117          1           0       12.854505   -0.173096   -1.637556
    118          1           0       13.445867    1.089873    0.185586
    119          1           0       13.616772   -0.192428    1.135895
    120          1           0       15.012406    0.207577   -1.603579
    121          1           0       15.039533   -2.280875   -1.066413
    122          1           0       16.716732   -2.047037   -0.651396
    123          1           0       15.896917   -1.790401    0.897292
    124          1           0       15.835203    1.933225    0.271039
    125          1           0       16.230367    0.356620    1.454991
    126          1           0       18.120953   -0.213070   -0.352177
    127          1           0       17.518311    0.954717   -1.181047
    128          1           0       18.215526    2.874516    0.514657
    129          1           0       18.582470    1.458923    1.750345
    130          1           0       20.404385    0.674656    0.247634
    131          1           0       19.747638    3.015704   -1.430842
    132          1           0       21.245568    1.920047   -1.754420
    133          1           0       19.587054    1.514278   -1.878635
    134          1           0       20.861774    2.254098    2.104972
    135          1           0       22.003620    2.366524    0.590596
    136          1           0       20.622460    3.626690    0.798079
    137          1           0       -7.383225    1.649904    0.580801
    138          1           0       -7.849533   -0.310695   -0.062855
 ---------------------------------------------------------------------

 SCF Done:  E(RB3LYP) =  -2732.83520975     A.U. after   17 cycles

 Excitation energies and oscillator strengths:

 Excited State   1:      Singlet-A      1.8616 eV  666.02 nm  f=0.1613  <S**2>=0.000
     235 -> 237       -0.10649
     235 -> 238        0.27095
     236 -> 237        0.63597
 This state for optimization and/or second-order correction.
 Total Energy, E(TD-HF/TD-DFT) =  -2732.76679846
 Copying the excited state density for this state as the 1-particle RhoCI density.

 The electronic state is 1-A.
 Alpha  occ. eigenvalues --  -19.18155 -19.17547 -19.13181 -19.13119 -19.10496
 Alpha  occ. eigenvalues --  -14.37562 -14.34993 -14.32339 -14.31033 -10.32213
 Alpha  occ. eigenvalues --  -10.30557 -10.28894 -10.26172 -10.25173 -10.23982
 Alpha  occ. eigenvalues --  -10.23825 -10.22806 -10.22714 -10.22708 -10.22647
 Alpha  occ. eigenvalues --  -10.22325 -10.21950 -10.21938 -10.21815 -10.21787
 Alpha  occ. eigenvalues --  -10.21704 -10.21614 -10.21469 -10.21431 -10.21218
 Alpha  occ. eigenvalues --  -10.21001 -10.20912 -10.20839 -10.20802 -10.20704
 Alpha  occ. eigenvalues --  -10.20445 -10.20411 -10.20055 -10.20051 -10.19897
 Alpha  occ. eigenvalues --  -10.19864 -10.19848 -10.19790 -10.19707 -10.19630
 Alpha  occ. eigenvalues --  -10.19365 -10.19295 -10.19108 -10.19064 -10.18959
 Alpha  occ. eigenvalues --  -10.18866 -10.18641 -10.18311 -10.18243 -10.18223
 Alpha  occ. eigenvalues --  -10.17951 -10.17947 -10.17745 -10.17673 -10.17348
 Alpha  occ. eigenvalues --  -10.16781 -10.16756 -10.16603 -10.16427  -1.10145
 Alpha  occ. eigenvalues --   -1.07588  -1.01997  -1.00405  -0.99048  -0.97951
 Alpha  occ. eigenvalues --   -0.97563  -0.94732  -0.94211  -0.85313  -0.82942
 Alpha  occ. eigenvalues --   -0.82149  -0.81975  -0.81791  -0.81144  -0.80363
 Alpha  occ. eigenvalues --   -0.79918  -0.79460  -0.79359  -0.78262  -0.78010
 Alpha  occ. eigenvalues --   -0.77048  -0.76447  -0.75650  -0.74755  -0.73838
 Alpha  occ. eigenvalues --   -0.73345  -0.72767  -0.72187  -0.71672  -0.71059
 Alpha  occ. eigenvalues --   -0.70606  -0.69479  -0.68927  -0.68552  -0.68399
 Alpha  occ. eigenvalues --   -0.68374  -0.67246  -0.66084  -0.65254  -0.64981
 Alpha  occ. eigenvalues --   -0.64429  -0.63705  -0.62871  -0.62290  -0.61774
 Alpha  occ. eigenvalues --   -0.61000  -0.60566  -0.57882  -0.57722  -0.57410
 Alpha  occ. eigenvalues --   -0.57333  -0.56958  -0.56355  -0.56229  -0.55505
 Alpha  occ. eigenvalues --   -0.55244  -0.54336  -0.54131  -0.53796  -0.53086
 Alpha  occ. eigenvalues --   -0.52804  -0.52284  -0.51949  -0.51412  -0.50827
 Alpha  occ. eigenvalues --   -0.49677  -0.49520  -0.49453  -0.49107  -0.48178
 Alpha  occ. eigenvalues --   -0.47956  -0.47596  -0.47366  -0.47067  -0.46847
 Alpha  occ. eigenvalues --   -0.46725  -0.46322  -0.46170  -0.45853  -0.45613
 Alpha  occ. eigenvalues --   -0.45480  -0.45210  -0.44913  -0.44660  -0.44402
 Alpha  occ. eigenvalues --   -0.44287  -0.44184  -0.43721  -0.43486  -0.43266
 Alpha  occ. eigenvalues --   -0.43046  -0.42952  -0.42821  -0.42503  -0.42359
 Alpha  occ. eigenvalues --   -0.42273  -0.42149  -0.42023  -0.41868  -0.41855
 Alpha  occ. eigenvalues --   -0.41719  -0.41244  -0.41078  -0.40695  -0.40532
 Alpha  occ. eigenvalues --   -0.40438  -0.40084  -0.39855  -0.39731  -0.39493
 Alpha  occ. eigenvalues --   -0.39391  -0.39274  -0.38966  -0.38866  -0.38729
 Alpha  occ. eigenvalues --   -0.38553  -0.38215  -0.38172  -0.37985  -0.37608
 Alpha  occ. eigenvalues --   -0.37555  -0.37472  -0.37305  -0.37050  -0.36583
 Alpha  occ. eigenvalues --   -0.36381  -0.36127  -0.36123  -0.35973  -0.35780
 Alpha  occ. eigenvalues --   -0.35537  -0.35455  -0.35222  -0.34925  -0.34687
 Alpha  occ. eigenvalues --   -0.34496  -0.34444  -0.34268  -0.33854  -0.33849
 Alpha  occ. eigenvalues --   -0.33301  -0.33198  -0.32574  -0.32466  -0.32448
 Alpha  occ. eigenvalues --   -0.31952  -0.31916  -0.31696  -0.31450  -0.31427
 Alpha  occ. eigenvalues --   -0.30879  -0.30342  -0.30161  -0.29961  -0.29714
 Alpha  occ. eigenvalues --   -0.29613  -0.28812  -0.28540  -0.28193  -0.28137
 Alpha  occ. eigenvalues --   -0.27783  -0.27175  -0.26698  -0.26138  -0.25224
 Alpha  occ. eigenvalues --   -0.24821  -0.23693  -0.23672  -0.23333  -0.19621
 Alpha  occ. eigenvalues --   -0.18396
 Alpha virt. eigenvalues --   -0.10674  -0.07981  -0.04644  -0.02502  -0.01537
 Alpha virt. eigenvalues --   -0.00327   0.00003   0.00608   0.02150   0.03003
 Alpha virt. eigenvalues --    0.03410   0.03552   0.04238   0.04645   0.05078

 Mulliken charges:
               1
     1  C   -0.033732
     2  C   -0.049244
     3  C   -0.056111
     4  C   -0.152919
     5  N   -0.164114
     6  C   -0.085576
     7  C   -0.058594
     8  C    0.004753
     9  C    0.021296
    10  C   -0.009570
    11  C    0.080711
    12  C    0.351287
    13  C    0.195491
    14  O   -0.248117
    15  O   -0.331969
    16  N   -0.090975
    17  C    0.078706
    18  C   -0.088419
    19  C   -0.046306
    20  C    0.123858
    21  C    0.085313
    22  C   -0.014477
    23  C   -0.010485
    24  N   -0.251924
    25  C    0.031503
    26  C   -0.142829
    27  C   -0.073455
    28  C   -0.008626
    29  C    0.153474
    30  C    0.038745
    31  C   -0.078138
    32  N   -0.071327
    33  C    0.091599
    34  C   -0.173335
    35  C   -0.035058
    36  C    0.171692
    37  C    0.209189
    38  C    0.086845
    39  O   -0.176494
    40  C   -0.073943
    41  C    0.198607
    42  O   -0.268507
    43  O   -0.270717
    44  C    0.179198
    45  C    0.200655
    46  C   -0.048787
    47  C   -0.206533
    48  C    0.055372
    49  C    0.278101
    50  C    0.074485
    51  C   -0.003429
    52  C   -0.079580
    53  C    0.094801
    54  C    0.060275
    55  C    0.054612
    56  C    0.022653
    57  C   -0.017304
    58  C   -0.064372
    59  C   -0.090828
    60  C    0.076215
    61  C    0.039235
    62  C   -0.114666
    63  C    0.075169
    64  C    0.068648
    65  H   -0.037945
    66  H   -0.053633
    67  H    0.041607
    68  H    0.052357
    69  H    0.018812
    70  H    0.032336
    71  H    0.032718
    72  H    0.016527
    73  H   -0.028239
    74  H    0.009296
    75  H   -0.116064
    76  H   -0.101594
    77  H    0.067038
    78  H   -0.034480
    79  H    0.046526
    80  H   -0.008965
    81  H   -0.001761
    82  H    0.044918
    83  H    0.041220
    84  H    0.043113
    85  H   -0.052000
    86  H   -0.012799
    87  H    0.022071
    88  H    0.034096
    89  H    0.050325
    90  H    0.025028
    91  H    0.002373
    92  H    0.055773
    93  H   -0.023331
    94  H    0.090261
    95  H    0.027930
    96  H    0.023570
    97  H    0.057059
    98  H    0.038656
    99  H    0.036692
   100  H    0.001825
   101  H    0.035013
   102  H    0.027289
   103  H    0.003056
   104  H   -0.038062
   105  H   -0.126703
   106  H   -0.012992
   107  H   -0.021386
   108  H   -0.008095
   109  H   -0.000767
   110  H   -0.002209
   111  H   -0.032551
   112  H   -0.028514
   113  H   -0.001423
   114  H   -0.009303
   115  H   -0.046710
   116  H   -0.014849
   117  H   -0.009975
   118  H   -0.016850
   119  H   -0.041331
   120  H    0.013188
   121  H    0.035658
   122  H    0.024078
   123  H    0.027936
   124  H   -0.006278
   125  H    0.014834
   126  H   -0.026347
   127  H   -0.035550
   128  H    0.014374
   129  H    0.002895
   130  H   -0.013980
   131  H   -0.025141
   132  H    0.015844
   133  H   -0.026770
   134  H    0.015168
   135  H    0.012153
   136  H    0.008521
   137  H    0.200610
   138  H    0.141827
 Sum of Mulliken charges =  -0.00000

 Dipole moment (field-independent basis, Debye):
    X=              2.0942    Y=              3.5630    Z=              0.3062  Tot=              4.1442
 Quadrupole moment (field-independent basis, Debye-Ang):
   XX=           -352.8801   YY=           -382.9366   ZZ=           -392.5334
   XY=            -33.1587   XZ=              6.5963   YZ=             -1.0033

 Normal termination of Gaussian 16 at Sun Aug 25 01:52:29 2019.
