 Gaussian 16, Revision A.03,
 Gaussian 16:  ES64L-G16RevA.03 25-Dec-2016

 --------------------------
 # td=(NStates=1) B3LYP/SVP
 --------------------------

 --
 TD
 --
 Symbolic Z-matrix:
 Charge =  0 Multiplicity = 1

                         Standard orientation:
 ---------------------------------------------------------------------
 Center     Atomic      Atomic             Coordinates (Angstroms)
 Number     Number       Type             X           Y           Z
 ---------------------------------------------------------------------
      1          6           0       -5.169992   -2.038772    0.463785
      2          6           0       -4.614750    2.742722    1.306439
      3          6           0       -9.099191    3.527167   -0.087815
      4          6           0       -9.839295   -1.345410   -0.936242
      5          7           0       -5.119528    0.440253    0.816345
      6          6           0       -4.459426   -0.828244    0.819922
      7          6           0       -2.986713   -0.667881    1.205051
      8          6           0       -2.859709    0.802127    1.751365
      9          6           0       -4.239118    1.385914    1.182863
     10          6           0       -2.686973    0.900819    3.321304
     11          6           0       -2.082889   -0.895712    0.009926
     12          6           0       -0.542280   -0.966429    0.501701
     13          6           0        0.289635   -1.176130   -0.648092
     14          8           0       -0.017814   -1.559053   -1.777025
     15          8           0        1.636193   -0.899283   -0.399274
     16          7           0       -6.841342    2.817822    0.571085
     17          6           0       -5.776815    3.430986    1.002900
     18          6           0       -5.904610    4.847293    1.010526
     19          6           0       -7.237556    5.007792    0.504210
     20          6           0       -7.792358    3.810504    0.230628
     21          6           0       -4.897861    5.882501    1.528087
     22          6           0       -7.820994    6.438757    0.318342
     23          6           0       -8.765084    6.877477   -0.612567
     24          7           0       -9.097946    1.061034   -0.530895
     25          6           0       -9.714792    2.227526   -0.525571
     26          6           0      -11.165073    2.049095   -0.915032
     27          6           0      -11.333277    0.635035   -1.012629
     28          6           0      -10.034553    0.005544   -0.824298
     29          6           0      -12.129541    3.122971   -1.112519
     30          6           0      -12.590878    0.009637   -1.427072
     31          6           0      -12.865584   -0.326781   -3.051998
     32          7           0       -7.537089   -1.207266   -0.391670
     33          6           0       -8.597859   -2.002865   -0.587375
     34          6           0       -8.206201   -3.379852   -0.497137
     35          6           0       -6.968594   -3.438575   -0.153672
     36          6           0       -6.534578   -2.071049    0.028184
     37          6           0       -9.086734   -4.558387   -0.924304
     38          6           0       -5.927845   -4.325469    0.260715
     39          8           0       -5.969111   -5.566293    0.250292
     40          6           0       -4.658017   -3.482527    0.570482
     41          6           0       -3.947197   -3.805099    1.791970
     42          8           0       -4.159274   -3.255190    2.891213
     43          8           0       -3.157243   -4.919146    1.577426
     44          6           0       -2.689353   -5.620462    2.695856
     45          6           0        2.603853   -1.125969   -1.401635
     46          6           0        3.886044   -0.827691   -0.797470
     47          6           0        5.011937   -0.085308   -1.416896
     48          6           0        5.006502    0.472366   -2.660932
     49          6           0        6.230574    0.003305   -0.454909
     50          6           0        7.466656   -0.615569   -1.183706
     51          6           0        8.655395   -0.399016   -0.204435
     52          6           0        9.978681   -0.948687   -0.906250
     53          6           0       10.077665   -2.445611   -1.056933
     54          6           0       11.118437   -0.412426   -0.062864
     55          6           0       12.508550   -0.667838   -0.663193
     56          6           0       13.668570   -0.022312    0.201509
     57          6           0       15.105933   -0.032957   -0.448490
     58          6           0       15.557716   -1.553112   -0.731841
     59          6           0       16.179476    0.557791    0.559122
     60          6           0       17.509967    0.734093   -0.106968
     61          6           0       18.469420    1.565203    0.821430
     62          6           0       19.887687    1.850133    0.366923
     63          6           0       19.953111    2.520392   -1.010808
     64          6           0       20.646525    2.639845    1.409361
     65          1           0       -3.783811    3.489669    1.628007
     66          1           0       -9.908802    4.297039   -0.045519
     67          1           0      -10.711149   -1.987341   -1.173617
     68          1           0       -2.928758   -1.390172    1.951082
     69          1           0       -2.045746    1.384174    1.215663
     70          1           0       -1.765543    0.549260    3.566783
     71          1           0       -2.803134    2.081833    3.775078
     72          1           0       -3.515337    0.354069    3.883146
     73          1           0       -2.211510   -1.768246   -0.590627
     74          1           0       -2.165525    0.058694   -0.629649
     75          1           0       -0.076908   -0.066892    1.228224
     76          1           0       -0.301087   -1.815358    1.056912
     77          1           0       -3.857930    5.597489    1.242000
     78          1           0       -5.386935    6.919910    1.535783
     79          1           0       -4.857248    5.623957    2.697097
     80          1           0       -7.338498    7.208034    0.894158
     81          1           0       -9.278763    6.392570   -1.366661
     82          1           0       -9.056404    7.799486   -0.438728
     83          1           0      -12.306119    3.637515    0.007400
     84          1           0      -11.745895    3.880104   -1.700237
     85          1           0      -13.132695    2.735064   -1.539326
     86          1           0      -12.840374   -1.050905   -0.990592
     87          1           0      -13.431025    0.590247   -1.079848
     88          1           0      -12.587840    0.579654   -3.691870
     89          1           0      -12.073634   -1.007998   -3.304106
     90          1           0      -13.972151   -0.815116   -3.075040
     91          1           0      -10.368099   -4.109108   -0.711423
     92          1           0       -8.774125   -4.666555   -2.340641
     93          1           0       -8.613413   -5.405240   -0.225274
     94          1           0       -3.962813   -3.952960   -0.355976
     95          1           0       -2.068119   -6.385965    2.197991
     96          1           0       -2.154609   -4.895282    3.348738
     97          1           0       -3.470578   -5.969866    3.271670
     98          1           0        2.669393   -2.257960   -1.541236
     99          1           0        2.252129   -0.889033   -2.408081
    100          1           0        3.850933   -1.006789    0.357338
    101          1           0        5.057037    1.631146   -2.458130
    102          1           0        6.014167    0.306509   -3.387332
    103          1           0        4.133872    0.089485   -3.107967
    104          1           0        6.412000    1.174157   -0.395258
    105          1           0        5.931457   -0.479146    0.540894
    106          1           0        7.218578   -1.467855   -1.228057
    107          1           0        7.717511   -0.167834   -2.040372
    108          1           0        8.818084    0.490974   -0.028060
    109          1           0        8.562000   -0.928638    0.734506
    110          1           0        9.823334   -0.551805   -2.009450
    111          1           0        9.312441   -2.498172   -1.785044
    112          1           0       10.934997   -2.953236   -1.322010
    113          1           0       10.027721   -3.082890   -0.142535
    114          1           0       11.032292    0.703032    0.160133
    115          1           0       10.958279   -0.843360    1.001115
    116          1           0       12.741342   -1.699258   -0.619726
    117          1           0       12.459974   -0.222050   -1.662460
    118          1           0       13.481615    1.082756    0.334376
    119          1           0       13.745842   -0.544688    1.300272
    120          1           0       15.019980    0.624727   -1.341182
    121          1           0       14.782332   -2.070011   -1.533299
    122          1           0       16.514486   -1.398814   -1.297961
    123          1           0       15.593777   -2.071994    0.259736
    124          1           0       15.928379    1.608749    0.835528
    125          1           0       16.078815    0.078075    1.539604
    126          1           0       17.996109   -0.371292   -0.353828
    127          1           0       17.567761    1.198793   -1.094860
    128          1           0       18.004819    2.552998    1.234911
    129          1           0       18.615815    0.965709    1.896570
    130          1           0       20.306450    0.761057    0.301759
    131          1           0       19.231158    3.360965   -1.126231
    132          1           0       20.987580    2.718063   -1.295348
    133          1           0       19.689847    1.763910   -1.921437
    134          1           0       20.666225    2.249239    2.371526
    135          1           0       21.561723    2.794602    1.144291
    136          1           0       20.209900    3.555852    1.678323
    137          1           0       -6.965145    1.854572    0.585930
    138          1           0       -7.460966   -0.028614   -0.646337
 ---------------------------------------------------------------------

 SCF Done:  E(RB3LYP) =  -2732.92062053     A.U. after   18 cycles

 Excitation energies and oscillator strengths:

 Excited State   1:      Singlet-A      1.9871 eV  623.93 nm  f=0.1628  <S**2>=0.000
     235 -> 237       -0.12601
     235 -> 238        0.28492
     236 -> 237        0.62815
 This state for optimization and/or second-order correction.
 Total Energy, E(TD-HF/TD-DFT) =  -2732.84759444
 Copying the excited state density for this state as the 1-particle RhoCI density.

 The electronic state is 1-A.
 Alpha  occ. eigenvalues --  -19.18147 -19.16468 -19.13398 -19.12438 -19.12408
 Alpha  occ. eigenvalues --  -14.37904 -14.36280 -14.32759 -14.30639 -10.32462
 Alpha  occ. eigenvalues --  -10.31532 -10.28424 -10.24801 -10.24066 -10.23958
 Alpha  occ. eigenvalues --  -10.23913 -10.23865 -10.23521 -10.23374 -10.23216
 Alpha  occ. eigenvalues --  -10.23152 -10.23002 -10.22634 -10.22536 -10.21985
 Alpha  occ. eigenvalues --  -10.21923 -10.21799 -10.21693 -10.21645 -10.21253
 Alpha  occ. eigenvalues --  -10.21078 -10.20996 -10.20877 -10.20818 -10.20518
 Alpha  occ. eigenvalues --  -10.20392 -10.20164 -10.20159 -10.20084 -10.20041
 Alpha  occ. eigenvalues --  -10.19948 -10.19810 -10.19689 -10.19499 -10.19455
 Alpha  occ. eigenvalues --  -10.19390 -10.19338 -10.19291 -10.19271 -10.19190
 Alpha  occ. eigenvalues --  -10.19159 -10.19028 -10.19014 -10.18950 -10.18805
 Alpha  occ. eigenvalues --  -10.18712 -10.18149 -10.18147 -10.18118 -10.17654
 Alpha  occ. eigenvalues --  -10.16428 -10.16084 -10.15667 -10.15166  -1.08926
 Alpha  occ. eigenvalues --   -1.08043  -1.01736  -1.00420  -1.00044  -0.99485
 Alpha  occ. eigenvalues --   -0.98803  -0.92781  -0.92345  -0.85309  -0.82723
 Alpha  occ. eigenvalues --   -0.82290  -0.81645  -0.81084  -0.80900  -0.80729
 Alpha  occ. eigenvalues --   -0.80536  -0.79034  -0.78955  -0.78354  -0.77879
 Alpha  occ. eigenvalues --   -0.76639  -0.76535  -0.75728  -0.74873  -0.74306
 Alpha  occ. eigenvalues --   -0.73596  -0.73502  -0.72176  -0.71334  -0.71137
 Alpha  occ. eigenvalues --   -0.69891  -0.69502  -0.68613  -0.68432  -0.67849
 Alpha  occ. eigenvalues --   -0.66603  -0.65855  -0.65486  -0.65132  -0.64383
 Alpha  occ. eigenvalues --   -0.63800  -0.63277  -0.63057  -0.62415  -0.61366
 Alpha  occ. eigenvalues --   -0.60505  -0.59315  -0.58464  -0.58242  -0.57639
 Alpha  occ. eigenvalues --   -0.57435  -0.57091  -0.56306  -0.56073  -0.55400
 Alpha  occ. eigenvalues --   -0.55346  -0.54457  -0.54288  -0.53284  -0.52392
 Alpha  occ. eigenvalues --   -0.52133  -0.52016  -0.51231  -0.50534  -0.50156
 Alpha  occ. eigenvalues --   -0.49711  -0.49564  -0.49150  -0.48946  -0.48281
 Alpha  occ. eigenvalues --   -0.48014  -0.47643  -0.47485  -0.47046  -0.46889
 Alpha  occ. eigenvalues --   -0.46274  -0.46266  -0.46012  -0.45855  -0.45673
 Alpha  occ. eigenvalues --   -0.45493  -0.45286  -0.45144  -0.45054  -0.44873
 Alpha  occ. eigenvalues --   -0.44160  -0.44018  -0.43974  -0.43711  -0.43586
 Alpha  occ. eigenvalues --   -0.43298  -0.43216  -0.43038  -0.42751  -0.42321
 Alpha  occ. eigenvalues --   -0.42086  -0.42028  -0.41754  -0.41582  -0.41355
 Alpha  occ. eigenvalues --   -0.41239  -0.41174  -0.40971  -0.40507  -0.40011
 Alpha  occ. eigenvalues --   -0.39970  -0.39625  -0.39527  -0.39368  -0.39299
 Alpha  occ. eigenvalues --   -0.38980  -0.38927  -0.38685  -0.38544  -0.38366
 Alpha  occ. eigenvalues --   -0.38034  -0.37947  -0.37920  -0.37620  -0.37439
 Alpha  occ. eigenvalues --   -0.37292  -0.37016  -0.36761  -0.36724  -0.36690
 Alpha  occ. eigenvalues --   -0.36371  -0.36218  -0.36006  -0.35886  -0.35818
 Alpha  occ. eigenvalues --   -0.35625  -0.35416  -0.35134  -0.35122  -0.34947
 Alpha  occ. eigenvalues --   -0.34888  -0.34754  -0.34653  -0.34590  -0.33824
 Alpha  occ. eigenvalues --   -0.33447  -0.33225  -0.33175  -0.32969  -0.32858
 Alpha  occ. eigenvalues --   -0.32202  -0.32105  -0.31952  -0.31471  -0.31419
 Alpha  occ. eigenvalues --   -0.30808  -0.30569  -0.30315  -0.30292  -0.29434
 Alpha  occ. eigenvalues --   -0.29169  -0.28943  -0.28513  -0.28018  -0.27785
 Alpha  occ. eigenvalues --   -0.27322  -0.27056  -0.26747  -0.26399  -0.25948
 Alpha  occ. eigenvalues --   -0.25390  -0.24140  -0.21749  -0.21277  -0.19929
 Alpha  occ. eigenvalues --   -0.18660
 Alpha virt. eigenvalues --   -0.10324  -0.08062  -0.05261  -0.02929  -0.02314
 Alpha virt. eigenvalues --   -0.01549  -0.00698  -0.00649   0.00549   0.01502
 Alpha virt. eigenvalues --    0.03218   0.03387   0.04043   0.04203   0.04307

 Mulliken charges:
               1
     1  C   -0.020597
     2  C   -0.074099
     3  C   -0.107272
     4  C   -0.119371
     5  N   -0.207885
     6  C   -0.062964
     7  C    0.059688
     8  C   -0.058695
     9  C   -0.012190
    10  C    0.041689
    11  C    0.065416
    12  C    0.020949
    13  C    0.173265
    14  O   -0.255835
    15  O   -0.342989
    16  N    0.019602
    17  C    0.045038
    18  C   -0.147109
    19  C    0.019105
    20  C    0.157253
    21  C    0.080793
    22  C   -0.040324
    23  C    0.052012
    24  N   -0.259761
    25  C   -0.002155
    26  C   -0.145767
    27  C   -0.045527
    28  C    0.128289
    29  C    0.071135
    30  C   -0.020340
    31  C   -0.032237
    32  N   -0.116984
    33  C    0.080229
    34  C   -0.170488
    35  C    0.085351
    36  C    0.098401
    37  C   -0.092357
    38  C    0.053786
    39  O   -0.197948
    40  C   -0.055316
    41  C    0.219534
    42  O   -0.253126
    43  O   -0.317894
    44  C    0.219552
    45  C    0.258243
    46  C   -0.121720
    47  C   -0.167172
    48  C    0.057436
    49  C    0.025964
    50  C    0.201565
    51  C    0.163672
    52  C   -0.128796
    53  C    0.080750
    54  C   -0.011748
    55  C    0.108509
    56  C   -0.037949
    57  C   -0.087022
    58  C   -0.023954
    59  C    0.046138
    60  C    0.032669
    61  C   -0.083339
    62  C   -0.086789
    63  C   -0.003519
    64  C    0.188337
    65  H   -0.025527
    66  H   -0.005745
    67  H   -0.010707
    68  H   -0.018406
    69  H    0.011986
    70  H    0.000562
    71  H    0.029051
    72  H    0.047067
    73  H    0.025819
    74  H    0.030689
    75  H    0.068340
    76  H    0.017852
    77  H    0.049454
    78  H    0.043292
    79  H    0.037999
    80  H   -0.005823
    81  H    0.004281
    82  H   -0.013968
    83  H    0.040478
    84  H    0.005742
    85  H    0.034300
    86  H    0.006431
    87  H    0.000842
    88  H    0.026276
    89  H    0.006762
    90  H    0.049317
    91  H    0.061574
    92  H    0.072512
    93  H    0.093592
    94  H    0.102449
    95  H    0.044024
    96  H    0.020486
    97  H    0.011304
    98  H    0.007023
    99  H    0.019844
   100  H    0.028229
   101  H    0.042395
   102  H    0.040053
   103  H    0.004539
   104  H    0.000694
   105  H    0.016855
   106  H   -0.095663
   107  H   -0.036063
   108  H   -0.100065
   109  H   -0.020069
   110  H   -0.008935
   111  H   -0.002759
   112  H   -0.017000
   113  H   -0.011419
   114  H   -0.012730
   115  H   -0.007023
   116  H   -0.003078
   117  H   -0.004431
   118  H   -0.005302
   119  H    0.004067
   120  H   -0.005248
   121  H    0.031529
   122  H    0.026025
   123  H    0.027544
   124  H   -0.016950
   125  H   -0.004955
   126  H    0.011876
   127  H   -0.000502
   128  H    0.000871
   129  H    0.000697
   130  H    0.002392
   131  H    0.021499
   132  H    0.007661
   133  H    0.012900
   134  H   -0.032457
   135  H   -0.048927
   136  H   -0.028623
   137  H    0.101578
   138  H    0.248487
 Sum of Mulliken charges =  -0.00000

 Dipole moment (field-independent basis, Debye):
    X=              2.0862    Y=              4.8083    Z=              0.8118  Tot=              5.3038
 Quadrupole moment (field-independent basis, Debye-Ang):
   XX=           -367.9772   YY=           -381.6060   ZZ=           -395.6198
   XY=            -26.0367   XZ=              6.6440   YZ=             -1.3785

 Normal termination of Gaussian 16 at Sat Aug 10 08:42:43 2019.
