 Gaussian 16, Revision A.03,
 Gaussian 16:  ES64L-G16RevA.03 25-Dec-2016

 --------------------------
 # td=(NStates=1) B3LYP/SVP
 --------------------------

 --
 TD
 --
 Symbolic Z-matrix:
 Charge =  0 Multiplicity = 1

                         Standard orientation:
 ---------------------------------------------------------------------
 Center     Atomic      Atomic             Coordinates (Angstroms)
 Number     Number       Type             X           Y           Z
 ---------------------------------------------------------------------
      1          6           0       -5.108620   -1.895422    0.278741
      2          6           0       -4.532427    2.780736    1.300849
      3          6           0       -9.205512    3.434512   -0.124767
      4          6           0       -9.936862   -1.295625   -0.905433
      5          7           0       -5.108452    0.509219    0.718556
      6          6           0       -4.507964   -0.654181    0.689095
      7          6           0       -3.082744   -0.630959    1.117004
      8          6           0       -2.981631    0.823751    1.812063
      9          6           0       -4.313802    1.420745    1.243050
     10          6           0       -3.061797    0.761557    3.344669
     11          6           0       -2.060363   -0.882228    0.051493
     12          6           0       -0.585181   -0.887625    0.561421
     13          6           0        0.390457   -1.248165   -0.410245
     14          8           0        0.062733   -1.548631   -1.614787
     15          8           0        1.723140   -1.076972   -0.063521
     16          7           0       -6.890004    2.781209    0.328170
     17          6           0       -5.740276    3.396144    0.895436
     18          6           0       -6.025546    4.812502    1.087334
     19          6           0       -7.283342    5.035742    0.529208
     20          6           0       -7.838191    3.697733    0.187419
     21          6           0       -5.058461    5.805891    1.746201
     22          6           0       -7.806343    6.342907    0.257298
     23          6           0       -8.833589    6.746350   -0.536328
     24          7           0       -9.109287    0.991809   -0.443378
     25          6           0       -9.766287    2.187426   -0.488823
     26          6           0      -11.242246    2.058252   -0.840808
     27          6           0      -11.379975    0.727588   -1.158935
     28          6           0      -10.134212    0.052948   -0.846924
     29          6           0      -12.154706    3.157377   -0.838683
     30          6           0      -12.583634    0.045413   -1.791967
     31          6           0      -12.508629   -0.236631   -3.196877
     32          7           0       -7.610184   -1.189528   -0.307300
     33          6           0       -8.649253   -1.951922   -0.606671
     34          6           0       -8.241085   -3.326321   -0.723847
     35          6           0       -7.016160   -3.376149   -0.372200
     36          6           0       -6.442206   -2.054622   -0.015912
     37          6           0       -9.305773   -4.344720   -1.028590
     38          6           0       -5.900365   -4.279140   -0.036616
     39          8           0       -5.823801   -5.543568   -0.075335
     40          6           0       -4.554420   -3.311491    0.411352
     41          6           0       -4.030726   -3.871655    1.709077
     42          8           0       -4.344219   -3.387298    2.761793
     43          8           0       -3.128186   -4.872549    1.513763
     44          6           0       -2.635874   -5.502812    2.725693
     45          6           0        2.709113   -1.353945   -1.079151
     46          6           0        3.936035   -1.033799   -0.469699
     47          6           0        4.929073   -0.302886   -1.136202
     48          6           0        4.920049    0.225039   -2.565049
     49          6           0        6.232228   -0.073450   -0.294917
     50          6           0        7.567781   -0.635241   -0.939754
     51          6           0        8.642472   -0.384250   -0.062983
     52          6           0       10.012863   -1.038387   -0.634304
     53          6           0       10.040032   -2.438993   -0.797870
     54          6           0       11.218132   -0.405983    0.121316
     55          6           0       12.610786   -0.668386   -0.530056
     56          6           0       13.817583   -0.095634    0.269842
     57          6           0       15.188411   -0.204665   -0.278772
     58          6           0       15.824334   -1.553248   -0.211606
     59          6           0       16.122950    0.852663    0.510425
     60          6           0       17.459482    0.917399   -0.090465
     61          6           0       18.491745    1.923901    0.533158
     62          6           0       19.921861    1.914993    0.006738
     63          6           0       19.983559    2.387977   -1.535202
     64          6           0       20.822784    2.813296    0.808386
     65          1           0       -3.596894    3.465201    1.395142
     66          1           0       -9.707882    4.336971   -0.009379
     67          1           0      -10.778693   -2.034784   -1.247256
     68          1           0       -2.927468   -1.489061    1.767296
     69          1           0       -2.128412    1.445882    1.301256
     70          1           0       -2.142742    0.218494    4.004390
     71          1           0       -2.986847    1.779729    3.843438
     72          1           0       -3.855099    0.335746    3.714462
     73          1           0       -2.258821   -1.917517   -0.273407
     74          1           0       -2.053823   -0.230228   -0.898421
     75          1           0       -0.339491    0.116635    1.011337
     76          1           0       -0.349828   -1.428214    1.489575
     77          1           0       -4.233436    5.621596    1.109327
     78          1           0       -5.234334    6.872870    1.876171
     79          1           0       -4.767734    5.385921    2.624349
     80          1           0       -7.533904    7.320566    0.648855
     81          1           0       -9.400610    5.989741   -1.123138
     82          1           0       -9.199214    7.807568   -0.424811
     83          1           0      -12.220908    3.770495    0.102887
     84          1           0      -11.881654    3.710677   -1.804377
     85          1           0      -13.250563    2.826998   -0.938934
     86          1           0      -12.799518   -0.834014   -1.216585
     87          1           0      -13.323105    0.865803   -1.753447
     88          1           0      -12.242175    0.747860   -3.759391
     89          1           0      -11.728745   -0.897099   -3.449701
     90          1           0      -13.431309   -0.621658   -3.578970
     91          1           0      -10.188704   -4.242743   -0.300147
     92          1           0       -9.507743   -4.664510   -2.048094
     93          1           0       -8.785254   -5.458780   -0.722240
     94          1           0       -3.863377   -3.716779   -0.451638
     95          1           0       -1.721833   -6.088738    2.512460
     96          1           0       -2.328492   -4.537462    3.491704
     97          1           0       -3.475178   -6.067560    3.242658
     98          1           0        2.570750   -2.402800   -1.527572
     99          1           0        2.621436   -0.689312   -2.035861
    100          1           0        4.188006   -1.458034    0.461947
    101          1           0        5.105743    1.211824   -2.646659
    102          1           0        5.676366   -0.244450   -3.165955
    103          1           0        4.038758   -0.148593   -3.098001
    104          1           0        6.454832    0.947460   -0.208583
    105          1           0        6.244717   -0.216656    0.848448
    106          1           0        7.353363   -1.765433   -1.101252
    107          1           0        7.634896   -0.410248   -1.911127
    108          1           0        8.632800    0.626317    0.406615
    109          1           0        8.372861   -0.944061    0.830900
    110          1           0       10.431741   -0.617695   -1.701568
    111          1           0        9.142654   -2.797193   -1.356638
    112          1           0       11.021054   -2.784929   -1.328856
    113          1           0        9.974696   -2.853072    0.349593
    114          1           0       11.299528    0.619517    0.232213
    115          1           0       11.251158   -0.811195    0.994262
    116          1           0       12.807597   -1.659469   -0.657874
    117          1           0       12.626404   -0.208586   -1.444068
    118          1           0       13.782324    1.030144    0.373242
    119          1           0       13.912492   -0.450111    1.393309
    120          1           0       15.248237   -0.035285   -1.468496
    121          1           0       14.947246   -2.463223   -0.575482
    122          1           0       16.738784   -1.725985   -0.907670
    123          1           0       15.960445   -1.975261    0.844780
    124          1           0       15.548952    1.709685    0.299250
    125          1           0       15.931308    0.595361    1.731182
    126          1           0       17.728324   -0.111359   -0.273488
    127          1           0       17.185641    1.526715   -0.881070
    128          1           0       17.880802    2.870579    0.401423
    129          1           0       18.588953    1.483755    1.544059
    130          1           0       20.424311    1.005433    0.012365
    131          1           0       19.397307    3.431740   -1.476839
    132          1           0       20.954868    2.232334   -1.977814
    133          1           0       19.249976    1.839990   -2.060193
    134          1           0       20.970193    2.291912    1.905439
    135          1           0       21.675706    2.982197    0.123256
    136          1           0       20.463207    3.750792    0.824687
    137          1           0       -6.997461    1.864476    0.170508
    138          1           0       -7.690205   -0.159561   -0.211062
 ---------------------------------------------------------------------

 SCF Done:  E(RB3LYP) =  -2733.01839935     A.U. after   17 cycles

 Excitation energies and oscillator strengths:

 Excited State   1:      Singlet-A      1.9507 eV  635.59 nm  f=0.2618  <S**2>=0.000
     235 -> 238       -0.25251
     236 -> 237        0.65031
 This state for optimization and/or second-order correction.
 Total Energy, E(TD-HF/TD-DFT) =  -2732.94671225
 Copying the excited state density for this state as the 1-particle RhoCI density.

 The electronic state is 1-A.
 Alpha  occ. eigenvalues --  -19.18108 -19.17574 -19.12725 -19.12427 -19.11546
 Alpha  occ. eigenvalues --  -14.37321 -14.36595 -14.32569 -14.30864 -10.31689
 Alpha  occ. eigenvalues --  -10.31447 -10.28960 -10.26260 -10.24479 -10.24382
 Alpha  occ. eigenvalues --  -10.24199 -10.23991 -10.23451 -10.23201 -10.22698
 Alpha  occ. eigenvalues --  -10.22587 -10.22311 -10.21669 -10.21663 -10.21319
 Alpha  occ. eigenvalues --  -10.21315 -10.21119 -10.21118 -10.20907 -10.20856
 Alpha  occ. eigenvalues --  -10.20710 -10.20558 -10.20420 -10.20210 -10.20180
 Alpha  occ. eigenvalues --  -10.20032 -10.20016 -10.19726 -10.19670 -10.19568
 Alpha  occ. eigenvalues --  -10.19558 -10.19480 -10.19461 -10.19415 -10.19400
 Alpha  occ. eigenvalues --  -10.19368 -10.19159 -10.18909 -10.18825 -10.18766
 Alpha  occ. eigenvalues --  -10.18743 -10.18676 -10.18604 -10.18504 -10.18408
 Alpha  occ. eigenvalues --  -10.18192 -10.18145 -10.18001 -10.17538 -10.17506
 Alpha  occ. eigenvalues --  -10.17389 -10.16830 -10.16692 -10.15924  -1.09000
 Alpha  occ. eigenvalues --   -1.07013  -1.01041  -0.99893  -0.99070  -0.97532
 Alpha  occ. eigenvalues --   -0.97181  -0.96419  -0.92013  -0.84495  -0.83063
 Alpha  occ. eigenvalues --   -0.82588  -0.82391  -0.81863  -0.81421  -0.80937
 Alpha  occ. eigenvalues --   -0.80800  -0.80344  -0.80117  -0.78709  -0.78402
 Alpha  occ. eigenvalues --   -0.77337  -0.76791  -0.75998  -0.75816  -0.75101
 Alpha  occ. eigenvalues --   -0.74094  -0.73331  -0.72948  -0.72725  -0.72243
 Alpha  occ. eigenvalues --   -0.70881  -0.69415  -0.68663  -0.68292  -0.67306
 Alpha  occ. eigenvalues --   -0.67219  -0.67102  -0.66525  -0.66027  -0.64877
 Alpha  occ. eigenvalues --   -0.64024  -0.63304  -0.62878  -0.61878  -0.61585
 Alpha  occ. eigenvalues --   -0.61514  -0.59742  -0.58637  -0.58110  -0.57850
 Alpha  occ. eigenvalues --   -0.57427  -0.56715  -0.55780  -0.55550  -0.55315
 Alpha  occ. eigenvalues --   -0.55085  -0.54860  -0.53936  -0.53606  -0.53092
 Alpha  occ. eigenvalues --   -0.52500  -0.51956  -0.51364  -0.51109  -0.49828
 Alpha  occ. eigenvalues --   -0.49451  -0.49336  -0.49093  -0.48836  -0.48715
 Alpha  occ. eigenvalues --   -0.48544  -0.48083  -0.47690  -0.47304  -0.46989
 Alpha  occ. eigenvalues --   -0.46716  -0.46653  -0.46457  -0.46328  -0.46215
 Alpha  occ. eigenvalues --   -0.45841  -0.45737  -0.45267  -0.45125  -0.45032
 Alpha  occ. eigenvalues --   -0.44615  -0.44415  -0.44202  -0.44147  -0.43844
 Alpha  occ. eigenvalues --   -0.43510  -0.43422  -0.43293  -0.43058  -0.42895
 Alpha  occ. eigenvalues --   -0.42574  -0.42393  -0.42359  -0.42005  -0.41631
 Alpha  occ. eigenvalues --   -0.41528  -0.41259  -0.41022  -0.40848  -0.40723
 Alpha  occ. eigenvalues --   -0.40532  -0.40411  -0.40124  -0.39581  -0.39495
 Alpha  occ. eigenvalues --   -0.39299  -0.39166  -0.39104  -0.38827  -0.38650
 Alpha  occ. eigenvalues --   -0.38423  -0.38113  -0.37935  -0.37781  -0.37730
 Alpha  occ. eigenvalues --   -0.37492  -0.37245  -0.37111  -0.37062  -0.36728
 Alpha  occ. eigenvalues --   -0.36664  -0.36511  -0.36181  -0.36120  -0.35670
 Alpha  occ. eigenvalues --   -0.35463  -0.35401  -0.35012  -0.34715  -0.34652
 Alpha  occ. eigenvalues --   -0.34509  -0.34081  -0.33994  -0.33827  -0.33722
 Alpha  occ. eigenvalues --   -0.33576  -0.33336  -0.32809  -0.32676  -0.32482
 Alpha  occ. eigenvalues --   -0.32473  -0.32064  -0.31409  -0.31167  -0.31154
 Alpha  occ. eigenvalues --   -0.31055  -0.30756  -0.30328  -0.29735  -0.29319
 Alpha  occ. eigenvalues --   -0.29145  -0.28485  -0.28327  -0.28158  -0.27731
 Alpha  occ. eigenvalues --   -0.27566  -0.27436  -0.27040  -0.26927  -0.26639
 Alpha  occ. eigenvalues --   -0.24668  -0.23759  -0.23667  -0.22925  -0.20383
 Alpha  occ. eigenvalues --   -0.18186
 Alpha virt. eigenvalues --   -0.10416  -0.07776  -0.04924  -0.01938  -0.01724
 Alpha virt. eigenvalues --   -0.00450  -0.00418   0.00263   0.01850   0.03735
 Alpha virt. eigenvalues --    0.03798   0.04283   0.04501   0.04617   0.05088

 Mulliken charges:
               1
     1  C    0.055852
     2  C   -0.099071
     3  C   -0.045516
     4  C   -0.131732
     5  N   -0.087684
     6  C   -0.058753
     7  C   -0.009384
     8  C   -0.046747
     9  C   -0.043927
    10  C    0.092618
    11  C    0.057544
    12  C    0.033134
    13  C    0.216319
    14  O   -0.305796
    15  O   -0.334883
    16  N    0.038580
    17  C    0.106618
    18  C   -0.170391
    19  C    0.087690
    20  C    0.005095
    21  C    0.213192
    22  C   -0.075923
    23  C   -0.094238
    24  N   -0.308589
    25  C    0.124314
    26  C   -0.130530
    27  C   -0.124527
    28  C    0.154024
    29  C    0.049134
    30  C    0.129693
    31  C    0.043716
    32  N   -0.087065
    33  C    0.001753
    34  C   -0.143960
    35  C    0.093255
    36  C    0.074233
    37  C    0.009978
    38  C    0.080166
    39  O   -0.214328
    40  C   -0.123706
    41  C    0.224989
    42  O   -0.216673
    43  O   -0.309106
    44  C    0.118725
    45  C    0.257994
    46  C   -0.055886
    47  C   -0.143949
    48  C    0.156059
    49  C    0.049547
    50  C    0.038654
    51  C    0.087169
    52  C   -0.112853
    53  C    0.005301
    54  C    0.161687
    55  C    0.117169
    56  C    0.008800
    57  C   -0.150191
    58  C   -0.059620
    59  C    0.000033
    60  C    0.085758
    61  C    0.044616
    62  C   -0.095124
    63  C    0.001776
    64  C    0.103569
    65  H    0.021736
    66  H   -0.058227
    67  H    0.016640
    68  H   -0.009823
    69  H    0.022248
    70  H    0.017896
    71  H    0.009512
    72  H   -0.013384
    73  H    0.015008
    74  H    0.029001
    75  H    0.030031
    76  H    0.017313
    77  H    0.008405
    78  H    0.027050
    79  H   -0.008591
    80  H   -0.011920
    81  H    0.019790
    82  H    0.034164
    83  H    0.043071
    84  H    0.046280
    85  H    0.018787
    86  H   -0.002047
    87  H   -0.018423
    88  H    0.006383
    89  H   -0.009414
    90  H    0.007853
    91  H    0.058082
    92  H    0.038951
    93  H    0.038054
    94  H    0.085516
    95  H    0.052566
    96  H    0.048881
    97  H    0.057757
    98  H    0.036041
    99  H    0.025947
   100  H   -0.023828
   101  H   -0.000016
   102  H    0.010329
   103  H    0.000388
   104  H   -0.030338
   105  H   -0.006748
   106  H   -0.004324
   107  H   -0.048494
   108  H   -0.006847
   109  H   -0.023308
   110  H   -0.009485
   111  H    0.022687
   112  H    0.037963
   113  H    0.007889
   114  H   -0.029617
   115  H   -0.077677
   116  H   -0.035519
   117  H   -0.036963
   118  H   -0.013896
   119  H    0.000622
   120  H    0.002382
   121  H    0.003171
   122  H    0.048536
   123  H    0.013973
   124  H   -0.027927
   125  H    0.007165
   126  H   -0.007766
   127  H   -0.029301
   128  H    0.004274
   129  H   -0.006952
   130  H   -0.025617
   131  H    0.008790
   132  H    0.024229
   133  H   -0.009035
   134  H    0.031787
   135  H   -0.010740
   136  H   -0.041247
   137  H    0.074509
   138  H    0.157211
 Sum of Mulliken charges =  -0.00000

 Dipole moment (field-independent basis, Debye):
    X=              1.4327    Y=              4.6120    Z=              0.6542  Tot=              4.8735
 Quadrupole moment (field-independent basis, Debye-Ang):
   XX=           -353.8664   YY=           -384.6527   ZZ=           -394.7676
   XY=            -26.2772   XZ=             -1.2953   YZ=              0.1918

 Normal termination of Gaussian 16 at Sun Aug 11 09:02:01 2019.
