 Gaussian 16, Revision A.03,
 Gaussian 16:  ES64L-G16RevA.03 25-Dec-2016

 --------------------------
 # td=(NStates=1) B3LYP/SVP
 --------------------------

 --
 TD
 --
 Symbolic Z-matrix:
 Charge =  0 Multiplicity = 1

                         Standard orientation:
 ---------------------------------------------------------------------
 Center     Atomic      Atomic             Coordinates (Angstroms)
 Number     Number       Type             X           Y           Z
 ---------------------------------------------------------------------
      1          6           0       -5.141807   -1.878491    0.430874
      2          6           0       -4.708782    2.769108    1.399657
      3          6           0       -9.253145    3.241920   -0.179399
      4          6           0       -9.889906   -1.497408   -1.035597
      5          7           0       -5.197672    0.520865    0.823187
      6          6           0       -4.551928   -0.671699    0.744198
      7          6           0       -3.131277   -0.557605    1.226962
      8          6           0       -3.023093    0.856010    1.850134
      9          6           0       -4.387814    1.430464    1.277400
     10          6           0       -3.017250    0.867225    3.420476
     11          6           0       -2.056544   -0.746430    0.081058
     12          6           0       -0.634489   -0.729414    0.494359
     13          6           0        0.396316   -0.901417   -0.620852
     14          8           0        0.124738   -1.296492   -1.725717
     15          8           0        1.658938   -0.785396   -0.243542
     16          7           0       -6.992784    2.755775    0.360615
     17          6           0       -5.925433    3.430480    1.053906
     18          6           0       -6.190387    4.800788    1.037483
     19          6           0       -7.499359    4.913104    0.540452
     20          6           0       -8.030710    3.676594    0.099803
     21          6           0       -5.201103    5.802509    1.599589
     22          6           0       -8.189276    6.168270    0.387936
     23          6           0       -9.133494    6.386102   -0.518391
     24          7           0       -9.197816    0.823711   -0.513236
     25          6           0       -9.850190    2.004095   -0.563109
     26          6           0      -11.290594    1.866279   -0.930640
     27          6           0      -11.420146    0.486400   -1.236897
     28          6           0      -10.143332   -0.132446   -0.900474
     29          6           0      -12.237500    2.993682   -1.056034
     30          6           0      -12.601352   -0.110501   -1.620625
     31          6           0      -12.798547   -0.599504   -3.145046
     32          7           0       -7.508112   -1.227688   -0.461325
     33          6           0       -8.621667   -2.032569   -0.638772
     34          6           0       -8.209205   -3.389290   -0.674675
     35          6           0       -6.793732   -3.399478   -0.251239
     36          6           0       -6.447620   -2.032524    0.006421
     37          6           0       -9.029703   -4.493536   -1.123165
     38          6           0       -5.724648   -4.285761    0.065517
     39          8           0       -5.659817   -5.512624   -0.008239
     40          6           0       -4.550064   -3.351156    0.407909
     41          6           0       -3.955426   -3.804082    1.760341
     42          8           0       -4.213694   -3.194670    2.782541
     43          8           0       -3.038191   -4.792670    1.648538
     44          6           0       -2.595823   -5.390675    2.787740
     45          6           0        2.687165   -1.038407   -1.174032
     46          6           0        3.955272   -0.745953   -0.519307
     47          6           0        4.993290    0.050873   -1.054070
     48          6           0        4.899557    0.728963   -2.387623
     49          6           0        6.253831    0.189884   -0.281170
     50          6           0        7.566402   -0.615594   -0.824421
     51          6           0        8.737440   -0.196330   -0.033117
     52          6           0       10.116281   -0.652535   -0.773392
     53          6           0       10.101467   -2.138869   -0.979746
     54          6           0       11.300552   -0.259745    0.158192
     55          6           0       12.739211   -0.536808   -0.472589
     56          6           0       13.936588    0.062074    0.293174
     57          6           0       15.285507   -0.385887   -0.261060
     58          6           0       15.682211   -1.818939   -0.087213
     59          6           0       16.284439    0.602941    0.299472
     60          6           0       17.769416    0.496806   -0.249364
     61          6           0       18.593496    1.542999    0.502385
     62          6           0       20.060410    1.752541    0.043302
     63          6           0       20.118234    1.890277   -1.510167
     64          6           0       20.708026    2.883687    0.890328
     65          1           0       -4.059580    3.361593    1.896105
     66          1           0      -10.034626    3.904980   -0.300751
     67          1           0      -10.750133   -2.116863   -1.370755
     68          1           0       -2.929173   -1.494681    1.865099
     69          1           0       -2.035029    1.309514    1.528686
     70          1           0       -2.294817   -0.035197    3.643509
     71          1           0       -2.709983    1.839906    3.850886
     72          1           0       -4.082570    0.529961    3.727383
     73          1           0       -2.230463   -1.508307   -0.683086
     74          1           0       -2.272045    0.216257   -0.575662
     75          1           0       -0.548106    0.285042    1.007655
     76          1           0       -0.530378   -1.425296    1.264873
     77          1           0       -4.370034    6.018194    0.748168
     78          1           0       -5.526064    6.788457    1.817804
     79          1           0       -4.744117    5.323260    2.544379
     80          1           0       -7.877479    7.037668    0.935758
     81          1           0       -9.486695    5.778268   -1.268319
     82          1           0       -9.605478    7.490715   -0.395611
     83          1           0      -12.341941    3.638734   -0.168711
     84          1           0      -11.932647    3.733228   -1.948867
     85          1           0      -13.307325    2.758352   -1.330905
     86          1           0      -12.608414   -1.073844   -1.039941
     87          1           0      -13.527423    0.296645   -1.363745
     88          1           0      -12.764394    0.304674   -3.775514
     89          1           0      -11.937412   -1.029952   -3.460416
     90          1           0      -13.653656   -1.240201   -3.086421
     91          1           0      -10.024884   -4.841436   -0.396155
     92          1           0       -9.483925   -4.334964   -2.051499
     93          1           0       -8.337424   -5.325709   -0.869247
     94          1           0       -3.674796   -3.485443   -0.416936
     95          1           0       -1.506315   -5.907349    2.572706
     96          1           0       -2.364102   -4.728897    3.671189
     97          1           0       -3.332996   -6.409548    3.119265
     98          1           0        2.802544   -2.068621   -1.644509
     99          1           0        2.528757   -0.417698   -2.048783
    100          1           0        4.129564   -1.137425    0.274269
    101          1           0        5.481173    1.703720   -2.330900
    102          1           0        5.480353    0.333625   -3.111810
    103          1           0        3.800845    0.772906   -2.478527
    104          1           0        6.549923    1.343395   -0.084382
    105          1           0        6.254388   -0.009608    0.805175
    106          1           0        7.155096   -1.636492   -0.890861
    107          1           0        7.824191   -0.233376   -1.803855
    108          1           0        8.775857    0.939835    0.302292
    109          1           0        8.759881   -0.677519    0.989454
    110          1           0       10.195955   -0.159234   -1.604024
    111          1           0        9.083835   -2.421864   -1.474387
    112          1           0       10.732289   -2.667587   -1.646949
    113          1           0       10.419989   -2.564361   -0.084608
    114          1           0       11.120933    0.837248    0.591000
    115          1           0       11.546584   -0.803926    1.177459
    116          1           0       12.732036   -1.569962   -0.449696
    117          1           0       12.795253   -0.330401   -1.563290
    118          1           0       13.961509    1.136046    0.308142
    119          1           0       13.868659   -0.373043    1.132106
    120          1           0       15.384161   -0.197457   -1.469851
    121          1           0       14.846719   -2.511789   -0.368953
    122          1           0       16.577321   -1.925997   -0.747676
    123          1           0       16.004132   -1.951274    0.928409
    124          1           0       15.959419    1.729743    0.203805
    125          1           0       16.278938    0.695995    1.555187
    126          1           0       18.071399   -0.477571   -0.202245
    127          1           0       17.612518    0.878208   -1.297098
    128          1           0       18.219231    2.498609    0.509057
    129          1           0       18.559633    1.259226    1.489388
    130          1           0       20.404006    0.627555    0.289881
    131          1           0       19.326773    2.814533   -1.954210
    132          1           0       21.200818    2.073762   -1.888663
    133          1           0       19.759246    1.018385   -2.302259
    134          1           0       20.570450    3.044553    2.236915
    135          1           0       21.817723    2.819414    0.758250
    136          1           0       20.419640    3.838002    0.388803
    137          1           0       -6.975152    1.711902    0.456884
    138          1           0       -7.551865   -0.059157   -0.274476
 ---------------------------------------------------------------------

 SCF Done:  E(RB3LYP) =  -2733.01937689     A.U. after   17 cycles

 Excitation energies and oscillator strengths:

 Excited State   1:      Singlet-A      2.0362 eV  608.90 nm  f=0.1742  <S**2>=0.000
     235 -> 237       -0.16182
     235 -> 238       -0.29728
     236 -> 237        0.60970
     236 -> 238       -0.10648
 This state for optimization and/or second-order correction.
 Total Energy, E(TD-HF/TD-DFT) =  -2732.94454754
 Copying the excited state density for this state as the 1-particle RhoCI density.

 The electronic state is 1-A.
 Alpha  occ. eigenvalues --  -19.19180 -19.18152 -19.12974 -19.12049 -19.11406
 Alpha  occ. eigenvalues --  -14.36660 -14.35865 -14.32537 -14.30540 -10.32506
 Alpha  occ. eigenvalues --  -10.31689 -10.27114 -10.26933 -10.24764 -10.23733
 Alpha  occ. eigenvalues --  -10.23530 -10.23197 -10.23093 -10.23027 -10.23022
 Alpha  occ. eigenvalues --  -10.22786 -10.21979 -10.21847 -10.21648 -10.21586
 Alpha  occ. eigenvalues --  -10.21227 -10.21202 -10.21041 -10.20917 -10.20859
 Alpha  occ. eigenvalues --  -10.20727 -10.20723 -10.20614 -10.20559 -10.20384
 Alpha  occ. eigenvalues --  -10.20380 -10.20341 -10.20336 -10.19928 -10.19849
 Alpha  occ. eigenvalues --  -10.19681 -10.19633 -10.19598 -10.19567 -10.19479
 Alpha  occ. eigenvalues --  -10.19455 -10.19378 -10.19090 -10.19016 -10.18956
 Alpha  occ. eigenvalues --  -10.18810 -10.18633 -10.18506 -10.18506 -10.18492
 Alpha  occ. eigenvalues --  -10.18394 -10.17965 -10.17935 -10.17666 -10.17373
 Alpha  occ. eigenvalues --  -10.17201 -10.17055 -10.16178 -10.16149  -1.11117
 Alpha  occ. eigenvalues --   -1.11098  -1.01802  -1.01176  -1.00941  -0.96654
 Alpha  occ. eigenvalues --   -0.96025  -0.95477  -0.92957  -0.84772  -0.82538
 Alpha  occ. eigenvalues --   -0.82176  -0.82057  -0.81731  -0.81402  -0.80843
 Alpha  occ. eigenvalues --   -0.80581  -0.79778  -0.79537  -0.78858  -0.77593
 Alpha  occ. eigenvalues --   -0.77103  -0.76211  -0.75679  -0.75012  -0.74761
 Alpha  occ. eigenvalues --   -0.73889  -0.73661  -0.73230  -0.72078  -0.70815
 Alpha  occ. eigenvalues --   -0.69905  -0.69684  -0.68560  -0.68295  -0.67711
 Alpha  occ. eigenvalues --   -0.67440  -0.66124  -0.65841  -0.65679  -0.65244
 Alpha  occ. eigenvalues --   -0.64247  -0.63136  -0.62735  -0.62141  -0.61301
 Alpha  occ. eigenvalues --   -0.60827  -0.59340  -0.58209  -0.58078  -0.57542
 Alpha  occ. eigenvalues --   -0.57441  -0.56856  -0.56604  -0.56168  -0.55748
 Alpha  occ. eigenvalues --   -0.54735  -0.54459  -0.54223  -0.53669  -0.53242
 Alpha  occ. eigenvalues --   -0.53035  -0.52670  -0.51893  -0.51000  -0.50719
 Alpha  occ. eigenvalues --   -0.50397  -0.49865  -0.49221  -0.49066  -0.48443
 Alpha  occ. eigenvalues --   -0.48097  -0.47923  -0.47688  -0.47546  -0.47430
 Alpha  occ. eigenvalues --   -0.47143  -0.46859  -0.46319  -0.46234  -0.45706
 Alpha  occ. eigenvalues --   -0.45551  -0.45378  -0.45249  -0.45062  -0.44893
 Alpha  occ. eigenvalues --   -0.44561  -0.44392  -0.44280  -0.43675  -0.43408
 Alpha  occ. eigenvalues --   -0.43386  -0.42979  -0.42941  -0.42801  -0.42583
 Alpha  occ. eigenvalues --   -0.42276  -0.42203  -0.42090  -0.41822  -0.41656
 Alpha  occ. eigenvalues --   -0.41420  -0.41287  -0.41071  -0.40629  -0.40422
 Alpha  occ. eigenvalues --   -0.40208  -0.40170  -0.39702  -0.39448  -0.39364
 Alpha  occ. eigenvalues --   -0.39282  -0.38970  -0.38771  -0.38651  -0.38423
 Alpha  occ. eigenvalues --   -0.38319  -0.38073  -0.37749  -0.37622  -0.37346
 Alpha  occ. eigenvalues --   -0.37154  -0.37060  -0.36932  -0.36917  -0.36592
 Alpha  occ. eigenvalues --   -0.36441  -0.36418  -0.36223  -0.36094  -0.35635
 Alpha  occ. eigenvalues --   -0.35393  -0.35175  -0.35077  -0.34676  -0.34504
 Alpha  occ. eigenvalues --   -0.34436  -0.34370  -0.34155  -0.34090  -0.33982
 Alpha  occ. eigenvalues --   -0.33545  -0.33277  -0.33149  -0.32910  -0.32563
 Alpha  occ. eigenvalues --   -0.32263  -0.32176  -0.31649  -0.31496  -0.31352
 Alpha  occ. eigenvalues --   -0.31205  -0.30837  -0.30671  -0.30568  -0.29945
 Alpha  occ. eigenvalues --   -0.29247  -0.28832  -0.28614  -0.28119  -0.28037
 Alpha  occ. eigenvalues --   -0.27643  -0.27513  -0.27196  -0.26401  -0.24744
 Alpha  occ. eigenvalues --   -0.24689  -0.23893  -0.23495  -0.22268  -0.20206
 Alpha  occ. eigenvalues --   -0.19259
 Alpha virt. eigenvalues --   -0.10748  -0.08273  -0.04971  -0.01731  -0.01038
 Alpha virt. eigenvalues --   -0.00826   0.00039   0.00227   0.01745   0.03184
 Alpha virt. eigenvalues --    0.03668   0.04069   0.04535   0.04556   0.04884

 Mulliken charges:
               1
     1  C   -0.018887
     2  C    0.015147
     3  C   -0.001368
     4  C   -0.111451
     5  N   -0.133741
     6  C   -0.023976
     7  C   -0.075065
     8  C   -0.061315
     9  C    0.002888
    10  C    0.024590
    11  C   -0.047271
    12  C    0.100507
    13  C    0.177364
    14  O   -0.232308
    15  O   -0.275516
    16  N   -0.171167
    17  C    0.066247
    18  C   -0.088800
    19  C    0.056987
    20  C    0.174024
    21  C    0.061898
    22  C   -0.044090
    23  C   -0.023707
    24  N   -0.252690
    25  C   -0.014773
    26  C   -0.092525
    27  C   -0.012202
    28  C    0.088086
    29  C    0.037052
    30  C   -0.026358
    31  C    0.079170
    32  N   -0.175592
    33  C    0.147133
    34  C   -0.113142
    35  C   -0.011677
    36  C    0.126116
    37  C    0.037158
    38  C    0.049686
    39  O   -0.196223
    40  C   -0.070461
    41  C    0.209730
    42  O   -0.225217
    43  O   -0.242658
    44  C    0.065378
    45  C    0.310661
    46  C    0.020962
    47  C   -0.151553
    48  C    0.142478
    49  C   -0.015326
    50  C    0.060079
    51  C   -0.030203
    52  C    0.035064
    53  C    0.052418
    54  C   -0.069329
    55  C    0.037303
    56  C    0.215505
    57  C   -0.117761
    58  C    0.063135
    59  C   -0.135392
    60  C    0.121667
    61  C    0.068106
    62  C   -0.070115
    63  C   -0.101567
    64  C   -0.028825
    65  H   -0.093841
    66  H   -0.085313
    67  H   -0.000468
    68  H    0.032950
    69  H    0.013338
    70  H    0.032882
    71  H    0.032643
    72  H    0.045133
    73  H    0.017553
    74  H    0.002048
    75  H    0.018332
    76  H    0.006261
    77  H    0.049064
    78  H    0.005283
    79  H    0.054326
    80  H   -0.016655
    81  H    0.007217
    82  H    0.033217
    83  H    0.032277
    84  H    0.036151
    85  H    0.014879
    86  H   -0.005211
    87  H   -0.019011
    88  H    0.007418
    89  H   -0.026399
    90  H    0.021984
    91  H    0.034042
    92  H    0.026086
    93  H    0.053776
    94  H    0.095690
    95  H    0.040893
    96  H    0.048733
    97  H    0.057291
    98  H    0.037652
    99  H   -0.009019
   100  H   -0.145980
   101  H   -0.000720
   102  H   -0.007123
   103  H    0.033473
   104  H    0.000599
   105  H   -0.010132
   106  H    0.031317
   107  H   -0.010902
   108  H    0.018263
   109  H   -0.005876
   110  H   -0.051127
   111  H    0.012151
   112  H   -0.008472
   113  H   -0.006991
   114  H   -0.001508
   115  H    0.003766
   116  H   -0.039361
   117  H   -0.017603
   118  H   -0.009568
   119  H   -0.082572
   120  H   -0.007063
   121  H    0.019220
   122  H    0.018313
   123  H   -0.000013
   124  H    0.001468
   125  H   -0.012548
   126  H   -0.021371
   127  H    0.003144
   128  H   -0.043487
   129  H   -0.035499
   130  H    0.007992
   131  H    0.020721
   132  H    0.029057
   133  H    0.047311
   134  H    0.046006
   135  H    0.020602
   136  H    0.023470
   137  H    0.155619
   138  H    0.239939
 Sum of Mulliken charges =  -0.00000

 Dipole moment (field-independent basis, Debye):
    X=              1.6136    Y=              4.9475    Z=              0.7478  Tot=              5.2574
 Quadrupole moment (field-independent basis, Debye-Ang):
   XX=           -335.0842   YY=           -385.9907   ZZ=           -395.6919
   XY=            -33.5985   XZ=              6.3249   YZ=              2.1891

 Normal termination of Gaussian 16 at Sun Aug 11 09:39:45 2019.
