 Gaussian 16, Revision A.03,
 Gaussian 16:  ES64L-G16RevA.03 25-Dec-2016

 --------------------------
 # td=(NStates=1) B3LYP/SVP
 --------------------------

 --
 TD
 --
 Symbolic Z-matrix:
 Charge =  0 Multiplicity = 1

                         Standard orientation:
 ---------------------------------------------------------------------
 Center     Atomic      Atomic             Coordinates (Angstroms)
 Number     Number       Type             X           Y           Z
 ---------------------------------------------------------------------
      1          6           0       -5.182580   -1.980721    0.508048
      2          6           0       -4.615535    2.771830    1.375715
      3          6           0       -9.122135    3.509250   -0.247745
      4          6           0       -9.857826   -1.327440   -0.869110
      5          7           0       -5.212898    0.389808    0.916451
      6          6           0       -4.545603   -0.786045    0.830856
      7          6           0       -3.138003   -0.692436    1.358291
      8          6           0       -2.985297    0.863140    1.824585
      9          6           0       -4.281477    1.457183    1.284259
     10          6           0       -2.915144    0.926232    3.374875
     11          6           0       -2.085276   -0.975671    0.287441
     12          6           0       -0.620629   -1.022818    0.563288
     13          6           0        0.307889   -1.297274   -0.643720
     14          8           0       -0.021367   -1.834303   -1.642582
     15          8           0        1.621483   -1.083366   -0.263206
     16          7           0       -6.831717    2.856767    0.449899
     17          6           0       -5.753469    3.448357    0.931451
     18          6           0       -6.044469    4.859706    0.944592
     19          6           0       -7.267941    5.069907    0.479318
     20          6           0       -7.889612    3.731146    0.187009
     21          6           0       -4.980698    5.923332    1.397130
     22          6           0       -7.928338    6.322106    0.362945
     23          6           0       -8.817112    6.833905   -0.565159
     24          7           0       -9.217332    1.035262   -0.420553
     25          6           0       -9.778255    2.235535   -0.478957
     26          6           0      -11.172494    2.166631   -0.881969
     27          6           0      -11.408232    0.752768   -1.076861
     28          6           0      -10.096606    0.083788   -0.797735
     29          6           0      -12.201290    3.258682   -0.935342
     30          6           0      -12.610395    0.050694   -1.613414
     31          6           0      -12.637242   -0.191058   -3.153727
     32          7           0       -7.576184   -1.263854   -0.173667
     33          6           0       -8.639313   -1.882765   -0.601329
     34          6           0       -8.308845   -3.325182   -0.571885
     35          6           0       -7.001692   -3.338311   -0.250815
     36          6           0       -6.492646   -1.973352    0.059719
     37          6           0       -9.280053   -4.432884   -1.022246
     38          6           0       -5.949715   -4.292530    0.029832
     39          8           0       -5.881608   -5.484192   -0.026698
     40          6           0       -4.611418   -3.425593    0.488638
     41          6           0       -3.960444   -3.914730    1.739369
     42          8           0       -4.219393   -3.646875    2.798632
     43          8           0       -3.158828   -4.967584    1.416252
     44          6           0       -2.712214   -5.675353    2.624358
     45          6           0        2.564379   -1.441196   -1.302990
     46          6           0        3.941316   -1.155999   -0.683539
     47          6           0        4.930743   -0.319155   -1.234802
     48          6           0        4.777428    0.485517   -2.481538
     49          6           0        6.176336   -0.099595   -0.390114
     50          6           0        7.490321   -0.636020   -1.016538
     51          6           0        8.838924   -0.344782   -0.277265
     52          6           0       10.153338   -0.698735   -1.033216
     53          6           0       10.199540   -2.232770   -1.248062
     54          6           0       11.188727   -0.142508   -0.061785
     55          6           0       12.688942   -0.411880   -0.645356
     56          6           0       13.895756    0.017535    0.262622
     57          6           0       15.319365   -0.255006   -0.336824
     58          6           0       15.689671   -1.738629   -0.527253
     59          6           0       16.278521    0.539745    0.573953
     60          6           0       17.670177    0.721969   -0.116718
     61          6           0       18.483187    1.629270    0.825265
     62          6           0       19.985407    2.037308    0.276501
     63          6           0       20.111991    2.650803   -1.161770
     64          6           0       20.893790    2.668699    1.264686
     65          1           0       -3.786672    3.189296    1.916529
     66          1           0       -9.747799    4.363400   -0.229998
     67          1           0      -10.793387   -1.929554   -1.153504
     68          1           0       -3.080168   -1.329193    2.185552
     69          1           0       -2.255225    1.298184    1.133975
     70          1           0       -1.969739    0.553040    3.907315
     71          1           0       -2.938779    2.044315    3.824170
     72          1           0       -3.702082    0.244751    3.755227
     73          1           0       -2.070551   -2.050913   -0.001545
     74          1           0       -2.186979   -0.278408   -0.920568
     75          1           0       -0.251557    0.059521    0.858434
     76          1           0       -0.419118   -1.516305    1.382390
     77          1           0       -4.271635    5.850804    0.336059
     78          1           0       -5.393586    6.976321    1.347633
     79          1           0       -4.554330    5.702162    2.292966
     80          1           0       -7.824500    7.007983    1.080724
     81          1           0       -9.281835    6.335758   -1.437372
     82          1           0       -9.245949    7.846514   -0.312411
     83          1           0      -12.241038    3.773715    0.004717
     84          1           0      -11.980459    3.996427   -1.804814
     85          1           0      -13.215437    2.907620   -1.058750
     86          1           0      -12.976952   -0.872479   -0.979078
     87          1           0      -13.521050    0.723991   -1.360277
     88          1           0      -12.794628    0.837548   -3.727191
     89          1           0      -11.582949   -0.540880   -3.554915
     90          1           0      -13.570241   -1.175100   -3.269121
     91          1           0      -10.202390   -4.284124   -0.398037
     92          1           0       -9.680448   -4.272598   -1.982331
     93          1           0       -8.734909   -5.491270   -0.802159
     94          1           0       -3.982704   -3.746360   -0.238821
     95          1           0       -2.199759   -6.547918    2.229725
     96          1           0       -2.175943   -5.174827    3.416018
     97          1           0       -3.726624   -6.144264    3.072632
     98          1           0        2.708060   -2.524475   -1.495189
     99          1           0        2.218768   -1.126011   -2.302834
    100          1           0        4.124386   -1.664993    0.196888
    101          1           0        5.040481    1.555125   -2.395718
    102          1           0        5.459878    0.060291   -3.367425
    103          1           0        3.792666    0.483877   -3.004529
    104          1           0        6.145768    1.029307   -0.257419
    105          1           0        6.065556   -0.423105    0.650366
    106          1           0        7.392026   -1.592810   -1.152315
    107          1           0        7.583179    0.077026   -1.888395
    108          1           0        8.882733    0.720586    0.112254
    109          1           0        8.758573   -1.009186    0.598000
    110          1           0       10.275567   -0.236184   -2.073355
    111          1           0        9.166497   -2.551436   -1.589519
    112          1           0       10.999018   -2.501798   -1.976813
    113          1           0       10.189560   -2.838308   -0.435969
    114          1           0       11.154170    0.844830    0.061215
    115          1           0       11.188401   -0.697498    0.972796
    116          1           0       12.793526   -1.289942   -0.758874
    117          1           0       12.729193    0.178962   -1.668846
    118          1           0       13.992322    1.088397    0.478709
    119          1           0       13.729054   -0.576634    1.241182
    120          1           0       15.394051    0.163742   -1.477455
    121          1           0       15.057934   -2.082238   -1.491612
    122          1           0       16.658202   -2.005131   -1.233023
    123          1           0       15.766353   -2.457483    0.297975
    124          1           0       15.966092    1.466954    0.924503
    125          1           0       16.493263   -0.179862    1.413337
    126          1           0       18.123646   -0.422579   -0.293426
    127          1           0       17.543703    1.299073   -0.964731
    128          1           0       18.126744    2.596897    1.148801
    129          1           0       18.828510    1.234005    1.896141
    130          1           0       20.347633    0.891083    0.160709
    131          1           0       19.497258    3.536312   -1.027820
    132          1           0       21.043480    3.001690   -1.437674
    133          1           0       19.358696    1.938654   -1.807142
    134          1           0       20.646264    2.326164    2.113554
    135          1           0       22.080559    2.837690    1.042793
    136          1           0       20.480558    3.766300    1.438726
    137          1           0       -6.838485    1.968758    0.488817
    138          1           0       -7.622298   -0.266124   -0.075725
 ---------------------------------------------------------------------

 SCF Done:  E(RB3LYP) =  -2732.96139091     A.U. after   16 cycles

 Excitation energies and oscillator strengths:

 Excited State   1:      Singlet-A      2.1336 eV  581.10 nm  f=0.1623  <S**2>=0.000
     235 -> 237       -0.15899
     235 -> 238        0.28933
     236 -> 237        0.59896
     236 -> 238        0.15928
 This state for optimization and/or second-order correction.
 Total Energy, E(TD-HF/TD-DFT) =  -2732.88298197
 Copying the excited state density for this state as the 1-particle RhoCI density.

 The electronic state is 1-A.
 Alpha  occ. eigenvalues --  -19.17742 -19.16702 -19.13570 -19.12633 -19.12375
 Alpha  occ. eigenvalues --  -14.37465 -14.36813 -14.32305 -14.29109 -10.31907
 Alpha  occ. eigenvalues --  -10.29984 -10.27952 -10.24652 -10.24527 -10.24352
 Alpha  occ. eigenvalues --  -10.23840 -10.23674 -10.23165 -10.23049 -10.23006
 Alpha  occ. eigenvalues --  -10.21934 -10.21675 -10.21652 -10.21637 -10.21283
 Alpha  occ. eigenvalues --  -10.21262 -10.20934 -10.20916 -10.20840 -10.20828
 Alpha  occ. eigenvalues --  -10.20737 -10.20579 -10.20557 -10.20496 -10.20448
 Alpha  occ. eigenvalues --  -10.20431 -10.20286 -10.20114 -10.20107 -10.20092
 Alpha  occ. eigenvalues --  -10.20036 -10.20003 -10.19828 -10.19716 -10.19670
 Alpha  occ. eigenvalues --  -10.19479 -10.19383 -10.19248 -10.19222 -10.19046
 Alpha  occ. eigenvalues --  -10.18983 -10.18928 -10.18910 -10.18775 -10.18537
 Alpha  occ. eigenvalues --  -10.18423 -10.18269 -10.18001 -10.17820 -10.17784
 Alpha  occ. eigenvalues --  -10.17669 -10.17633 -10.17624 -10.16851  -1.11576
 Alpha  occ. eigenvalues --   -1.09621  -1.03945  -1.01860  -1.01802  -1.01610
 Alpha  occ. eigenvalues --   -1.00550  -0.93156  -0.92358  -0.84518  -0.83566
 Alpha  occ. eigenvalues --   -0.81901  -0.81541  -0.81293  -0.81052  -0.80505
 Alpha  occ. eigenvalues --   -0.80237  -0.79595  -0.78757  -0.77798  -0.77599
 Alpha  occ. eigenvalues --   -0.76672  -0.76331  -0.75814  -0.74722  -0.74302
 Alpha  occ. eigenvalues --   -0.73377  -0.72860  -0.72188  -0.71486  -0.70841
 Alpha  occ. eigenvalues --   -0.70387  -0.68798  -0.68441  -0.68056  -0.67859
 Alpha  occ. eigenvalues --   -0.67185  -0.66816  -0.66627  -0.66379  -0.65080
 Alpha  occ. eigenvalues --   -0.64544  -0.64261  -0.63552  -0.62328  -0.61031
 Alpha  occ. eigenvalues --   -0.60092  -0.59338  -0.59211  -0.58649  -0.57547
 Alpha  occ. eigenvalues --   -0.57338  -0.56764  -0.56442  -0.56030  -0.55904
 Alpha  occ. eigenvalues --   -0.55114  -0.54717  -0.54649  -0.53533  -0.53213
 Alpha  occ. eigenvalues --   -0.52728  -0.52345  -0.51987  -0.51390  -0.50627
 Alpha  occ. eigenvalues --   -0.49495  -0.49289  -0.48936  -0.48804  -0.48542
 Alpha  occ. eigenvalues --   -0.48279  -0.47958  -0.47640  -0.47454  -0.47152
 Alpha  occ. eigenvalues --   -0.47023  -0.46638  -0.46635  -0.46444  -0.46096
 Alpha  occ. eigenvalues --   -0.45595  -0.45173  -0.45080  -0.44898  -0.44510
 Alpha  occ. eigenvalues --   -0.44088  -0.44020  -0.43875  -0.43611  -0.43583
 Alpha  occ. eigenvalues --   -0.43375  -0.43153  -0.42917  -0.42821  -0.42727
 Alpha  occ. eigenvalues --   -0.42622  -0.42235  -0.42125  -0.42069  -0.41801
 Alpha  occ. eigenvalues --   -0.41487  -0.41148  -0.40901  -0.40676  -0.40405
 Alpha  occ. eigenvalues --   -0.40301  -0.40100  -0.40018  -0.39684  -0.39582
 Alpha  occ. eigenvalues --   -0.39301  -0.39053  -0.38961  -0.38795  -0.38577
 Alpha  occ. eigenvalues --   -0.38409  -0.37945  -0.37882  -0.37793  -0.37364
 Alpha  occ. eigenvalues --   -0.37296  -0.37131  -0.36962  -0.36819  -0.36740
 Alpha  occ. eigenvalues --   -0.36633  -0.36571  -0.36230  -0.35992  -0.35742
 Alpha  occ. eigenvalues --   -0.35660  -0.35491  -0.35473  -0.35247  -0.35226
 Alpha  occ. eigenvalues --   -0.35208  -0.34606  -0.34331  -0.33912  -0.33545
 Alpha  occ. eigenvalues --   -0.33223  -0.33020  -0.32855  -0.32759  -0.32487
 Alpha  occ. eigenvalues --   -0.32441  -0.31956  -0.31535  -0.30872  -0.30741
 Alpha  occ. eigenvalues --   -0.30687  -0.30638  -0.30569  -0.30496  -0.30159
 Alpha  occ. eigenvalues --   -0.29944  -0.28759  -0.28278  -0.28082  -0.27804
 Alpha  occ. eigenvalues --   -0.27221  -0.27107  -0.26604  -0.26568  -0.25115
 Alpha  occ. eigenvalues --   -0.24851  -0.24649  -0.23601  -0.21547  -0.20589
 Alpha  occ. eigenvalues --   -0.18660
 Alpha virt. eigenvalues --   -0.09637  -0.08349  -0.03922  -0.02244  -0.00601
 Alpha virt. eigenvalues --   -0.00018   0.00420   0.01122   0.02142   0.03180
 Alpha virt. eigenvalues --    0.03741   0.03752   0.04188   0.04615   0.04779

 Mulliken charges:
               1
     1  C   -0.023770
     2  C   -0.021930
     3  C   -0.075533
     4  C   -0.100632
     5  N   -0.246542
     6  C   -0.026873
     7  C    0.009175
     8  C    0.066237
     9  C   -0.097033
    10  C    0.004276
    11  C   -0.080596
    12  C    0.083279
    13  C    0.183285
    14  O   -0.189755
    15  O   -0.329623
    16  N    0.095233
    17  C    0.092841
    18  C   -0.148661
    19  C    0.124257
    20  C    0.142459
    21  C    0.086103
    22  C   -0.086031
    23  C   -0.065471
    24  N   -0.190144
    25  C    0.018602
    26  C   -0.150819
    27  C   -0.089860
    28  C   -0.002249
    29  C    0.110456
    30  C   -0.000008
    31  C   -0.074413
    32  N    0.110359
    33  C    0.068915
    34  C   -0.167045
    35  C   -0.035572
    36  C    0.089542
    37  C    0.100747
    38  C    0.056677
    39  O   -0.137598
    40  C    0.015719
    41  C    0.131457
    42  O   -0.132046
    43  O   -0.331230
    44  C    0.159518
    45  C    0.248117
    46  C   -0.062537
    47  C   -0.116820
    48  C    0.035344
    49  C    0.048371
    50  C    0.100899
    51  C   -0.005128
    52  C   -0.084925
    53  C    0.063076
    54  C    0.068888
    55  C    0.119915
    56  C    0.046429
    57  C   -0.110884
    58  C   -0.053566
    59  C    0.059591
    60  C    0.055916
    61  C   -0.041615
    62  C   -0.189499
    63  C    0.064454
    64  C    0.116082
    65  H   -0.043576
    66  H   -0.035988
    67  H    0.013197
    68  H   -0.003134
    69  H    0.002629
    70  H    0.026488
    71  H    0.032143
    72  H    0.045102
    73  H    0.027040
    74  H    0.038489
    75  H    0.014025
    76  H   -0.019705
    77  H    0.056669
    78  H    0.027224
    79  H    0.022811
    80  H   -0.031493
    81  H    0.031924
    82  H    0.031314
    83  H    0.015226
    84  H    0.026665
    85  H   -0.004356
    86  H    0.018705
    87  H    0.001690
    88  H    0.040971
    89  H    0.038037
    90  H    0.034764
    91  H    0.022755
    92  H    0.020236
    93  H    0.075556
    94  H    0.005654
    95  H    0.027948
    96  H    0.039950
    97  H    0.040115
    98  H    0.018974
    99  H    0.022724
   100  H   -0.026788
   101  H    0.020375
   102  H    0.034571
   103  H    0.009697
   104  H    0.000356
   105  H   -0.015441
   106  H   -0.036425
   107  H    0.003155
   108  H   -0.001521
   109  H   -0.013921
   110  H    0.004417
   111  H   -0.007146
   112  H    0.026905
   113  H   -0.029374
   114  H   -0.035398
   115  H    0.003899
   116  H   -0.103865
   117  H   -0.004543
   118  H   -0.008995
   119  H    0.001623
   120  H    0.002909
   121  H    0.021286
   122  H    0.014210
   123  H    0.030321
   124  H   -0.016702
   125  H   -0.000399
   126  H    0.041791
   127  H   -0.013336
   128  H   -0.009359
   129  H    0.005778
   130  H   -0.007008
   131  H   -0.017230
   132  H    0.002172
   133  H    0.027290
   134  H   -0.071345
   135  H    0.043097
   136  H   -0.019239
   137  H    0.030718
   138  H    0.124877
 Sum of Mulliken charges =  -0.00000

 Dipole moment (field-independent basis, Debye):
    X=              1.7263    Y=              4.3205    Z=              1.5619  Tot=              4.9078
 Quadrupole moment (field-independent basis, Debye-Ang):
   XX=           -392.6834   YY=           -380.1181   ZZ=           -393.9001
   XY=            -28.4689   XZ=              3.2767   YZ=             -0.6309

 Normal termination of Gaussian 16 at Fri Aug 16 07:53:28 2019.
