 Gaussian 16, Revision A.03,
 Gaussian 16:  ES64L-G16RevA.03 25-Dec-2016

 --------------------------
 # td=(NStates=1) B3LYP/SVP
 --------------------------

 --
 TD
 --
 Symbolic Z-matrix:
 Charge =  0 Multiplicity = 1

                         Standard orientation:
 ---------------------------------------------------------------------
 Center     Atomic      Atomic             Coordinates (Angstroms)
 Number     Number       Type             X           Y           Z
 ---------------------------------------------------------------------
      1          6           0       -5.076739   -2.038168    0.396860
      2          6           0       -4.785666    2.693995    1.576752
      3          6           0       -9.313873    3.368490   -0.292651
      4          6           0       -9.739887   -1.421648   -1.081097
      5          7           0       -5.177884    0.396601    0.917351
      6          6           0       -4.511478   -0.804552    0.912354
      7          6           0       -3.041866   -0.577930    1.260170
      8          6           0       -3.087765    0.799833    1.906168
      9          6           0       -4.384688    1.424764    1.552646
     10          6           0       -2.905813    0.917372    3.525484
     11          6           0       -2.141339   -0.729077    0.048857
     12          6           0       -0.609105   -0.697722    0.417355
     13          6           0        0.387961   -0.996502   -0.638493
     14          8           0        0.121017   -1.677827   -1.634017
     15          8           0        1.609247   -0.674712   -0.278196
     16          7           0       -6.970152    2.803921    0.601634
     17          6           0       -5.930978    3.447415    1.144456
     18          6           0       -6.268647    4.887861    1.040431
     19          6           0       -7.486350    5.018336    0.467538
     20          6           0       -8.005960    3.685606    0.214209
     21          6           0       -5.307698    5.981643    1.542627
     22          6           0       -8.085299    6.265756    0.239604
     23          6           0       -9.286534    6.498048   -0.482169
     24          7           0       -9.205183    0.896647   -0.496743
     25          6           0       -9.783692    2.096713   -0.657374
     26          6           0      -11.159213    1.888320   -0.960863
     27          6           0      -11.381300    0.572263   -1.380292
     28          6           0      -10.043641   -0.040340   -0.943526
     29          6           0      -12.316019    2.920772   -1.078305
     30          6           0      -12.533246   -0.192114   -1.772769
     31          6           0      -12.613014   -0.441568   -3.264347
     32          7           0       -7.420828   -1.292406   -0.238816
     33          6           0       -8.523362   -1.939787   -0.556999
     34          6           0       -8.210001   -3.375903   -0.678422
     35          6           0       -6.843109   -3.487348   -0.287362
     36          6           0       -6.345459   -2.121775   -0.009267
     37          6           0       -9.018355   -4.589726   -1.006720
     38          6           0       -5.765040   -4.341956    0.003610
     39          8           0       -5.617971   -5.555818    0.029367
     40          6           0       -4.519389   -3.438920    0.503283
     41          6           0       -3.884492   -3.765865    1.817027
     42          8           0       -4.137885   -3.347136    2.863784
     43          8           0       -3.069922   -4.841536    1.543584
     44          6           0       -2.600637   -5.614187    2.670784
     45          6           0        2.637265   -0.930686   -1.234098
     46          6           0        3.994927   -0.652532   -0.507203
     47          6           0        5.007198    0.149178   -1.037332
     48          6           0        4.886866    0.933104   -2.349399
     49          6           0        6.293138    0.276477   -0.196519
     50          6           0        7.414601   -0.515230   -0.799879
     51          6           0        8.713391   -0.349947   -0.059741
     52          6           0        9.946850   -0.749674   -0.816985
     53          6           0       10.011539   -2.260654   -1.158263
     54          6           0       11.337636   -0.381059    0.099959
     55          6           0       12.609579   -0.576423   -0.609486
     56          6           0       13.844744   -0.048894    0.200688
     57          6           0       15.150976   -0.205437   -0.418691
     58          6           0       15.719365   -1.637624   -0.525083
     59          6           0       16.193919    0.496841    0.410149
     60          6           0       17.607806    0.682327   -0.228855
     61          6           0       18.460342    1.606690    0.587109
     62          6           0       20.026053    1.691740    0.093885
     63          6           0       20.176866    2.352525   -1.371549
     64          6           0       20.979909    2.487378    1.106634
     65          1           0       -4.009033    3.460717    2.132844
     66          1           0       -9.979431    4.180461   -0.348640
     67          1           0      -10.734850   -2.002613   -1.137141
     68          1           0       -2.857308   -1.421773    2.049466
     69          1           0       -2.322448    1.462142    1.488430
     70          1           0       -1.899096    0.442145    3.768272
     71          1           0       -2.626859    1.911222    3.975571
     72          1           0       -3.807797    0.332709    3.728250
     73          1           0       -2.454446   -1.697373   -0.171195
     74          1           0       -2.376385   -0.183064   -0.756674
     75          1           0       -0.232814    0.439382    0.688657
     76          1           0       -0.526169   -1.358862    1.184581
     77          1           0       -4.317164    5.898178    0.917955
     78          1           0       -5.630298    7.026125    1.469611
     79          1           0       -4.604786    5.616449    2.432664
     80          1           0       -7.629840    7.128574    0.887678
     81          1           0       -9.506362    5.777411   -1.405198
     82          1           0       -9.586827    7.590223   -0.561463
     83          1           0      -12.549569    3.287975   -0.183141
     84          1           0      -11.782083    3.696017   -1.863286
     85          1           0      -13.376797    2.410208   -1.285139
     86          1           0      -12.478820   -1.094195   -1.171895
     87          1           0      -13.376037    0.531343   -1.544098
     88          1           0      -12.891755    0.315344   -3.993017
     89          1           0      -11.753075   -0.912578   -3.750963
     90          1           0      -13.481179   -1.115235   -3.681672
     91          1           0       -9.711642   -4.911816   -0.234303
     92          1           0       -9.400869   -4.790757   -1.868819
     93          1           0       -8.327465   -5.451262   -0.784554
     94          1           0       -3.862421   -3.361768   -0.434835
     95          1           0       -1.921455   -6.302548    2.131301
     96          1           0       -2.180022   -4.836849    3.572345
     97          1           0       -3.397090   -6.241013    3.124681
     98          1           0        2.493194   -1.978073   -1.639189
     99          1           0        2.489590   -0.384746   -1.989470
    100          1           0        3.984348   -0.977264    0.594438
    101          1           0        5.218785    1.926188   -2.109393
    102          1           0        5.462147    0.590105   -3.218608
    103          1           0        3.828442    0.977414   -2.787454
    104          1           0        6.450784    1.363716   -0.256006
    105          1           0        6.055399   -0.082858    0.855560
    106          1           0        7.145328   -1.488891   -0.853147
    107          1           0        7.673786   -0.062297   -1.605342
    108          1           0        8.688628    0.824917    0.152782
    109          1           0        8.561260   -0.921440    0.730570
    110          1           0       10.246817   -0.182845   -1.545702
    111          1           0        9.186400   -2.725770   -2.125629
    112          1           0       11.019242   -2.605316   -1.475736
    113          1           0        9.613483   -2.795418   -0.309185
    114          1           0       10.977722    0.618169    0.310867
    115          1           0       11.265597   -0.921923    1.125011
    116          1           0       12.758844   -1.675907   -0.883634
    117          1           0       12.459683   -0.048149   -1.756028
    118          1           0       13.860993    1.051988    0.255514
    119          1           0       13.608187   -0.477079    1.190296
    120          1           0       15.174753    0.075519   -1.444103
    121          1           0       14.928084   -2.190373   -1.200642
    122          1           0       16.619608   -1.691569   -1.033975
    123          1           0       15.844868   -2.318423    0.350970
    124          1           0       16.041201    1.557717    0.756812
    125          1           0       16.317888    0.006306    1.500243
    126          1           0       18.194360   -0.203742   -0.143859
    127          1           0       17.697052    0.956023   -1.214136
    128          1           0       17.922699    2.633889    0.495164
    129          1           0       18.584982    1.150907    1.660383
    130          1           0       20.199373    0.777991    0.079656
    131          1           0       19.925243    3.583322   -1.412092
    132          1           0       21.191050    2.323278   -1.598964
    133          1           0       19.594624    1.752392   -1.994758
    134          1           0       21.035796    1.950809    2.133195
    135          1           0       22.074528    2.527021    0.694786
    136          1           0       20.628421    3.471553    1.350885
    137          1           0       -7.223221    1.899218    0.550100
    138          1           0       -7.372993   -0.289588   -0.255996
 ---------------------------------------------------------------------

 SCF Done:  E(RB3LYP) =  -2732.94884490     A.U. after   17 cycles

 Excitation energies and oscillator strengths:

 Excited State   1:      Singlet-A      1.9463 eV  637.04 nm  f=0.2429  <S**2>=0.000
     235 -> 237       -0.15036
     235 -> 238       -0.25305
     236 -> 237        0.63492
 This state for optimization and/or second-order correction.
 Total Energy, E(TD-HF/TD-DFT) =  -2732.87732108
 Copying the excited state density for this state as the 1-particle RhoCI density.

 The electronic state is 1-A.
 Alpha  occ. eigenvalues --  -19.18238 -19.16861 -19.13860 -19.11945 -19.11396
 Alpha  occ. eigenvalues --  -14.37404 -14.37372 -14.32320 -14.29399 -10.31691
 Alpha  occ. eigenvalues --  -10.31052 -10.27877 -10.25483 -10.24977 -10.24358
 Alpha  occ. eigenvalues --  -10.23897 -10.23736 -10.23704 -10.23250 -10.22771
 Alpha  occ. eigenvalues --  -10.22721 -10.21982 -10.21796 -10.21344 -10.21236
 Alpha  occ. eigenvalues --  -10.21117 -10.21077 -10.21006 -10.20940 -10.20874
 Alpha  occ. eigenvalues --  -10.20803 -10.20778 -10.20496 -10.20310 -10.20262
 Alpha  occ. eigenvalues --  -10.20185 -10.20167 -10.20131 -10.20014 -10.19951
 Alpha  occ. eigenvalues --  -10.19932 -10.19840 -10.19824 -10.19607 -10.19579
 Alpha  occ. eigenvalues --  -10.19384 -10.19086 -10.19024 -10.18973 -10.18849
 Alpha  occ. eigenvalues --  -10.18729 -10.18603 -10.18599 -10.18566 -10.18469
 Alpha  occ. eigenvalues --  -10.18439 -10.18417 -10.18349 -10.18278 -10.17793
 Alpha  occ. eigenvalues --  -10.17768 -10.17618 -10.16889 -10.15855  -1.10653
 Alpha  occ. eigenvalues --   -1.10411  -1.02376  -1.01965  -0.99539  -0.99347
 Alpha  occ. eigenvalues --   -0.99052  -0.94004  -0.92596  -0.85854  -0.83381
 Alpha  occ. eigenvalues --   -0.83101  -0.82766  -0.81454  -0.80922  -0.80410
 Alpha  occ. eigenvalues --   -0.80122  -0.79721  -0.79385  -0.78793  -0.77853
 Alpha  occ. eigenvalues --   -0.76905  -0.76176  -0.75398  -0.74688  -0.74084
 Alpha  occ. eigenvalues --   -0.73615  -0.73370  -0.72557  -0.72247  -0.71154
 Alpha  occ. eigenvalues --   -0.70520  -0.69050  -0.68653  -0.68404  -0.67377
 Alpha  occ. eigenvalues --   -0.67309  -0.67179  -0.66617  -0.65647  -0.65370
 Alpha  occ. eigenvalues --   -0.64520  -0.63914  -0.63219  -0.62642  -0.62127
 Alpha  occ. eigenvalues --   -0.61744  -0.59696  -0.59173  -0.58397  -0.58067
 Alpha  occ. eigenvalues --   -0.57937  -0.57262  -0.57069  -0.56385  -0.56138
 Alpha  occ. eigenvalues --   -0.56080  -0.55593  -0.54836  -0.53179  -0.52981
 Alpha  occ. eigenvalues --   -0.52543  -0.52291  -0.51903  -0.51722  -0.51054
 Alpha  occ. eigenvalues --   -0.50655  -0.50068  -0.49393  -0.48527  -0.48231
 Alpha  occ. eigenvalues --   -0.47922  -0.47770  -0.47674  -0.47381  -0.46984
 Alpha  occ. eigenvalues --   -0.46857  -0.46636  -0.46568  -0.46216  -0.46020
 Alpha  occ. eigenvalues --   -0.45554  -0.45481  -0.45217  -0.45124  -0.44943
 Alpha  occ. eigenvalues --   -0.44803  -0.44054  -0.43941  -0.43782  -0.43724
 Alpha  occ. eigenvalues --   -0.43662  -0.43518  -0.43399  -0.43194  -0.43103
 Alpha  occ. eigenvalues --   -0.42623  -0.42393  -0.42149  -0.42049  -0.41916
 Alpha  occ. eigenvalues --   -0.41786  -0.41198  -0.41124  -0.40966  -0.40621
 Alpha  occ. eigenvalues --   -0.40136  -0.39709  -0.39656  -0.39489  -0.39375
 Alpha  occ. eigenvalues --   -0.39068  -0.38888  -0.38733  -0.38504  -0.38334
 Alpha  occ. eigenvalues --   -0.38135  -0.37987  -0.37853  -0.37539  -0.37398
 Alpha  occ. eigenvalues --   -0.37372  -0.37101  -0.36968  -0.36936  -0.36745
 Alpha  occ. eigenvalues --   -0.36684  -0.36487  -0.36163  -0.35976  -0.35779
 Alpha  occ. eigenvalues --   -0.35751  -0.35701  -0.35543  -0.35247  -0.34700
 Alpha  occ. eigenvalues --   -0.34466  -0.34446  -0.34109  -0.34102  -0.33757
 Alpha  occ. eigenvalues --   -0.33705  -0.33255  -0.32743  -0.32697  -0.32531
 Alpha  occ. eigenvalues --   -0.32382  -0.32307  -0.32287  -0.32150  -0.32056
 Alpha  occ. eigenvalues --   -0.31172  -0.30821  -0.30773  -0.30564  -0.30297
 Alpha  occ. eigenvalues --   -0.29668  -0.29306  -0.29287  -0.27662  -0.27094
 Alpha  occ. eigenvalues --   -0.27001  -0.26889  -0.26465  -0.25865  -0.25692
 Alpha  occ. eigenvalues --   -0.24813  -0.24247  -0.23369  -0.21930  -0.20236
 Alpha  occ. eigenvalues --   -0.18671
 Alpha virt. eigenvalues --   -0.10799  -0.08052  -0.05160  -0.03051  -0.00608
 Alpha virt. eigenvalues --   -0.00564   0.00018   0.00304   0.01666   0.02895
 Alpha virt. eigenvalues --    0.03632   0.03890   0.04409   0.04639   0.05000

 Mulliken charges:
               1
     1  C   -0.077768
     2  C   -0.047753
     3  C   -0.068815
     4  C   -0.056820
     5  N   -0.242085
     6  C   -0.074026
     7  C   -0.083032
     8  C    0.010454
     9  C    0.007249
    10  C    0.028842
    11  C    0.205565
    12  C    0.056715
    13  C    0.155660
    14  O   -0.270782
    15  O   -0.287549
    16  N    0.018039
    17  C    0.045902
    18  C   -0.089165
    19  C    0.057406
    20  C    0.040729
    21  C    0.060327
    22  C   -0.116297
    23  C   -0.081257
    24  N   -0.204904
    25  C    0.088713
    26  C   -0.184984
    27  C   -0.083655
    28  C   -0.034348
    29  C    0.092999
    30  C    0.128560
    31  C   -0.021255
    32  N    0.026711
    33  C    0.060196
    34  C   -0.135685
    35  C    0.048756
    36  C    0.062389
    37  C    0.157871
    38  C    0.016866
    39  O   -0.175488
    40  C   -0.023461
    41  C    0.220111
    42  O   -0.152377
    43  O   -0.326235
    44  C    0.124711
    45  C    0.370738
    46  C   -0.116541
    47  C   -0.155565
    48  C    0.065580
    49  C    0.053220
    50  C    0.178872
    51  C    0.061344
    52  C    0.000650
    53  C   -0.021756
    54  C   -0.020211
    55  C   -0.027618
    56  C    0.083993
    57  C    0.028793
    58  C    0.006981
    59  C   -0.022739
    60  C    0.085025
    61  C   -0.072621
    62  C   -0.002596
    63  C    0.023448
    64  C   -0.006178
    65  H   -0.006493
    66  H   -0.033437
    67  H    0.019289
    68  H    0.024710
    69  H   -0.011624
    70  H    0.010919
    71  H    0.025907
    72  H    0.048436
    73  H   -0.034433
    74  H   -0.030851
    75  H    0.043436
    76  H    0.005210
    77  H    0.019324
    78  H    0.032611
    79  H    0.031575
    80  H    0.026078
    81  H    0.066224
    82  H    0.035975
    83  H   -0.012888
    84  H    0.059101
    85  H    0.019789
    86  H    0.013490
    87  H   -0.000264
    88  H    0.000984
    89  H    0.009290
    90  H   -0.004979
    91  H    0.014967
    92  H   -0.015134
    93  H    0.017039
    94  H    0.086304
    95  H    0.046538
    96  H    0.058515
    97  H    0.040605
    98  H    0.032768
    99  H   -0.092514
   100  H    0.021081
   101  H    0.012022
   102  H    0.031953
   103  H    0.022029
   104  H   -0.008741
   105  H    0.002205
   106  H   -0.027650
   107  H   -0.073138
   108  H    0.002368
   109  H   -0.050998
   110  H   -0.064131
   111  H    0.009141
   112  H    0.027790
   113  H    0.007235
   114  H   -0.011081
   115  H    0.002156
   116  H    0.020826
   117  H    0.002502
   118  H   -0.004050
   119  H    0.001397
   120  H   -0.021629
   121  H   -0.003413
   122  H   -0.009246
   123  H    0.007374
   124  H   -0.013302
   125  H    0.002235
   126  H   -0.026327
   127  H   -0.027482
   128  H    0.009489
   129  H    0.010092
   130  H   -0.074691
   131  H    0.027397
   132  H   -0.004868
   133  H    0.001710
   134  H    0.009589
   135  H    0.022651
   136  H    0.012321
   137  H    0.088035
   138  H    0.130836
 Sum of Mulliken charges =  -0.00000

 Dipole moment (field-independent basis, Debye):
    X=              3.3730    Y=              4.1150    Z=              0.4617  Tot=              5.3407
 Quadrupole moment (field-independent basis, Debye-Ang):
   XX=           -355.1881   YY=           -386.5579   ZZ=           -396.5279
   XY=            -14.2460   XZ=              3.3261   YZ=             -5.4570

 Normal termination of Gaussian 16 at Wed Aug 14 08:15:25 2019.
