 Gaussian 16, Revision A.03,
 Gaussian 16:  ES64L-G16RevA.03 25-Dec-2016

 --------------------------
 # td=(NStates=1) B3LYP/SVP
 --------------------------

 --
 TD
 --
 Symbolic Z-matrix:
 Charge =  0 Multiplicity = 1

                         Standard orientation:
 ---------------------------------------------------------------------
 Center     Atomic      Atomic             Coordinates (Angstroms)
 Number     Number       Type             X           Y           Z
 ---------------------------------------------------------------------
      1          6           0       -5.076456   -1.909748    0.439895
      2          6           0       -4.686507    2.748361    1.479110
      3          6           0       -9.177378    3.564554   -0.361279
      4          6           0       -9.777168   -1.387180   -1.170890
      5          7           0       -5.229664    0.468649    0.676978
      6          6           0       -4.441369   -0.778399    0.934405
      7          6           0       -3.114999   -0.607317    1.374788
      8          6           0       -3.123167    0.909506    1.906621
      9          6           0       -4.367172    1.377441    1.277014
     10          6           0       -3.129517    0.846682    3.393187
     11          6           0       -2.063201   -0.991493    0.394321
     12          6           0       -0.612334   -0.842662    0.792109
     13          6           0        0.377498   -1.225614   -0.310026
     14          8           0        0.089618   -1.865649   -1.329192
     15          8           0        1.688874   -0.648366   -0.030220
     16          7           0       -6.987409    2.729120    0.465502
     17          6           0       -5.903503    3.413565    1.115226
     18          6           0       -6.154824    4.820899    1.193736
     19          6           0       -7.409612    5.055478    0.539229
     20          6           0       -7.852316    3.703712    0.053334
     21          6           0       -5.249371    5.752809    1.754086
     22          6           0       -8.035130    6.378475    0.461579
     23          6           0       -8.987765    6.694155   -0.479218
     24          7           0       -9.035743    1.070609   -0.546865
     25          6           0       -9.692830    2.219173   -0.579814
     26          6           0      -11.028520    2.064531   -1.112697
     27          6           0      -11.275160    0.710880   -1.372681
     28          6           0      -10.044131    0.073289   -1.022095
     29          6           0      -12.082157    3.096807   -1.079851
     30          6           0      -12.541961    0.001391   -1.802233
     31          6           0      -12.530782   -0.254515   -3.350305
     32          7           0       -7.503915   -1.249303   -0.294036
     33          6           0       -8.594614   -2.028827   -0.893278
     34          6           0       -8.117835   -3.396959   -0.788957
     35          6           0       -6.828744   -3.423414   -0.525701
     36          6           0       -6.429686   -2.069439   -0.029483
     37          6           0       -8.885580   -4.503690   -1.288055
     38          6           0       -5.664775   -4.243502   -0.098271
     39          8           0       -5.595509   -5.542727   -0.293691
     40          6           0       -4.523846   -3.302630    0.447506
     41          6           0       -4.129212   -3.869709    1.763397
     42          8           0       -4.241233   -3.433316    2.869779
     43          8           0       -3.491559   -5.038369    1.646009
     44          6           0       -3.050722   -5.792819    2.813401
     45          6           0        2.621490   -1.208873   -1.042536
     46          6           0        3.908865   -0.792748   -0.417427
     47          6           0        4.932910   -0.007547   -0.993513
     48          6           0        4.832067    0.624941   -2.326957
     49          6           0        6.275010    0.054764   -0.094604
     50          6           0        7.506560   -0.472906   -0.996012
     51          6           0        8.732751   -0.381870   -0.135151
     52          6           0       10.079643   -0.863634   -0.677590
     53          6           0       10.138558   -2.349460   -0.761379
     54          6           0       11.279857   -0.223805   -0.035071
     55          6           0       12.639754   -0.671752   -0.530457
     56          6           0       13.755587    0.088142    0.099759
     57          6           0       15.185763   -0.147343   -0.453350
     58          6           0       15.482597   -1.712479   -0.453866
     59          6           0       16.191919    0.899098    0.301124
     60          6           0       17.711060    0.700319   -0.226347
     61          6           0       18.604093    1.627851    0.466259
     62          6           0       19.993727    1.748297   -0.093659
     63          6           0       20.079391    2.481944   -1.442551
     64          6           0       20.871908    2.512848    0.952098
     65          1           0       -4.075369    3.437836    2.182103
     66          1           0       -9.938955    4.384014   -0.159041
     67          1           0      -10.670345   -1.958446   -1.347337
     68          1           0       -2.888561   -1.435341    2.118878
     69          1           0       -2.096212    1.290371    1.765853
     70          1           0       -2.036582    0.273270    3.640837
     71          1           0       -2.791095    1.847030    3.827441
     72          1           0       -4.012942    0.470771    4.078276
     73          1           0       -2.202923   -1.930718   -0.225928
     74          1           0       -2.163128   -0.209287   -0.416674
     75          1           0       -0.442267    0.098373    1.220772
     76          1           0       -0.485317   -1.569469    1.727501
     77          1           0       -4.397939    5.984645    1.122848
     78          1           0       -5.724200    6.778421    1.825333
     79          1           0       -4.930882    5.665555    2.773043
     80          1           0       -7.537846    6.932934    1.333302
     81          1           0       -9.053299    5.743809   -1.266401
     82          1           0       -9.662249    7.744933   -0.748876
     83          1           0      -12.256966    3.548518   -0.024660
     84          1           0      -11.909369    4.027331   -1.723472
     85          1           0      -13.171407    2.629377   -1.454946
     86          1           0      -12.469640   -1.071161   -1.429212
     87          1           0      -13.467199    0.598860   -1.381632
     88          1           0      -12.564655    0.711431   -4.101609
     89          1           0      -11.551277   -0.678688   -3.650922
     90          1           0      -13.381370   -0.916117   -3.711211
     91          1           0       -9.680686   -4.829283   -0.603190
     92          1           0       -9.369064   -4.290343   -2.211289
     93          1           0       -8.218143   -5.481307   -1.241243
     94          1           0       -3.664852   -3.457699   -0.346125
     95          1           0       -2.871454   -6.981996    2.389333
     96          1           0       -2.130015   -5.320251    3.098614
     97          1           0       -3.977120   -5.870015    3.606238
     98          1           0        2.537215   -2.351330   -0.931015
     99          1           0        2.441489   -0.941438   -2.275419
    100          1           0        3.980305   -1.160251    0.577121
    101          1           0        5.575194    1.570546   -2.318924
    102          1           0        5.317422   -0.249194   -3.019890
    103          1           0        3.805597    0.710833   -2.636562
    104          1           0        6.347206    1.297553    0.071641
    105          1           0        6.150182   -0.202480    0.961210
    106          1           0        7.290867   -1.596501   -1.191504
    107          1           0        7.512673    0.077848   -1.964297
    108          1           0        8.864475    0.646070    0.139190
    109          1           0        8.441628   -0.782993    0.897793
    110          1           0       10.122853   -0.423055   -1.670845
    111          1           0        9.279876   -2.907661   -1.102166
    112          1           0       11.046417   -2.890663   -1.241550
    113          1           0       10.394405   -2.914823    0.234345
    114          1           0       11.255279    0.971763   -0.164165
    115          1           0       10.949403   -0.241351    1.094894
    116          1           0       12.745026   -1.828266   -0.407700
    117          1           0       12.623009   -0.620539   -1.832553
    118          1           0       13.380761    0.999335   -0.004616
    119          1           0       13.852272   -0.149130    1.280268
    120          1           0       15.034839    0.191247   -1.398826
    121          1           0       14.778997   -2.134347   -1.033415
    122          1           0       16.640694   -1.804433   -0.631784
    123          1           0       15.319934   -2.177608    0.646458
    124          1           0       15.916746    1.874168    0.024993
    125          1           0       16.027457    0.594568    1.229282
    126          1           0       17.940445   -0.459568   -0.143292
    127          1           0       17.606452    1.133066   -1.233574
    128          1           0       18.057987    2.628050    0.404168
    129          1           0       18.748210    1.298072    1.597282
    130          1           0       20.431557    0.718978   -0.071852
    131          1           0       19.581054    3.537616   -1.434867
    132          1           0       21.166658    2.740468   -1.767302
    133          1           0       19.821896    1.896947   -2.215568
    134          1           0       20.716391    2.110396    1.913801
    135          1           0       22.029359    2.374176    0.527560
    136          1           0       20.767327    3.669918    1.241456
    137          1           0       -7.103778    1.803212    0.249402
    138          1           0       -7.618835   -0.340147   -0.119570
 ---------------------------------------------------------------------

 SCF Done:  E(RB3LYP) =  -2732.96606183     A.U. after   17 cycles

 Excitation energies and oscillator strengths:

 Excited State   1:      Singlet-A      1.8667 eV  664.19 nm  f=0.1148  <S**2>=0.000
     235 -> 238        0.29524
     236 -> 237        0.63131
 This state for optimization and/or second-order correction.
 Total Energy, E(TD-HF/TD-DFT) =  -2732.89746207
 Copying the excited state density for this state as the 1-particle RhoCI density.

 The electronic state is 1-A.
 Alpha  occ. eigenvalues --  -19.18097 -19.16060 -19.14766 -19.11879 -19.11691
 Alpha  occ. eigenvalues --  -14.36864 -14.36471 -14.33899 -14.30202 -10.33215
 Alpha  occ. eigenvalues --  -10.31285 -10.28794 -10.26683 -10.26037 -10.24714
 Alpha  occ. eigenvalues --  -10.24650 -10.24141 -10.23921 -10.23731 -10.23706
 Alpha  occ. eigenvalues --  -10.23067 -10.22994 -10.22247 -10.22246 -10.21936
 Alpha  occ. eigenvalues --  -10.21738 -10.21643 -10.21601 -10.21457 -10.21352
 Alpha  occ. eigenvalues --  -10.21229 -10.21093 -10.21089 -10.20898 -10.20862
 Alpha  occ. eigenvalues --  -10.20815 -10.20803 -10.20558 -10.20527 -10.20383
 Alpha  occ. eigenvalues --  -10.20375 -10.20360 -10.20306 -10.20238 -10.19932
 Alpha  occ. eigenvalues --  -10.19802 -10.19699 -10.19449 -10.19351 -10.18995
 Alpha  occ. eigenvalues --  -10.18983 -10.18965 -10.18787 -10.18770 -10.18531
 Alpha  occ. eigenvalues --  -10.18500 -10.18400 -10.18290 -10.18226 -10.18181
 Alpha  occ. eigenvalues --  -10.18083 -10.17951 -10.17589 -10.17365  -1.09545
 Alpha  occ. eigenvalues --   -1.06747  -1.00026  -0.99534  -0.97589  -0.97246
 Alpha  occ. eigenvalues --   -0.96361  -0.93159  -0.91634  -0.84971  -0.82975
 Alpha  occ. eigenvalues --   -0.82716  -0.82658  -0.82210  -0.81503  -0.80461
 Alpha  occ. eigenvalues --   -0.80309  -0.79603  -0.79299  -0.78582  -0.77975
 Alpha  occ. eigenvalues --   -0.76837  -0.76217  -0.75350  -0.74583  -0.74062
 Alpha  occ. eigenvalues --   -0.73253  -0.72838  -0.72318  -0.71700  -0.71619
 Alpha  occ. eigenvalues --   -0.70880  -0.68776  -0.68595  -0.67586  -0.67341
 Alpha  occ. eigenvalues --   -0.66983  -0.66430  -0.66288  -0.65650  -0.64311
 Alpha  occ. eigenvalues --   -0.63439  -0.62617  -0.62339  -0.61192  -0.61013
 Alpha  occ. eigenvalues --   -0.60303  -0.59311  -0.58377  -0.57767  -0.57176
 Alpha  occ. eigenvalues --   -0.56720  -0.56343  -0.55712  -0.55350  -0.55162
 Alpha  occ. eigenvalues --   -0.55070  -0.54404  -0.54225  -0.53479  -0.53293
 Alpha  occ. eigenvalues --   -0.52537  -0.51693  -0.51360  -0.51022  -0.50077
 Alpha  occ. eigenvalues --   -0.49906  -0.49240  -0.48972  -0.48804  -0.48344
 Alpha  occ. eigenvalues --   -0.48297  -0.47877  -0.47043  -0.46998  -0.46757
 Alpha  occ. eigenvalues --   -0.46545  -0.46515  -0.46281  -0.46235  -0.46052
 Alpha  occ. eigenvalues --   -0.45509  -0.45163  -0.44929  -0.44768  -0.44721
 Alpha  occ. eigenvalues --   -0.44261  -0.43964  -0.43870  -0.43787  -0.43410
 Alpha  occ. eigenvalues --   -0.43035  -0.42780  -0.42729  -0.42215  -0.42016
 Alpha  occ. eigenvalues --   -0.41957  -0.41793  -0.41756  -0.41531  -0.41295
 Alpha  occ. eigenvalues --   -0.41217  -0.40837  -0.40553  -0.40096  -0.39909
 Alpha  occ. eigenvalues --   -0.39801  -0.39669  -0.39589  -0.39333  -0.39208
 Alpha  occ. eigenvalues --   -0.38828  -0.38633  -0.38499  -0.38356  -0.38293
 Alpha  occ. eigenvalues --   -0.37850  -0.37792  -0.37672  -0.37510  -0.37334
 Alpha  occ. eigenvalues --   -0.37052  -0.36849  -0.36631  -0.36538  -0.36294
 Alpha  occ. eigenvalues --   -0.36165  -0.35840  -0.35743  -0.35554  -0.35498
 Alpha  occ. eigenvalues --   -0.35351  -0.35125  -0.34983  -0.34964  -0.34786
 Alpha  occ. eigenvalues --   -0.34433  -0.33993  -0.33945  -0.33778  -0.33428
 Alpha  occ. eigenvalues --   -0.33115  -0.33048  -0.32710  -0.32622  -0.32562
 Alpha  occ. eigenvalues --   -0.32200  -0.31768  -0.31575  -0.31363  -0.31278
 Alpha  occ. eigenvalues --   -0.31107  -0.30660  -0.30525  -0.30022  -0.29900
 Alpha  occ. eigenvalues --   -0.29896  -0.29545  -0.29339  -0.28932  -0.28356
 Alpha  occ. eigenvalues --   -0.27756  -0.27311  -0.26766  -0.26508  -0.26125
 Alpha  occ. eigenvalues --   -0.24503  -0.24088  -0.22777  -0.22084  -0.19961
 Alpha  occ. eigenvalues --   -0.18781
 Alpha virt. eigenvalues --   -0.10579  -0.09046  -0.05584  -0.02826  -0.02694
 Alpha virt. eigenvalues --   -0.00717  -0.00628  -0.00451   0.01183   0.03042
 Alpha virt. eigenvalues --    0.03491   0.03522   0.04074   0.04382   0.04505

 Mulliken charges:
               1
     1  C    0.021075
     2  C   -0.102590
     3  C   -0.124703
     4  C   -0.050289
     5  N   -0.251298
     6  C   -0.014888
     7  C    0.026611
     8  C   -0.005230
     9  C    0.126860
    10  C   -0.036437
    11  C   -0.022570
    12  C    0.055559
    13  C    0.234988
    14  O   -0.232959
    15  O   -0.368272
    16  N   -0.041290
    17  C    0.085408
    18  C   -0.105022
    19  C   -0.047493
    20  C    0.124864
    21  C    0.103087
    22  C   -0.001708
    23  C   -0.134273
    24  N   -0.293166
    25  C    0.055496
    26  C   -0.119981
    27  C   -0.065725
    28  C    0.031079
    29  C   -0.021148
    30  C    0.058545
    31  C   -0.058109
    32  N   -0.030996
    33  C    0.111116
    34  C   -0.124572
    35  C    0.034935
    36  C    0.059035
    37  C    0.087042
    38  C    0.093969
    39  O   -0.261345
    40  C   -0.060989
    41  C    0.185014
    42  O   -0.213517
    43  O   -0.304645
    44  C    0.116551
    45  C    0.188034
    46  C   -0.061027
    47  C   -0.159487
    48  C    0.038378
    49  C   -0.012568
    50  C    0.014585
    51  C    0.023717
    52  C    0.058866
    53  C   -0.001312
    54  C   -0.054962
    55  C   -0.049588
    56  C    0.067207
    57  C   -0.042607
    58  C    0.020656
    59  C    0.087711
    60  C    0.012386
    61  C    0.000386
    62  C   -0.055218
    63  C    0.053595
    64  C   -0.027036
    65  H    0.005095
    66  H    0.045242
    67  H   -0.026072
    68  H    0.020804
    69  H    0.004461
    70  H    0.015103
    71  H    0.012781
    72  H    0.068351
    73  H    0.036268
    74  H   -0.003019
    75  H    0.004503
    76  H    0.040241
    77  H    0.029675
    78  H   -0.011160
    79  H    0.022677
    80  H    0.018971
    81  H    0.079007
    82  H    0.082008
    83  H    0.037525
    84  H    0.025242
    85  H    0.028904
    86  H    0.012834
    87  H    0.036710
    88  H    0.023727
    89  H    0.020769
    90  H    0.025468
    91  H    0.011236
    92  H    0.025199
    93  H    0.052809
    94  H    0.105106
    95  H    0.065583
    96  H    0.039498
    97  H    0.071423
    98  H    0.035680
    99  H    0.058584
   100  H   -0.020482
   101  H    0.049762
   102  H    0.050390
   103  H    0.029324
   104  H    0.006434
   105  H    0.012504
   106  H    0.023041
   107  H    0.014495
   108  H   -0.032819
   109  H   -0.006989
   110  H   -0.026338
   111  H    0.002143
   112  H    0.009030
   113  H   -0.006918
   114  H    0.002059
   115  H    0.004829
   116  H    0.017145
   117  H    0.013230
   118  H   -0.055990
   119  H    0.005117
   120  H   -0.047461
   121  H    0.002907
   122  H    0.031314
   123  H    0.011251
   124  H   -0.012812
   125  H   -0.036115
   126  H    0.021876
   127  H   -0.007854
   128  H   -0.006258
   129  H   -0.000694
   130  H   -0.002240
   131  H    0.022703
   132  H    0.001570
   133  H   -0.016566
   134  H   -0.009982
   135  H    0.021378
   136  H    0.017871
   137  H    0.109963
   138  H    0.068209
 Sum of Mulliken charges =  -0.00000

 Dipole moment (field-independent basis, Debye):
    X=              2.2968    Y=              4.5713    Z=              1.5942  Tot=              5.3585
 Quadrupole moment (field-independent basis, Debye-Ang):
   XX=           -375.0351   YY=           -384.6898   ZZ=           -395.0846
   XY=            -24.0698   XZ=             -5.3728   YZ=             -0.4672

 Normal termination of Gaussian 16 at Wed Aug 28 15:18:50 2019.
