 Gaussian 16, Revision A.03,
 Gaussian 16:  ES64L-G16RevA.03 25-Dec-2016

 --------------------------
 # td=(NStates=1) B3LYP/SVP
 --------------------------

 --
 TD
 --
 Symbolic Z-matrix:
 Charge =  0 Multiplicity = 1

                         Standard orientation:
 ---------------------------------------------------------------------
 Center     Atomic      Atomic             Coordinates (Angstroms)
 Number     Number       Type             X           Y           Z
 ---------------------------------------------------------------------
      1          6           0       -5.123636   -1.974595    0.497391
      2          6           0       -4.787250    2.793686    1.258237
      3          6           0       -9.338788    3.396175   -0.220586
      4          6           0       -9.872148   -1.439034   -0.998110
      5          7           0       -5.179726    0.496218    0.765382
      6          6           0       -4.522292   -0.761519    0.875522
      7          6           0       -3.089118   -0.614689    1.308622
      8          6           0       -3.050639    0.791638    1.792218
      9          6           0       -4.389021    1.434764    1.175281
     10          6           0       -2.945799    0.975253    3.266926
     11          6           0       -2.097887   -0.792343    0.082402
     12          6           0       -0.584016   -0.715428    0.628487
     13          6           0        0.401399   -1.011584   -0.514753
     14          8           0        0.165372   -1.486625   -1.628713
     15          8           0        1.635037   -0.705999   -0.233936
     16          7           0       -7.050148    2.787844    0.429248
     17          6           0       -5.992087    3.478547    1.074220
     18          6           0       -6.204551    4.946385    0.907253
     19          6           0       -7.575729    5.010364    0.400970
     20          6           0       -8.061779    3.655522    0.167973
     21          6           0       -5.265108    5.961026    1.366451
     22          6           0       -8.212531    6.258636    0.322159
     23          6           0       -9.179216    6.610729   -0.643682
     24          7           0       -9.225044    0.896897   -0.449077
     25          6           0       -9.914563    2.122549   -0.527126
     26          6           0      -11.307088    1.914408   -0.841407
     27          6           0      -11.441037    0.540378   -1.098903
     28          6           0      -10.074365    0.053833   -0.865514
     29          6           0      -12.347403    3.029457   -0.960188
     30          6           0      -12.632214   -0.229253   -1.601959
     31          6           0      -12.556867   -0.553885   -3.071210
     32          7           0       -7.580699   -1.259227   -0.227616
     33          6           0       -8.656197   -2.043070   -0.649795
     34          6           0       -8.339944   -3.440374   -0.675602
     35          6           0       -6.989408   -3.468130   -0.201616
     36          6           0       -6.493491   -2.139074    0.027649
     37          6           0       -9.093335   -4.574493   -1.095534
     38          6           0       -5.844594   -4.278285    0.026610
     39          8           0       -5.708460   -5.457833    0.022106
     40          6           0       -4.614279   -3.314382    0.363872
     41          6           0       -3.876566   -3.784242    1.642678
     42          8           0       -3.953150   -3.203063    2.766456
     43          8           0       -3.100169   -4.811425    1.503331
     44          6           0       -2.531373   -5.519908    2.549976
     45          6           0        2.680787   -1.043183   -1.148528
     46          6           0        4.015979   -0.729433   -0.481636
     47          6           0        5.067108   -0.100124   -0.944128
     48          6           0        5.110136    0.640956   -2.384871
     49          6           0        6.338737    0.067328   -0.230836
     50          6           0        7.550911   -0.723525   -0.778015
     51          6           0        8.811230   -0.487814    0.072086
     52          6           0       10.052971   -1.065608   -0.638473
     53          6           0       10.108493   -2.638093   -0.622856
     54          6           0       11.285912   -0.466978    0.092314
     55          6           0       12.766401   -0.677460   -0.568007
     56          6           0       13.822303   -0.011268    0.133508
     57          6           0       15.256791   -0.173432   -0.374295
     58          6           0       15.778895   -1.613177   -0.684369
     59          6           0       16.272313    0.563668    0.483750
     60          6           0       17.652706    0.925298   -0.310699
     61          6           0       18.669561    1.789834    0.595601
     62          6           0       20.190207    1.851740    0.051104
     63          6           0       20.113191    2.401283   -1.350590
     64          6           0       20.933598    2.686161    1.009357
     65          1           0       -4.075360    3.557975    1.652734
     66          1           0      -10.084204    4.277340   -0.265609
     67          1           0      -10.741329   -1.972745   -1.211801
     68          1           0       -2.910226   -1.223694    2.127471
     69          1           0       -2.178863    1.493267    1.507117
     70          1           0       -2.088443    0.560851    3.784069
     71          1           0       -3.093180    1.957499    3.852047
     72          1           0       -3.780563    0.606491    3.776753
     73          1           0       -2.200019   -1.884685   -0.409715
     74          1           0       -2.256205   -0.144067   -0.748760
     75          1           0       -0.454899    0.303733    1.184100
     76          1           0       -0.448542   -1.500188    1.425584
     77          1           0       -4.426393    6.052456    0.530764
     78          1           0       -5.894543    6.972142    1.509739
     79          1           0       -4.664533    5.578154    2.267619
     80          1           0       -7.566403    7.159611    0.741778
     81          1           0       -9.720573    5.769252   -1.260377
     82          1           0       -9.578721    7.614277   -0.407248
     83          1           0      -12.588990    3.418323   -0.027390
     84          1           0      -11.932010    3.768938   -1.602091
     85          1           0      -13.334753    2.713488   -1.234474
     86          1           0      -12.751049   -1.066982   -1.160058
     87          1           0      -13.491033    0.463291   -1.554846
     88          1           0      -12.601494    0.285670   -3.766084
     89          1           0      -11.801882   -1.249743   -3.305624
     90          1           0      -13.502251   -1.144741   -3.462651
     91          1           0      -10.012335   -4.857888   -0.407638
     92          1           0       -9.511548   -4.367438   -2.172844
     93          1           0       -8.682390   -5.610210   -1.163128
     94          1           0       -3.873784   -3.627744   -0.436874
     95          1           0       -2.126206   -6.550453    2.174998
     96          1           0       -1.756042   -4.854024    3.306906
     97          1           0       -3.336114   -5.891750    3.278922
     98          1           0        2.474980   -2.178480   -1.482987
     99          1           0        2.691052   -0.538840   -2.135573
    100          1           0        3.963481   -1.100503    0.416887
    101          1           0        5.599271    1.522176   -2.279136
    102          1           0        5.525353    0.054135   -3.236281
    103          1           0        4.160094    0.805380   -2.831996
    104          1           0        6.319179    1.133585   -0.088156
    105          1           0        6.268742   -0.269232    0.734781
    106          1           0        7.323198   -1.671020   -0.995918
    107          1           0        7.847323   -0.161589   -1.777251
    108          1           0        9.044623    0.598573    0.135450
    109          1           0        8.839709   -0.944086    1.125820
    110          1           0       10.372827   -0.664855   -1.723001
    111          1           0        9.255604   -2.912204   -1.314228
    112          1           0       11.010324   -2.943311   -0.929024
    113          1           0        9.752748   -3.025942    0.395649
    114          1           0       11.118579    0.737996    0.045315
    115          1           0       11.357231   -0.530762    1.235799
    116          1           0       12.828883   -1.752537   -0.677103
    117          1           0       12.724022   -0.196012   -1.740001
    118          1           0       13.626586    1.052044    0.321210
    119          1           0       13.737603   -0.346499    1.263230
    120          1           0       15.140935    0.344034   -1.428690
    121          1           0       15.128718   -2.051327   -1.314710
    122          1           0       16.894579   -1.396368   -1.314477
    123          1           0       15.875550   -2.167081    0.247959
    124          1           0       15.843236    1.526491    0.841791
    125          1           0       16.487558   -0.102868    1.383860
    126          1           0       18.150124   -0.167155   -0.718037
    127          1           0       17.380874    1.454439   -1.346331
    128          1           0       18.312625    2.757934    0.707478
    129          1           0       18.578758    1.390436    1.627485
    130          1           0       20.564969    0.863958    0.150983
    131          1           0       19.573191    3.351606   -1.331413
    132          1           0       21.089340    2.626986   -1.636594
    133          1           0       19.669569    1.708593   -1.982691
    134          1           0       20.614673    2.302713    2.055718
    135          1           0       21.894980    2.833116    0.714787
    136          1           0       20.715855    3.660184    0.934456
    137          1           0       -7.011005    1.748931    0.190941
    138          1           0       -7.592652   -0.183032    0.035113
 ---------------------------------------------------------------------

 SCF Done:  E(RB3LYP) =  -2733.07698949     A.U. after   17 cycles

 Excitation energies and oscillator strengths:

 Excited State   1:      Singlet-A      1.9319 eV  641.77 nm  f=0.1499  <S**2>=0.000
     235 -> 237       -0.20446
     235 -> 238        0.24088
     236 -> 237        0.58964
     236 -> 238        0.22212
 This state for optimization and/or second-order correction.
 Total Energy, E(TD-HF/TD-DFT) =  -2733.00599356
 Copying the excited state density for this state as the 1-particle RhoCI density.

 The electronic state is 1-A.
 Alpha  occ. eigenvalues --  -19.18961 -19.17889 -19.11745 -19.11274 -19.11078
 Alpha  occ. eigenvalues --  -14.37088 -14.36934 -14.32803 -14.29812 -10.31780
 Alpha  occ. eigenvalues --  -10.31376 -10.27270 -10.27108 -10.25297 -10.24246
 Alpha  occ. eigenvalues --  -10.24049 -10.23818 -10.23648 -10.23583 -10.23337
 Alpha  occ. eigenvalues --  -10.22596 -10.22087 -10.21918 -10.21670 -10.21525
 Alpha  occ. eigenvalues --  -10.21471 -10.21430 -10.21201 -10.21054 -10.20901
 Alpha  occ. eigenvalues --  -10.20889 -10.20820 -10.20791 -10.20790 -10.20694
 Alpha  occ. eigenvalues --  -10.20234 -10.20162 -10.20132 -10.20055 -10.19688
 Alpha  occ. eigenvalues --  -10.19634 -10.19590 -10.19445 -10.19399 -10.19229
 Alpha  occ. eigenvalues --  -10.19160 -10.19123 -10.18968 -10.18660 -10.18385
 Alpha  occ. eigenvalues --  -10.18285 -10.18250 -10.18245 -10.18161 -10.18123
 Alpha  occ. eigenvalues --  -10.18094 -10.18049 -10.17887 -10.17866 -10.17849
 Alpha  occ. eigenvalues --  -10.17773 -10.17169 -10.16283 -10.15847  -1.11488
 Alpha  occ. eigenvalues --   -1.10769  -1.03983  -0.98733  -0.97815  -0.97030
 Alpha  occ. eigenvalues --   -0.96333  -0.94749  -0.94349  -0.85298  -0.82805
 Alpha  occ. eigenvalues --   -0.81894  -0.81471  -0.81344  -0.80763  -0.80723
 Alpha  occ. eigenvalues --   -0.80417  -0.80004  -0.79951  -0.78192  -0.77474
 Alpha  occ. eigenvalues --   -0.76444  -0.76183  -0.75638  -0.74730  -0.74523
 Alpha  occ. eigenvalues --   -0.73885  -0.73106  -0.72431  -0.71164  -0.70588
 Alpha  occ. eigenvalues --   -0.70315  -0.69366  -0.69111  -0.68985  -0.68476
 Alpha  occ. eigenvalues --   -0.67834  -0.67190  -0.66557  -0.65798  -0.65623
 Alpha  occ. eigenvalues --   -0.64224  -0.62637  -0.62339  -0.62051  -0.61333
 Alpha  occ. eigenvalues --   -0.60792  -0.59260  -0.58180  -0.57898  -0.57308
 Alpha  occ. eigenvalues --   -0.56959  -0.56284  -0.55908  -0.55615  -0.55169
 Alpha  occ. eigenvalues --   -0.54938  -0.54705  -0.54237  -0.53288  -0.52927
 Alpha  occ. eigenvalues --   -0.52796  -0.52216  -0.51800  -0.51157  -0.49955
 Alpha  occ. eigenvalues --   -0.49683  -0.49580  -0.49189  -0.48599  -0.48405
 Alpha  occ. eigenvalues --   -0.47883  -0.47760  -0.47561  -0.46709  -0.46559
 Alpha  occ. eigenvalues --   -0.46492  -0.46247  -0.46033  -0.45825  -0.45811
 Alpha  occ. eigenvalues --   -0.45552  -0.45337  -0.45175  -0.44807  -0.44576
 Alpha  occ. eigenvalues --   -0.44529  -0.44450  -0.44221  -0.44013  -0.43916
 Alpha  occ. eigenvalues --   -0.43718  -0.43471  -0.43390  -0.42800  -0.42603
 Alpha  occ. eigenvalues --   -0.42462  -0.42206  -0.41850  -0.41792  -0.41393
 Alpha  occ. eigenvalues --   -0.41209  -0.41073  -0.41020  -0.40752  -0.40669
 Alpha  occ. eigenvalues --   -0.40459  -0.40327  -0.40062  -0.39775  -0.39656
 Alpha  occ. eigenvalues --   -0.39424  -0.39166  -0.38746  -0.38624  -0.38342
 Alpha  occ. eigenvalues --   -0.38270  -0.38170  -0.37974  -0.37740  -0.37653
 Alpha  occ. eigenvalues --   -0.37542  -0.37257  -0.37022  -0.36959  -0.36783
 Alpha  occ. eigenvalues --   -0.36718  -0.36292  -0.35923  -0.35678  -0.35544
 Alpha  occ. eigenvalues --   -0.35312  -0.35276  -0.35132  -0.35013  -0.34753
 Alpha  occ. eigenvalues --   -0.34407  -0.34083  -0.34008  -0.33878  -0.33594
 Alpha  occ. eigenvalues --   -0.33245  -0.33213  -0.32794  -0.32788  -0.32242
 Alpha  occ. eigenvalues --   -0.31790  -0.31710  -0.31658  -0.31445  -0.31343
 Alpha  occ. eigenvalues --   -0.30822  -0.30523  -0.30464  -0.30012  -0.29764
 Alpha  occ. eigenvalues --   -0.29606  -0.29418  -0.28241  -0.28033  -0.27596
 Alpha  occ. eigenvalues --   -0.27207  -0.26892  -0.26553  -0.26072  -0.25732
 Alpha  occ. eigenvalues --   -0.25228  -0.24817  -0.22902  -0.22725  -0.20176
 Alpha  occ. eigenvalues --   -0.18427
 Alpha virt. eigenvalues --   -0.10552  -0.08450  -0.04946  -0.02518  -0.00820
 Alpha virt. eigenvalues --    0.00224   0.00419   0.00908   0.01948   0.03224
 Alpha virt. eigenvalues --    0.03403   0.04134   0.04243   0.04512   0.04977

 Mulliken charges:
               1
     1  C    0.150711
     2  C   -0.058238
     3  C   -0.181270
     4  C   -0.071176
     5  N   -0.173487
     6  C   -0.073735
     7  C    0.098812
     8  C   -0.063927
     9  C    0.020089
    10  C    0.055335
    11  C    0.016957
    12  C   -0.017556
    13  C    0.183909
    14  O   -0.270609
    15  O   -0.262009
    16  N   -0.121097
    17  C    0.074031
    18  C   -0.112644
    19  C    0.017784
    20  C    0.193403
    21  C    0.012153
    22  C   -0.114701
    23  C   -0.062879
    24  N   -0.193706
    25  C    0.055971
    26  C   -0.166617
    27  C   -0.155887
    28  C    0.005241
    29  C    0.188955
    30  C    0.235260
    31  C   -0.022914
    32  N   -0.150964
    33  C    0.150815
    34  C   -0.060623
    35  C    0.034667
    36  C    0.016550
    37  C    0.000275
    38  C    0.010133
    39  O   -0.142069
    40  C   -0.095154
    41  C    0.182703
    42  O   -0.292040
    43  O   -0.212750
    44  C    0.096700
    45  C    0.224937
    46  C   -0.033478
    47  C   -0.121711
    48  C    0.097781
    49  C    0.143909
    50  C    0.071867
    51  C    0.035790
    52  C   -0.127698
    53  C    0.085064
    54  C   -0.079249
    55  C    0.021546
    56  C    0.036700
    57  C   -0.106359
    58  C    0.044518
    59  C    0.044998
    60  C   -0.097305
    61  C    0.035272
    62  C   -0.110162
    63  C    0.121708
    64  C    0.154021
    65  H   -0.030935
    66  H    0.008934
    67  H   -0.049448
    68  H   -0.011246
    69  H    0.011430
    70  H    0.008300
    71  H    0.003175
    72  H   -0.015662
    73  H    0.041361
    74  H    0.013535
    75  H    0.050136
    76  H    0.044075
    77  H    0.055186
    78  H    0.051633
    79  H    0.055142
    80  H    0.022700
    81  H    0.064392
    82  H    0.035302
    83  H   -0.005159
    84  H    0.016508
    85  H   -0.013947
    86  H   -0.056802
    87  H   -0.008118
    88  H    0.011372
    89  H   -0.004208
    90  H   -0.002578
    91  H    0.042031
    92  H    0.041577
    93  H    0.040693
    94  H    0.065017
    95  H    0.056692
    96  H    0.057942
    97  H    0.037015
    98  H    0.043877
    99  H    0.007637
   100  H   -0.081812
   101  H   -0.010156
   102  H    0.022418
   103  H   -0.010514
   104  H   -0.000336
   105  H   -0.050847
   106  H   -0.026232
   107  H    0.008851
   108  H   -0.002247
   109  H    0.013436
   110  H    0.015171
   111  H    0.010744
   112  H   -0.013080
   113  H    0.012720
   114  H   -0.006602
   115  H   -0.001287
   116  H    0.004804
   117  H    0.002727
   118  H   -0.014228
   119  H   -0.020307
   120  H   -0.008103
   121  H   -0.013898
   122  H    0.031329
   123  H    0.011336
   124  H   -0.003543
   125  H    0.008073
   126  H    0.023345
   127  H    0.022237
   128  H   -0.025713
   129  H   -0.009814
   130  H   -0.015646
   131  H   -0.003710
   132  H   -0.021815
   133  H   -0.000193
   134  H    0.019517
   135  H   -0.040810
   136  H   -0.056922
   137  H    0.173426
   138  H    0.203572
 Sum of Mulliken charges =  -0.00000

 Dipole moment (field-independent basis, Debye):
    X=              1.6319    Y=              3.5335    Z=              0.8466  Tot=              3.9832
 Quadrupole moment (field-independent basis, Debye-Ang):
   XX=           -349.6252   YY=           -375.6377   ZZ=           -397.7543
   XY=            -10.2610   XZ=              9.2081   YZ=              1.0290

 Normal termination of Gaussian 16 at Sun Aug 11 00:01:25 2019.
