 Gaussian 16, Revision A.03,
 Gaussian 16:  ES64L-G16RevA.03 25-Dec-2016

 --------------------------
 # td=(NStates=1) B3LYP/SVP
 --------------------------

 --
 TD
 --
 Symbolic Z-matrix:
 Charge =  0 Multiplicity = 1

                         Standard orientation:
 ---------------------------------------------------------------------
 Center     Atomic      Atomic             Coordinates (Angstroms)
 Number     Number       Type             X           Y           Z
 ---------------------------------------------------------------------
      1          6           0       -5.186897   -2.060686    0.357713
      2          6           0       -4.685622    2.751695    1.441608
      3          6           0       -9.302336    3.528180   -0.210726
      4          6           0       -9.863644   -1.280536   -0.885380
      5          7           0       -5.180782    0.420375    0.788713
      6          6           0       -4.497801   -0.763553    0.660999
      7          6           0       -3.118288   -0.636702    1.160644
      8          6           0       -3.081038    0.820536    1.745037
      9          6           0       -4.411851    1.367497    1.272892
     10          6           0       -2.941900    0.913805    3.276386
     11          6           0       -2.041787   -0.830224    0.048824
     12          6           0       -0.599811   -0.845126    0.448577
     13          6           0        0.349981   -1.231948   -0.544420
     14          8           0        0.135823   -1.764832   -1.658234
     15          8           0        1.680185   -0.990032   -0.200246
     16          7           0       -6.901327    2.735370    0.446065
     17          6           0       -5.903523    3.400067    0.993325
     18          6           0       -6.069021    4.817250    1.026935
     19          6           0       -7.322474    5.054285    0.577085
     20          6           0       -7.957351    3.716148    0.252392
     21          6           0       -5.106373    5.871055    1.561976
     22          6           0       -7.935669    6.314027    0.343911
     23          6           0       -8.925213    6.723717   -0.509284
     24          7           0       -9.089837    1.026944   -0.569138
     25          6           0       -9.764501    2.192926   -0.515223
     26          6           0      -11.245407    2.043361   -0.860837
     27          6           0      -11.309472    0.659589   -1.220044
     28          6           0      -10.014817    0.071006   -0.967964
     29          6           0      -12.189022    3.214967   -1.016238
     30          6           0      -12.730195   -0.026777   -1.568051
     31          6           0      -12.735044   -0.464191   -2.991317
     32          7           0       -7.533834   -1.228450   -0.098968
     33          6           0       -8.620558   -1.918691   -0.666802
     34          6           0       -8.258720   -3.352714   -0.660098
     35          6           0       -7.009246   -3.389283   -0.175789
     36          6           0       -6.520360   -2.084487    0.070421
     37          6           0       -9.219043   -4.418035   -1.067931
     38          6           0       -5.787014   -4.247949   -0.069893
     39          8           0       -5.709706   -5.501207   -0.287910
     40          6           0       -4.682016   -3.378269    0.369989
     41          6           0       -4.113854   -3.966072    1.698768
     42          8           0       -4.312170   -3.528745    2.817940
     43          8           0       -3.182719   -4.890869    1.492289
     44          6           0       -2.650293   -5.537669    2.642156
     45          6           0        2.679959   -1.270528   -1.136578
     46          6           0        3.825442   -0.770831   -0.527311
     47          6           0        4.954827   -0.086155   -1.201824
     48          6           0        4.915600    0.251080   -2.716503
     49          6           0        6.168996    0.142943   -0.418349
     50          6           0        7.581084   -0.422876   -0.998225
     51          6           0        8.770550   -0.257869   -0.111259
     52          6           0       10.157237   -0.895391   -0.610228
     53          6           0       10.216695   -2.535305   -0.423998
     54          6           0       11.218191   -0.210620    0.097239
     55          6           0       12.615501   -0.708853   -0.421855
     56          6           0       13.767485    0.277619    0.222736
     57          6           0       15.121249   -0.038646   -0.266347
     58          6           0       15.581082   -1.489806   -0.005084
     59          6           0       16.214909    0.928309    0.412978
     60          6           0       17.662304    0.721038   -0.126443
     61          6           0       18.716019    1.756449    0.518225
     62          6           0       20.094082    1.684194   -0.088161
     63          6           0       20.349897    1.909808   -1.544690
     64          6           0       20.928094    2.763947    0.868201
     65          1           0       -3.828574    3.385336    1.806192
     66          1           0       -9.980008    4.331992   -0.661808
     67          1           0      -10.730199   -2.038814   -0.991756
     68          1           0       -2.938845   -1.385486    2.002770
     69          1           0       -2.125060    1.105785    1.287304
     70          1           0       -1.983378    0.401372    3.829609
     71          1           0       -3.026388    1.981391    3.640991
     72          1           0       -3.761835    0.397507    3.823066
     73          1           0       -2.155282   -1.696500   -0.511745
     74          1           0       -2.234980   -0.038630   -0.679593
     75          1           0       -0.285360    0.098943    1.014280
     76          1           0       -0.520958   -1.583842    1.178019
     77          1           0       -4.217957    5.940525    0.929547
     78          1           0       -5.607343    6.609725    1.722516
     79          1           0       -4.920373    5.568716    2.798832
     80          1           0       -7.611682    7.117236    1.035510
     81          1           0       -9.394488    6.028849   -1.394184
     82          1           0       -9.485713    7.638605   -0.607391
     83          1           0      -12.431521    3.717812   -0.098673
     84          1           0      -11.935264    4.016616   -1.698580
     85          1           0      -13.247990    2.765668   -1.345108
     86          1           0      -12.773501   -0.922367   -0.891596
     87          1           0      -13.581533    0.695895   -1.368822
     88          1           0      -12.551851    0.430216   -3.770656
     89          1           0      -12.053736   -1.286697   -3.280537
     90          1           0      -13.764743   -0.839098   -3.216781
     91          1           0       -9.921846   -4.742472   -0.145531
     92          1           0       -9.702543   -4.156711   -1.978623
     93          1           0       -8.476673   -5.332403   -1.191391
     94          1           0       -3.662153   -3.481256   -0.350809
     95          1           0       -2.256726   -6.495925    2.309975
     96          1           0       -2.056174   -4.712990    3.214222
     97          1           0       -3.475303   -5.701885    3.291780
     98          1           0        2.804589   -2.368684   -1.239265
     99          1           0        2.500853   -0.748004   -2.123495
    100          1           0        4.118816   -0.986394    0.546634
    101          1           0        5.631739    1.303523   -3.073353
    102          1           0        5.570440   -0.562429   -3.013948
    103          1           0        3.953588    0.282965   -3.134812
    104          1           0        6.266239    1.187098   -0.323150
    105          1           0        5.954175   -0.161508    0.713459
    106          1           0        7.468167   -1.563121   -1.153434
    107          1           0        7.654889    0.165029   -1.934643
    108          1           0        8.971201    0.757566   -0.230942
    109          1           0        8.644690   -0.534457    0.976601
    110          1           0       10.040509   -0.619726   -1.677121
    111          1           0        9.317919   -2.958235   -0.778430
    112          1           0       11.049139   -2.948892   -0.701880
    113          1           0        9.994098   -2.735330    0.893735
    114          1           0       11.147693    0.788053   -0.239370
    115          1           0       11.045880   -0.173336    1.322097
    116          1           0       12.994474   -1.776758   -0.157323
    117          1           0       12.570916   -0.676817   -1.574721
    118          1           0       13.465828    1.538186   -0.086754
    119          1           0       13.770572    0.182288    1.515248
    120          1           0       15.350304    0.106059   -1.317923
    121          1           0       14.849730   -2.516267   -0.471494
    122          1           0       16.548197   -1.862434   -0.219846
    123          1           0       15.674994   -1.684781    1.052594
    124          1           0       15.984860    2.056304    0.104276
    125          1           0       16.037499    0.639296    1.523746
    126          1           0       18.180418   -0.376660    0.146539
    127          1           0       17.617649    0.786899   -1.288736
    128          1           0       18.231990    2.766183    0.319925
    129          1           0       18.639173    1.872996    1.652537
    130          1           0       20.366448    0.678519    0.221869
    131          1           0       20.023486    2.774447   -1.824283
    132          1           0       21.380042    1.838216   -1.796886
    133          1           0       19.889030    0.932056   -2.067317
    134          1           0       20.775374    2.552215    1.720654
    135          1           0       21.975700    2.856039    0.679896
    136          1           0       20.453415    3.843775    0.521554
    137          1           0       -7.060373    1.693169    0.542764
    138          1           0       -7.639351   -0.092542   -0.256436
 ---------------------------------------------------------------------

 SCF Done:  E(RB3LYP) =  -2732.94019085     A.U. after   17 cycles

 Excitation energies and oscillator strengths:

 Excited State   1:      Singlet-A      1.9820 eV  625.54 nm  f=0.1589  <S**2>=0.000
     235 -> 237       -0.12814
     235 -> 238        0.30097
     236 -> 237        0.61586
     236 -> 238        0.11551
 This state for optimization and/or second-order correction.
 Total Energy, E(TD-HF/TD-DFT) =  -2732.86735261
 Copying the excited state density for this state as the 1-particle RhoCI density.

 The electronic state is 1-A.
 Alpha  occ. eigenvalues --  -19.17925 -19.16753 -19.12502 -19.12326 -19.11616
 Alpha  occ. eigenvalues --  -14.38191 -14.36537 -14.32683 -14.31056 -10.32090
 Alpha  occ. eigenvalues --  -10.31847 -10.27732 -10.25001 -10.24729 -10.24231
 Alpha  occ. eigenvalues --  -10.24024 -10.23923 -10.23129 -10.22892 -10.22573
 Alpha  occ. eigenvalues --  -10.22484 -10.22105 -10.21968 -10.21527 -10.21495
 Alpha  occ. eigenvalues --  -10.21429 -10.21136 -10.20999 -10.20947 -10.20920
 Alpha  occ. eigenvalues --  -10.20824 -10.20751 -10.20737 -10.20596 -10.20575
 Alpha  occ. eigenvalues --  -10.20559 -10.20534 -10.20400 -10.20390 -10.20370
 Alpha  occ. eigenvalues --  -10.20244 -10.20229 -10.20160 -10.20127 -10.20040
 Alpha  occ. eigenvalues --  -10.20027 -10.19784 -10.19376 -10.19346 -10.19345
 Alpha  occ. eigenvalues --  -10.19319 -10.19271 -10.19265 -10.19042 -10.19040
 Alpha  occ. eigenvalues --  -10.18952 -10.18890 -10.18741 -10.18647 -10.18461
 Alpha  occ. eigenvalues --  -10.18461 -10.17849 -10.17369 -10.16915  -1.10581
 Alpha  occ. eigenvalues --   -1.08196  -1.00382  -0.99431  -0.98879  -0.98517
 Alpha  occ. eigenvalues --   -0.97633  -0.95324  -0.93082  -0.86827  -0.83268
 Alpha  occ. eigenvalues --   -0.82933  -0.81856  -0.80924  -0.80465  -0.80418
 Alpha  occ. eigenvalues --   -0.79830  -0.79512  -0.78745  -0.78306  -0.78219
 Alpha  occ. eigenvalues --   -0.76965  -0.76066  -0.75737  -0.74382  -0.74224
 Alpha  occ. eigenvalues --   -0.73871  -0.72736  -0.72397  -0.71735  -0.70526
 Alpha  occ. eigenvalues --   -0.70083  -0.69876  -0.69199  -0.68528  -0.68128
 Alpha  occ. eigenvalues --   -0.67444  -0.66723  -0.66049  -0.65480  -0.64904
 Alpha  occ. eigenvalues --   -0.63869  -0.63118  -0.62804  -0.61494  -0.60767
 Alpha  occ. eigenvalues --   -0.60102  -0.58224  -0.58115  -0.57918  -0.57472
 Alpha  occ. eigenvalues --   -0.56559  -0.56251  -0.56100  -0.55706  -0.55335
 Alpha  occ. eigenvalues --   -0.54687  -0.54346  -0.54272  -0.54088  -0.53129
 Alpha  occ. eigenvalues --   -0.52733  -0.51827  -0.51324  -0.51053  -0.50446
 Alpha  occ. eigenvalues --   -0.50104  -0.49412  -0.49082  -0.48976  -0.48504
 Alpha  occ. eigenvalues --   -0.48389  -0.48106  -0.47442  -0.47345  -0.46916
 Alpha  occ. eigenvalues --   -0.46793  -0.46383  -0.46354  -0.46031  -0.45689
 Alpha  occ. eigenvalues --   -0.45457  -0.45391  -0.45133  -0.44667  -0.44546
 Alpha  occ. eigenvalues --   -0.44491  -0.44393  -0.44017  -0.43985  -0.43543
 Alpha  occ. eigenvalues --   -0.43442  -0.43126  -0.43051  -0.42746  -0.42561
 Alpha  occ. eigenvalues --   -0.42222  -0.42129  -0.41840  -0.41418  -0.41242
 Alpha  occ. eigenvalues --   -0.41079  -0.40867  -0.40719  -0.40454  -0.40332
 Alpha  occ. eigenvalues --   -0.40116  -0.39996  -0.39836  -0.39622  -0.39463
 Alpha  occ. eigenvalues --   -0.39424  -0.39131  -0.38897  -0.38763  -0.38544
 Alpha  occ. eigenvalues --   -0.37944  -0.37786  -0.37678  -0.37421  -0.37379
 Alpha  occ. eigenvalues --   -0.37273  -0.37004  -0.36934  -0.36546  -0.36474
 Alpha  occ. eigenvalues --   -0.36379  -0.36222  -0.35968  -0.35652  -0.35595
 Alpha  occ. eigenvalues --   -0.35282  -0.35148  -0.34938  -0.34877  -0.34633
 Alpha  occ. eigenvalues --   -0.34498  -0.34282  -0.34111  -0.33906  -0.33797
 Alpha  occ. eigenvalues --   -0.33765  -0.33534  -0.33161  -0.32432  -0.32328
 Alpha  occ. eigenvalues --   -0.31924  -0.31593  -0.31412  -0.31275  -0.31039
 Alpha  occ. eigenvalues --   -0.30805  -0.30796  -0.30417  -0.30288  -0.29876
 Alpha  occ. eigenvalues --   -0.29674  -0.29394  -0.28389  -0.27681  -0.27482
 Alpha  occ. eigenvalues --   -0.27348  -0.27341  -0.27077  -0.26352  -0.25915
 Alpha  occ. eigenvalues --   -0.24785  -0.24594  -0.22679  -0.21737  -0.20283
 Alpha  occ. eigenvalues --   -0.18479
 Alpha virt. eigenvalues --   -0.10133  -0.08474  -0.05067  -0.02977  -0.01516
 Alpha virt. eigenvalues --   -0.01142  -0.00747   0.00169   0.01497   0.03323
 Alpha virt. eigenvalues --    0.03330   0.03650   0.04060   0.04282   0.04427

 Mulliken charges:
               1
     1  C    0.006890
     2  C   -0.080524
     3  C   -0.101339
     4  C   -0.127901
     5  N   -0.144707
     6  C   -0.020413
     7  C   -0.089237
     8  C    0.002380
     9  C   -0.006668
    10  C   -0.003960
    11  C    0.055714
    12  C    0.123492
    13  C    0.173827
    14  O   -0.268665
    15  O   -0.335353
    16  N   -0.064724
    17  C    0.074561
    18  C   -0.187090
    19  C    0.074462
    20  C    0.122285
    21  C    0.246483
    22  C   -0.057267
    23  C   -0.095162
    24  N   -0.267676
    25  C    0.018726
    26  C   -0.148553
    27  C   -0.116191
    28  C    0.147079
    29  C    0.079752
    30  C    0.073393
    31  C   -0.034048
    32  N   -0.109365
    33  C    0.024782
    34  C   -0.165835
    35  C    0.013991
    36  C    0.090943
    37  C    0.045183
    38  C    0.086668
    39  O   -0.230818
    40  C   -0.080965
    41  C    0.195511
    42  O   -0.237147
    43  O   -0.282155
    44  C    0.196156
    45  C    0.339767
    46  C   -0.146336
    47  C   -0.185594
    48  C    0.030859
    49  C    0.071310
    50  C   -0.008338
    51  C    0.042705
    52  C   -0.110209
    53  C    0.061585
    54  C    0.081282
    55  C   -0.027438
    56  C   -0.061390
    57  C    0.002852
    58  C   -0.022154
    59  C   -0.029949
    60  C   -0.048735
    61  C   -0.006200
    62  C   -0.101634
    63  C    0.129367
    64  C    0.107720
    65  H   -0.000405
    66  H    0.019193
    67  H    0.020297
    68  H    0.027307
    69  H   -0.006569
    70  H    0.027855
    71  H    0.018097
    72  H    0.025007
    73  H   -0.012191
    74  H    0.001265
    75  H    0.042539
    76  H    0.006953
    77  H    0.051810
    78  H   -0.102983
    79  H    0.034083
    80  H    0.015122
    81  H    0.042738
    82  H    0.028030
    83  H    0.011633
    84  H    0.029950
    85  H    0.016220
    86  H    0.015560
    87  H    0.017114
    88  H    0.026905
    89  H    0.020224
    90  H    0.006656
    91  H    0.060505
    92  H    0.028832
    93  H    0.057623
    94  H    0.105556
    95  H    0.049150
    96  H    0.037679
    97  H    0.015512
    98  H    0.023631
    99  H    0.019630
   100  H    0.001635
   101  H    0.030777
   102  H    0.041976
   103  H    0.020537
   104  H   -0.010809
   105  H    0.003598
   106  H    0.015837
   107  H    0.009030
   108  H   -0.035764
   109  H    0.005942
   110  H   -0.009726
   111  H   -0.000099
   112  H   -0.010538
   113  H   -0.000343
   114  H   -0.025914
   115  H    0.020593
   116  H    0.039722
   117  H    0.012074
   118  H    0.019609
   119  H    0.027146
   120  H   -0.011168
   121  H    0.018808
   122  H   -0.002570
   123  H   -0.015621
   124  H    0.024704
   125  H    0.014747
   126  H    0.016246
   127  H    0.023941
   128  H   -0.028208
   129  H    0.007344
   130  H   -0.013785
   131  H   -0.034020
   132  H   -0.002848
   133  H    0.019748
   134  H   -0.077928
   135  H   -0.004747
   136  H    0.013104
   137  H    0.183651
   138  H    0.216808
 Sum of Mulliken charges =  -0.00000

 Dipole moment (field-independent basis, Debye):
    X=              1.8056    Y=              5.2299    Z=              0.9709  Tot=              5.6173
 Quadrupole moment (field-independent basis, Debye-Ang):
   XX=           -332.4643   YY=           -382.4619   ZZ=           -397.0360
   XY=            -31.7061   XZ=             -1.3139   YZ=             -5.5806

 Normal termination of Gaussian 16 at Tue Aug 20 21:40:01 2019.
