 Gaussian 16, Revision A.03,
 Gaussian 16:  ES64L-G16RevA.03 25-Dec-2016

 --------------------------
 # td=(NStates=1) B3LYP/SVP
 --------------------------

 --
 TD
 --
 Symbolic Z-matrix:
 Charge =  0 Multiplicity = 1

                         Standard orientation:
 ---------------------------------------------------------------------
 Center     Atomic      Atomic             Coordinates (Angstroms)
 Number     Number       Type             X           Y           Z
 ---------------------------------------------------------------------
      1          6           0       -5.063665   -1.899522    0.408908
      2          6           0       -4.942249    2.772901    1.384944
      3          6           0       -9.567956    3.247222   -0.280975
      4          6           0       -9.900961   -1.579986   -0.888517
      5          7           0       -5.182109    0.386878    0.772573
      6          6           0       -4.435394   -0.743063    0.780479
      7          6           0       -2.931310   -0.466012    1.209650
      8          6           0       -3.144721    0.935045    1.800383
      9          6           0       -4.563847    1.396215    1.263202
     10          6           0       -2.894405    1.057407    3.415898
     11          6           0       -2.034823   -0.527746   -0.048245
     12          6           0       -0.593894   -0.575388    0.395696
     13          6           0        0.380500   -0.781274   -0.799471
     14          8           0        0.073371   -1.159228   -1.895491
     15          8           0        1.654628   -0.497915   -0.275388
     16          7           0       -7.222822    2.726960    0.522284
     17          6           0       -6.132985    3.386398    1.016039
     18          6           0       -6.411867    4.771345    1.071053
     19          6           0       -7.698835    4.897823    0.579994
     20          6           0       -8.189548    3.606663    0.056008
     21          6           0       -5.518306    5.819905    1.533941
     22          6           0       -8.470705    6.205972    0.349626
     23          6           0       -9.366644    6.429643   -0.673541
     24          7           0       -9.269130    0.775727   -0.362597
     25          6           0       -9.963710    1.923352   -0.554960
     26          6           0      -11.355047    1.635121   -0.848859
     27          6           0      -11.462402    0.273301   -0.989763
     28          6           0      -10.090302   -0.197339   -0.758468
     29          6           0      -12.317583    2.756847   -1.221832
     30          6           0      -12.596329   -0.482792   -1.594811
     31          6           0      -12.519893   -0.708026   -3.051003
     32          7           0       -7.464496   -1.335484   -0.197260
     33          6           0       -8.662236   -2.110642   -0.434780
     34          6           0       -8.215571   -3.490002   -0.517829
     35          6           0       -6.848476   -3.480499   -0.109612
     36          6           0       -6.413855   -2.149753    0.006316
     37          6           0       -9.065555   -4.725717   -0.768902
     38          6           0       -5.729066   -4.310289    0.060272
     39          8           0       -5.656427   -5.529647    0.077188
     40          6           0       -4.437421   -3.318208    0.390789
     41          6           0       -3.692265   -3.740900    1.687224
     42          8           0       -3.989603   -3.258597    2.821086
     43          8           0       -2.802650   -4.665953    1.391196
     44          6           0       -2.083945   -5.241553    2.462765
     45          6           0        2.705371   -0.942688   -1.182574
     46          6           0        4.087188   -0.647651   -0.676160
     47          6           0        4.974306    0.168349   -1.152709
     48          6           0        4.952784    0.736463   -2.556221
     49          6           0        6.293622    0.432783   -0.351290
     50          6           0        7.546376   -0.189011   -1.003814
     51          6           0        8.846193    0.149290   -0.261470
     52          6           0       10.157523   -0.603293   -0.741288
     53          6           0       10.091631   -2.141708   -0.489689
     54          6           0       11.288830   -0.035286   -0.054161
     55          6           0       12.639979   -0.665955   -0.454103
     56          6           0       13.858023    0.082355    0.206662
     57          6           0       15.212370   -0.283961   -0.329949
     58          6           0       15.602326   -1.812865   -0.170501
     59          6           0       16.320406    0.496796    0.419510
     60          6           0       17.701580    0.512766   -0.198370
     61          6           0       18.753564    1.458475    0.657539
     62          6           0       20.130143    1.512408    0.068596
     63          6           0       20.313681    1.922340   -1.395242
     64          6           0       20.938950    2.439937    1.029378
     65          1           0       -4.176525    3.295162    1.757577
     66          1           0      -10.385086    4.163080   -0.356045
     67          1           0      -10.669125   -2.378053   -0.874379
     68          1           0       -2.573861   -1.224562    1.987754
     69          1           0       -2.331153    1.611354    1.374037
     70          1           0       -1.901517    0.518481    3.548746
     71          1           0       -2.911134    1.950877    3.910894
     72          1           0       -3.716339    0.406451    3.749807
     73          1           0       -2.192754   -1.435098   -0.505075
     74          1           0       -2.302187    0.323302   -0.869921
     75          1           0       -0.300758    0.350832    1.025393
     76          1           0       -0.400712   -1.305845    1.107008
     77          1           0       -4.652822    5.997115    0.858663
     78          1           0       -5.889416    6.911837    1.741278
     79          1           0       -4.947934    5.441336    2.528390
     80          1           0       -8.183411    6.915957    1.082226
     81          1           0       -9.842672    5.741747   -1.463298
     82          1           0       -9.882211    7.358706   -0.613655
     83          1           0      -12.464242    3.522974   -0.376365
     84          1           0      -11.974233    3.310990   -2.058607
     85          1           0      -13.200535    2.386635   -1.677272
     86          1           0      -12.800380   -1.438435   -1.067281
     87          1           0      -13.337717    0.212348   -1.334618
     88          1           0      -12.555354    0.167377   -3.641291
     89          1           0      -11.594085   -1.260136   -3.418782
     90          1           0      -13.544132   -0.967306   -3.397473
     91          1           0       -9.690608   -5.010189    0.071128
     92          1           0       -9.700805   -4.425468   -1.635550
     93          1           0       -8.294770   -5.616139   -1.174315
     94          1           0       -3.749934   -3.399593   -0.434137
     95          1           0       -1.482369   -6.271974    2.159956
     96          1           0       -1.136054   -4.528307    2.852921
     97          1           0       -2.791903   -5.556057    3.290481
     98          1           0        2.245869   -2.102911   -1.574401
     99          1           0        2.647882   -0.249931   -2.131451
    100          1           0        4.087742   -0.913478    0.268399
    101          1           0        5.229051    1.751428   -2.639195
    102          1           0        5.894101   -0.008953   -3.040009
    103          1           0        4.085749    0.393295   -3.102666
    104          1           0        6.458549    1.498854   -0.175460
    105          1           0        6.244590    0.164510    0.740869
    106          1           0        7.092218   -1.371580   -1.202109
    107          1           0        7.583357    0.286200   -1.918248
    108          1           0        9.078379    1.312993   -0.340177
    109          1           0        8.770406   -0.040243    1.018516
    110          1           0       10.249628   -0.505486   -1.942692
    111          1           0        9.111931   -2.715724   -1.126879
    112          1           0       11.080997   -2.891236   -0.711282
    113          1           0        9.723682   -2.172866    0.761966
    114          1           0       11.413238    1.065259   -0.290985
    115          1           0       11.292122   -0.072214    1.027572
    116          1           0       12.641830   -1.826195   -0.044711
    117          1           0       12.650744   -0.700505   -1.650756
    118          1           0       13.321504    1.074905   -0.060200
    119          1           0       13.644851   -0.098136    1.413579
    120          1           0       15.146928    0.218671   -1.414197
    121          1           0       14.902421   -2.571892   -0.674931
    122          1           0       16.677526   -1.941886   -0.534433
    123          1           0       15.607754   -1.992243    1.089804
    124          1           0       16.061504    1.592667    0.478532
    125          1           0       16.308974    0.344888    1.649377
    126          1           0       18.058678   -0.536127   -0.033706
    127          1           0       17.736922    0.865737   -1.249004
    128          1           0       18.222472    2.573400    0.636516
    129          1           0       18.760090    1.158585    1.801998
    130          1           0       20.716518    0.470902    0.228144
    131          1           0       20.337945    2.991270   -1.613030
    132          1           0       21.397707    1.760640   -1.699891
    133          1           0       19.464246    1.533531   -2.210047
    134          1           0       20.828435    2.310455    2.052076
    135          1           0       21.956769    2.588692    0.590852
    136          1           0       20.474967    3.410199    0.971572
    137          1           0       -7.225841    1.657343    0.317742
    138          1           0       -7.547820   -0.126015   -0.083542
 ---------------------------------------------------------------------

 SCF Done:  E(RB3LYP) =  -2733.01194150     A.U. after   16 cycles

 Excitation energies and oscillator strengths:

 Excited State   1:      Singlet-A      2.0700 eV  598.96 nm  f=0.1874  <S**2>=0.000
     235 -> 237       -0.19804
     235 -> 238        0.24790
     236 -> 237        0.61120
     236 -> 238        0.15482
 This state for optimization and/or second-order correction.
 Total Energy, E(TD-HF/TD-DFT) =  -2732.93587119
 Copying the excited state density for this state as the 1-particle RhoCI density.

 The electronic state is 1-A.
 Alpha  occ. eigenvalues --  -19.19824 -19.17701 -19.14270 -19.11935 -19.11351
 Alpha  occ. eigenvalues --  -14.37491 -14.36774 -14.31945 -14.30697 -10.32147
 Alpha  occ. eigenvalues --  -10.32091 -10.27481 -10.27043 -10.26053 -10.24487
 Alpha  occ. eigenvalues --  -10.23855 -10.23221 -10.23022 -10.22900 -10.22740
 Alpha  occ. eigenvalues --  -10.22532 -10.22098 -10.21773 -10.21616 -10.21502
 Alpha  occ. eigenvalues --  -10.21492 -10.21459 -10.21261 -10.20939 -10.20867
 Alpha  occ. eigenvalues --  -10.20862 -10.20803 -10.20785 -10.20767 -10.20735
 Alpha  occ. eigenvalues --  -10.20690 -10.20644 -10.20605 -10.20521 -10.20487
 Alpha  occ. eigenvalues --  -10.20466 -10.20409 -10.20275 -10.20253 -10.20176
 Alpha  occ. eigenvalues --  -10.20145 -10.19874 -10.19811 -10.19736 -10.19666
 Alpha  occ. eigenvalues --  -10.19536 -10.19040 -10.18938 -10.18914 -10.18822
 Alpha  occ. eigenvalues --  -10.18807 -10.18530 -10.18283 -10.18198 -10.18196
 Alpha  occ. eigenvalues --  -10.18108 -10.17946 -10.17384 -10.17113  -1.10750
 Alpha  occ. eigenvalues --   -1.08309  -1.01574  -1.01381  -0.98454  -0.98130
 Alpha  occ. eigenvalues --   -0.96333  -0.95360  -0.94556  -0.83494  -0.83034
 Alpha  occ. eigenvalues --   -0.82120  -0.81647  -0.81174  -0.80696  -0.80631
 Alpha  occ. eigenvalues --   -0.80200  -0.79391  -0.79177  -0.78822  -0.77205
 Alpha  occ. eigenvalues --   -0.76269  -0.75747  -0.75511  -0.74528  -0.74184
 Alpha  occ. eigenvalues --   -0.73410  -0.73157  -0.72201  -0.70702  -0.70405
 Alpha  occ. eigenvalues --   -0.69679  -0.69407  -0.68171  -0.67696  -0.67357
 Alpha  occ. eigenvalues --   -0.67214  -0.65730  -0.65337  -0.65252  -0.64740
 Alpha  occ. eigenvalues --   -0.63874  -0.62504  -0.62351  -0.61854  -0.61051
 Alpha  occ. eigenvalues --   -0.60773  -0.58498  -0.58042  -0.57605  -0.56543
 Alpha  occ. eigenvalues --   -0.56037  -0.55647  -0.55565  -0.55149  -0.54266
 Alpha  occ. eigenvalues --   -0.54150  -0.53960  -0.53882  -0.53246  -0.52944
 Alpha  occ. eigenvalues --   -0.52839  -0.51703  -0.50912  -0.50467  -0.49683
 Alpha  occ. eigenvalues --   -0.49570  -0.49447  -0.48944  -0.48635  -0.47820
 Alpha  occ. eigenvalues --   -0.47680  -0.47550  -0.47106  -0.46929  -0.46740
 Alpha  occ. eigenvalues --   -0.46629  -0.46114  -0.45950  -0.45827  -0.45563
 Alpha  occ. eigenvalues --   -0.45225  -0.45049  -0.44749  -0.44541  -0.44277
 Alpha  occ. eigenvalues --   -0.44069  -0.43875  -0.43723  -0.43628  -0.43407
 Alpha  occ. eigenvalues --   -0.43236  -0.42912  -0.42817  -0.42686  -0.42461
 Alpha  occ. eigenvalues --   -0.42098  -0.42013  -0.41861  -0.41557  -0.41370
 Alpha  occ. eigenvalues --   -0.41306  -0.40805  -0.40479  -0.40401  -0.40108
 Alpha  occ. eigenvalues --   -0.40049  -0.39896  -0.39742  -0.39416  -0.39136
 Alpha  occ. eigenvalues --   -0.38913  -0.38810  -0.38684  -0.38330  -0.38173
 Alpha  occ. eigenvalues --   -0.38105  -0.37994  -0.37836  -0.37457  -0.37322
 Alpha  occ. eigenvalues --   -0.37078  -0.36853  -0.36685  -0.36617  -0.36425
 Alpha  occ. eigenvalues --   -0.36325  -0.36069  -0.36012  -0.35662  -0.35539
 Alpha  occ. eigenvalues --   -0.35169  -0.34992  -0.34745  -0.34691  -0.34523
 Alpha  occ. eigenvalues --   -0.34421  -0.34210  -0.33920  -0.33557  -0.33471
 Alpha  occ. eigenvalues --   -0.33273  -0.33147  -0.32903  -0.32641  -0.32463
 Alpha  occ. eigenvalues --   -0.32384  -0.31801  -0.31397  -0.31342  -0.31023
 Alpha  occ. eigenvalues --   -0.30828  -0.30484  -0.30346  -0.30308  -0.29857
 Alpha  occ. eigenvalues --   -0.29596  -0.29218  -0.29149  -0.28193  -0.28077
 Alpha  occ. eigenvalues --   -0.27256  -0.26982  -0.26434  -0.26148  -0.25613
 Alpha  occ. eigenvalues --   -0.25340  -0.24216  -0.24157  -0.23125  -0.20179
 Alpha  occ. eigenvalues --   -0.19004
 Alpha virt. eigenvalues --   -0.10646  -0.07554  -0.04193  -0.02165  -0.00963
 Alpha virt. eigenvalues --   -0.00636  -0.00320   0.00598   0.02404   0.03063
 Alpha virt. eigenvalues --    0.03456   0.03867   0.04140   0.04184   0.04345

 Mulliken charges:
               1
     1  C    0.101903
     2  C   -0.024419
     3  C   -0.138690
     4  C   -0.099607
     5  N   -0.115752
     6  C   -0.119550
     7  C   -0.053177
     8  C   -0.084764
     9  C   -0.052800
    10  C    0.061453
    11  C    0.105389
    12  C    0.016193
    13  C    0.223825
    14  O   -0.199321
    15  O   -0.350350
    16  N   -0.114381
    17  C    0.169340
    18  C   -0.062800
    19  C   -0.064750
    20  C    0.087771
    21  C    0.016945
    22  C    0.003223
    23  C   -0.036231
    24  N   -0.239683
    25  C    0.087957
    26  C   -0.146683
    27  C   -0.140082
    28  C    0.106495
    29  C    0.118635
    30  C    0.114427
    31  C    0.054664
    32  N   -0.179639
    33  C    0.069636
    34  C   -0.149531
    35  C    0.062404
    36  C    0.046530
    37  C    0.038628
    38  C    0.025410
    39  O   -0.186321
    40  C   -0.066226
    41  C    0.224601
    42  O   -0.282932
    43  O   -0.238511
    44  C    0.078194
    45  C    0.152266
    46  C    0.005263
    47  C   -0.120773
    48  C    0.053017
    49  C    0.055329
    50  C    0.032152
    51  C   -0.056283
    52  C   -0.038824
    53  C   -0.130558
    54  C    0.052604
    55  C   -0.098826
    56  C   -0.023606
    57  C   -0.006402
    58  C   -0.033762
    59  C   -0.050584
    60  C    0.061822
    61  C   -0.085863
    62  C   -0.079985
    63  C   -0.014240
    64  C    0.087578
    65  H   -0.091992
    66  H    0.050836
    67  H    0.016601
    68  H    0.027704
    69  H    0.001792
    70  H    0.020040
    71  H    0.003617
    72  H    0.032593
    73  H   -0.018267
    74  H    0.038538
    75  H    0.028829
    76  H    0.000104
    77  H    0.031432
    78  H    0.040260
    79  H    0.037043
    80  H   -0.007721
    81  H    0.056501
    82  H    0.015080
    83  H    0.039807
    84  H    0.000260
    85  H   -0.017369
    86  H   -0.000968
    87  H   -0.016979
    88  H   -0.028438
    89  H    0.033025
    90  H   -0.000575
    91  H    0.050825
    92  H    0.026474
    93  H    0.070658
    94  H    0.038729
    95  H    0.058043
    96  H    0.052594
    97  H    0.062979
    98  H    0.053237
    99  H    0.017479
   100  H   -0.062162
   101  H    0.028230
   102  H    0.044772
   103  H    0.018165
   104  H   -0.017347
   105  H   -0.004845
   106  H    0.041739
   107  H   -0.012896
   108  H    0.022551
   109  H    0.017895
   110  H    0.013973
   111  H    0.035197
   112  H    0.068975
   113  H    0.021631
   114  H   -0.005598
   115  H   -0.011678
   116  H    0.025547
   117  H    0.009355
   118  H    0.004727
   119  H    0.012120
   120  H    0.011233
   121  H    0.040167
   122  H    0.033470
   123  H    0.029568
   124  H   -0.020728
   125  H    0.005678
   126  H    0.006624
   127  H    0.010149
   128  H    0.009706
   129  H    0.020828
   130  H    0.016891
   131  H   -0.004127
   132  H    0.013421
   133  H    0.040684
   134  H   -0.014904
   135  H    0.005382
   136  H   -0.027120
   137  H    0.179166
   138  H    0.243036
 Sum of Mulliken charges =  -0.00000

 Dipole moment (field-independent basis, Debye):
    X=              2.4448    Y=              5.6233    Z=             -0.5141  Tot=              6.1533
 Quadrupole moment (field-independent basis, Debye-Ang):
   XX=           -340.4316   YY=           -385.4255   ZZ=           -398.1333
   XY=            -21.2511   XZ=             11.3204   YZ=             -0.4126

 Normal termination of Gaussian 16 at Sat Aug 24 09:14:05 2019.
