 Gaussian 16, Revision A.03,
 Gaussian 16:  ES64L-G16RevA.03 25-Dec-2016

 --------------------------
 # td=(NStates=1) B3LYP/SVP
 --------------------------

 --
 TD
 --
 Symbolic Z-matrix:
 Charge =  0 Multiplicity = 1

                         Standard orientation:
 ---------------------------------------------------------------------
 Center     Atomic      Atomic             Coordinates (Angstroms)
 Number     Number       Type             X           Y           Z
 ---------------------------------------------------------------------
      1          6           0       -5.124725   -1.997131    0.491724
      2          6           0       -4.743404    2.687093    1.368292
      3          6           0       -9.333185    3.414835   -0.205287
      4          6           0       -9.831937   -1.422170   -0.828253
      5          7           0       -5.226337    0.402487    0.736798
      6          6           0       -4.535687   -0.787681    0.719985
      7          6           0       -3.076961   -0.605237    1.085108
      8          6           0       -3.050441    0.872096    1.647113
      9          6           0       -4.372059    1.353716    1.166643
     10          6           0       -2.969235    0.899102    3.217120
     11          6           0       -2.104998   -0.715161   -0.073194
     12          6           0       -0.618565   -0.857012    0.367741
     13          6           0        0.386545   -0.947143   -0.812467
     14          8           0        0.134721   -1.489834   -1.802373
     15          8           0        1.677351   -0.678681   -0.476947
     16          7           0       -7.065447    2.778062    0.573152
     17          6           0       -5.903695    3.442383    0.996548
     18          6           0       -6.134629    4.766168    1.025169
     19          6           0       -7.492329    5.055400    0.501547
     20          6           0       -7.990471    3.725170    0.211142
     21          6           0       -5.232371    5.731940    1.557332
     22          6           0       -8.079487    6.371771    0.410784
     23          6           0       -8.914638    6.681916   -0.582821
     24          7           0       -9.089808    0.898064   -0.487553
     25          6           0       -9.803210    2.114556   -0.545415
     26          6           0      -11.214425    1.942927   -0.879800
     27          6           0      -11.404301    0.589185   -1.017325
     28          6           0      -10.057031   -0.046156   -0.745891
     29          6           0      -12.280726    3.082038   -0.940698
     30          6           0      -12.694624   -0.285690   -1.319189
     31          6           0      -12.792338   -0.529863   -2.974454
     32          7           0       -7.482857   -1.334878   -0.158695
     33          6           0       -8.611178   -2.074151   -0.596651
     34          6           0       -8.157133   -3.454948   -0.575962
     35          6           0       -6.907592   -3.451534   -0.217110
     36          6           0       -6.437512   -2.178917    0.005918
     37          6           0       -9.101962   -4.588101   -0.888879
     38          6           0       -5.651150   -4.333333    0.087765
     39          8           0       -5.490297   -5.482989    0.053668
     40          6           0       -4.513587   -3.360846    0.468524
     41          6           0       -3.821013   -3.832814    1.700153
     42          8           0       -4.146747   -3.472182    2.836290
     43          8           0       -2.995235   -4.874572    1.526039
     44          6           0       -2.609069   -5.598386    2.729612
     45          6           0        2.654272   -0.880608   -1.471330
     46          6           0        3.908028   -0.700937   -0.829072
     47          6           0        4.939356    0.114858   -1.117455
     48          6           0        4.955338    0.950951   -2.356580
     49          6           0        6.250935    0.071364   -0.327062
     50          6           0        7.534027   -0.405056   -1.145483
     51          6           0        8.772554   -0.328403   -0.188579
     52          6           0       10.025291   -0.813962   -0.880815
     53          6           0       10.023344   -2.295061   -1.307823
     54          6           0       11.325661   -0.465389    0.077040
     55          6           0       12.666737   -0.564711   -0.675780
     56          6           0       13.777206   -0.181542    0.388457
     57          6           0       15.130131   -0.217187   -0.291181
     58          6           0       15.711895   -1.691823   -0.643627
     59          6           0       16.220012    0.644745    0.515643
     60          6           0       17.617235    0.859409   -0.090512
     61          6           0       18.456256    1.655060    0.750974
     62          6           0       19.951256    1.617343    0.365351
     63          6           0       20.111828    2.536478   -0.972962
     64          6           0       20.926241    2.242119    1.393398
     65          1           0       -4.008042    3.325006    1.910330
     66          1           0      -10.054752    4.162880   -0.171539
     67          1           0      -10.705800   -2.055797   -1.256775
     68          1           0       -2.714271   -1.179609    1.977648
     69          1           0       -2.193389    1.528192    1.225761
     70          1           0       -2.322184    0.210961    3.602652
     71          1           0       -2.800168    1.887628    3.609614
     72          1           0       -3.895215    0.507080    3.571121
     73          1           0       -2.477363   -1.675191   -0.730829
     74          1           0       -2.167232    0.245567   -0.581425
     75          1           0       -0.443262    0.146841    0.965246
     76          1           0       -0.309933   -1.746261    1.057408
     77          1           0       -4.320047    5.560468    0.734956
     78          1           0       -5.674846    6.899260    1.661101
     79          1           0       -4.955065    5.406157    2.582990
     80          1           0       -7.824895    7.173080    1.144270
     81          1           0       -9.379727    6.129406   -1.552602
     82          1           0       -9.406298    7.744561   -0.653043
     83          1           0      -12.406337    3.406417   -0.005474
     84          1           0      -11.902555    4.049047   -1.594382
     85          1           0      -13.228912    2.871204   -1.247815
     86          1           0      -12.812302   -1.233794   -0.895202
     87          1           0      -13.421966    0.472467   -1.114614
     88          1           0      -12.899316    0.505668   -3.532446
     89          1           0      -11.745441   -0.823208   -3.234084
     90          1           0      -13.585658   -1.161227   -3.154588
     91          1           0      -10.028433   -4.501953   -0.289918
     92          1           0       -9.551035   -4.305932   -1.963040
     93          1           0       -8.595042   -5.543356   -0.681230
     94          1           0       -3.888049   -3.483041   -0.475555
     95          1           0       -1.740079   -6.260381    2.626434
     96          1           0       -2.267526   -4.977283    3.735086
     97          1           0       -3.607618   -6.094981    3.102323
     98          1           0        2.570933   -1.995035   -1.720532
     99          1           0        2.660139   -0.083740   -2.266372
    100          1           0        4.016307   -1.521373    0.064534
    101          1           0        5.662901    1.847301   -1.999980
    102          1           0        5.511956    0.502024   -3.238699
    103          1           0        4.023879    1.233673   -2.785889
    104          1           0        6.380845    1.151164   -0.122141
    105          1           0        5.951071   -0.407979    0.624591
    106          1           0        7.495120   -1.373697   -1.865925
    107          1           0        7.687777    0.493813   -1.910895
    108          1           0        8.942543    0.738116    0.035135
    109          1           0        8.540189   -1.117256    0.631938
    110          1           0       10.215350   -0.090399   -1.764035
    111          1           0        9.180520   -2.521648   -2.130798
    112          1           0       10.993277   -2.645999   -1.710926
    113          1           0        9.738467   -3.094675   -0.405782
    114          1           0       11.284313    0.523372    0.625748
    115          1           0       11.317877   -1.180988    0.916394
    116          1           0       12.746100   -1.547375   -1.047350
    117          1           0       12.586729    0.266163   -1.626090
    118          1           0       13.691594    0.870927    0.668014
    119          1           0       13.839549   -0.784141    1.458166
    120          1           0       14.855675    0.470815   -1.258311
    121          1           0       14.904054   -2.042496   -1.288209
    122          1           0       16.764581   -1.314468   -1.224979
    123          1           0       15.929538   -2.390591    0.165233
    124          1           0       15.668141    1.592115    0.458417
    125          1           0       16.144279    0.114773    1.438798
    126          1           0       17.948139   -0.143139   -0.197699
    127          1           0       17.534753    1.146416   -1.157102
    128          1           0       18.015430    2.896157    0.819815
    129          1           0       18.437431    1.237423    1.778298
    130          1           0       20.436727    0.732662    0.337797
    131          1           0       20.170648    3.604079   -0.813838
    132          1           0       21.220031    2.216671   -1.434837
    133          1           0       19.337844    2.373985   -1.827411
    134          1           0       21.112717    1.813089    2.335255
    135          1           0       21.980544    2.177358    1.056476
    136          1           0       20.480155    3.322466    1.631708
    137          1           0       -7.161863    1.923724    0.239817
    138          1           0       -7.541572   -0.273273   -0.084601
 ---------------------------------------------------------------------

 SCF Done:  E(RB3LYP) =  -2733.07650881     A.U. after   17 cycles

 Excitation energies and oscillator strengths:

 Excited State   1:      Singlet-A      2.0323 eV  610.06 nm  f=0.1527  <S**2>=0.000
     235 -> 237       -0.26515
     235 -> 238       -0.27027
     236 -> 237        0.56936
     236 -> 238       -0.17479
 This state for optimization and/or second-order correction.
 Total Energy, E(TD-HF/TD-DFT) =  -2733.00182259
 Copying the excited state density for this state as the 1-particle RhoCI density.

 The electronic state is 1-A.
 Alpha  occ. eigenvalues --  -19.18578 -19.16395 -19.13561 -19.12073 -19.11783
 Alpha  occ. eigenvalues --  -14.36136 -14.35292 -14.32212 -14.30698 -10.31775
 Alpha  occ. eigenvalues --  -10.30731 -10.28921 -10.26276 -10.24164 -10.23488
 Alpha  occ. eigenvalues --  -10.23285 -10.22671 -10.22595 -10.22555 -10.22225
 Alpha  occ. eigenvalues --  -10.21930 -10.21829 -10.21792 -10.21730 -10.21661
 Alpha  occ. eigenvalues --  -10.21266 -10.21151 -10.20987 -10.20788 -10.20749
 Alpha  occ. eigenvalues --  -10.20719 -10.20616 -10.20603 -10.20589 -10.20375
 Alpha  occ. eigenvalues --  -10.20094 -10.19962 -10.19947 -10.19898 -10.19826
 Alpha  occ. eigenvalues --  -10.19818 -10.19754 -10.19728 -10.19642 -10.19628
 Alpha  occ. eigenvalues --  -10.19568 -10.19484 -10.19444 -10.19419 -10.19398
 Alpha  occ. eigenvalues --  -10.19387 -10.19364 -10.19271 -10.19251 -10.19204
 Alpha  occ. eigenvalues --  -10.19143 -10.19038 -10.18595 -10.18450 -10.18275
 Alpha  occ. eigenvalues --  -10.17992 -10.17505 -10.17402 -10.17394  -1.10587
 Alpha  occ. eigenvalues --   -1.09359  -1.06866  -1.01968  -0.99069  -0.97985
 Alpha  occ. eigenvalues --   -0.97653  -0.94200  -0.91999  -0.85337  -0.82315
 Alpha  occ. eigenvalues --   -0.82195  -0.81641  -0.81040  -0.80806  -0.80480
 Alpha  occ. eigenvalues --   -0.80338  -0.79045  -0.78879  -0.77973  -0.77431
 Alpha  occ. eigenvalues --   -0.76648  -0.75847  -0.75618  -0.74668  -0.73750
 Alpha  occ. eigenvalues --   -0.73125  -0.72900  -0.72248  -0.70957  -0.70562
 Alpha  occ. eigenvalues --   -0.70042  -0.69167  -0.68721  -0.68061  -0.67391
 Alpha  occ. eigenvalues --   -0.66611  -0.66077  -0.66036  -0.65339  -0.64699
 Alpha  occ. eigenvalues --   -0.64214  -0.62611  -0.61763  -0.61585  -0.61106
 Alpha  occ. eigenvalues --   -0.60557  -0.58979  -0.58390  -0.57261  -0.57098
 Alpha  occ. eigenvalues --   -0.56716  -0.55981  -0.55572  -0.55013  -0.54958
 Alpha  occ. eigenvalues --   -0.54339  -0.54291  -0.53894  -0.52893  -0.52585
 Alpha  occ. eigenvalues --   -0.52169  -0.52007  -0.51407  -0.51334  -0.50647
 Alpha  occ. eigenvalues --   -0.49895  -0.49416  -0.49093  -0.48488  -0.47920
 Alpha  occ. eigenvalues --   -0.47668  -0.47544  -0.47330  -0.47065  -0.46993
 Alpha  occ. eigenvalues --   -0.46622  -0.46580  -0.46330  -0.46055  -0.45825
 Alpha  occ. eigenvalues --   -0.45420  -0.45303  -0.44987  -0.44725  -0.44529
 Alpha  occ. eigenvalues --   -0.44406  -0.44190  -0.43836  -0.43627  -0.43498
 Alpha  occ. eigenvalues --   -0.43328  -0.43039  -0.42816  -0.42590  -0.42500
 Alpha  occ. eigenvalues --   -0.42400  -0.42003  -0.41854  -0.41560  -0.41153
 Alpha  occ. eigenvalues --   -0.40903  -0.40844  -0.40651  -0.40491  -0.40157
 Alpha  occ. eigenvalues --   -0.40027  -0.39820  -0.39657  -0.39347  -0.39303
 Alpha  occ. eigenvalues --   -0.39234  -0.38892  -0.38748  -0.38554  -0.38397
 Alpha  occ. eigenvalues --   -0.38213  -0.37883  -0.37614  -0.37437  -0.37350
 Alpha  occ. eigenvalues --   -0.37201  -0.37090  -0.36949  -0.36664  -0.36388
 Alpha  occ. eigenvalues --   -0.36316  -0.36258  -0.36216  -0.35836  -0.35447
 Alpha  occ. eigenvalues --   -0.35333  -0.35117  -0.34948  -0.34851  -0.34654
 Alpha  occ. eigenvalues --   -0.34478  -0.34367  -0.34324  -0.34282  -0.33946
 Alpha  occ. eigenvalues --   -0.33575  -0.33411  -0.33342  -0.32601  -0.32153
 Alpha  occ. eigenvalues --   -0.31949  -0.31661  -0.31399  -0.31247  -0.31138
 Alpha  occ. eigenvalues --   -0.31079  -0.30564  -0.30373  -0.30224  -0.30043
 Alpha  occ. eigenvalues --   -0.29544  -0.28223  -0.28017  -0.27779  -0.27585
 Alpha  occ. eigenvalues --   -0.27447  -0.27361  -0.27241  -0.26646  -0.26286
 Alpha  occ. eigenvalues --   -0.25753  -0.23996  -0.23261  -0.22955  -0.19591
 Alpha  occ. eigenvalues --   -0.18836
 Alpha virt. eigenvalues --   -0.10415  -0.07491  -0.03327  -0.01845  -0.00763
 Alpha virt. eigenvalues --    0.00119   0.00614   0.00909   0.01945   0.03259
 Alpha virt. eigenvalues --    0.03593   0.03890   0.04041   0.04510   0.04709

 Mulliken charges:
               1
     1  C    0.070819
     2  C   -0.072146
     3  C   -0.067742
     4  C   -0.114667
     5  N   -0.164801
     6  C   -0.066309
     7  C   -0.029370
     8  C   -0.136537
     9  C    0.013079
    10  C    0.142569
    11  C    0.054268
    12  C   -0.036369
    13  C    0.159413
    14  O   -0.181765
    15  O   -0.319643
    16  N    0.011010
    17  C    0.103196
    18  C   -0.109082
    19  C    0.049889
    20  C    0.067681
    21  C   -0.024225
    22  C   -0.028876
    23  C   -0.119755
    24  N   -0.279311
    25  C    0.091343
    26  C   -0.146357
    27  C   -0.124886
    28  C    0.070114
    29  C    0.152509
    30  C    0.098254
    31  C   -0.030592
    32  N   -0.094845
    33  C    0.080045
    34  C   -0.213897
    35  C    0.026231
    36  C    0.035148
    37  C    0.091606
    38  C    0.053089
    39  O   -0.089735
    40  C   -0.009417
    41  C    0.209970
    42  O   -0.255283
    43  O   -0.280778
    44  C    0.118380
    45  C    0.313501
    46  C   -0.153515
    47  C   -0.154505
    48  C    0.032898
    49  C    0.094208
    50  C   -0.065120
    51  C    0.063586
    52  C   -0.072675
    53  C   -0.041473
    54  C    0.000034
    55  C    0.008371
    56  C    0.013593
    57  C   -0.169265
    58  C   -0.002100
    59  C    0.027007
    60  C    0.096017
    61  C    0.028723
    62  C   -0.029325
    63  C   -0.045948
    64  C    0.000682
    65  H   -0.031041
    66  H   -0.047375
    67  H    0.006327
    68  H    0.019295
    69  H    0.014625
    70  H   -0.014130
    71  H    0.011686
    72  H    0.004881
    73  H    0.044088
    74  H    0.007918
    75  H    0.032003
    76  H    0.060789
    77  H    0.060304
    78  H    0.045972
    79  H    0.045845
    80  H    0.023894
    81  H    0.062285
    82  H    0.026536
    83  H   -0.006782
    84  H    0.031520
    85  H   -0.016063
    86  H    0.006519
    87  H   -0.000930
    88  H    0.024015
    89  H    0.027260
    90  H    0.014340
    91  H    0.022771
    92  H    0.041856
    93  H    0.045685
    94  H    0.069123
    95  H    0.047181
    96  H    0.048591
    97  H    0.055813
    98  H    0.026453
    99  H    0.004744
   100  H    0.000858
   101  H    0.016388
   102  H    0.038844
   103  H    0.012910
   104  H    0.000822
   105  H    0.003922
   106  H    0.039056
   107  H    0.002277
   108  H    0.006897
   109  H    0.014708
   110  H   -0.006064
   111  H    0.030211
   112  H    0.023305
   113  H    0.026361
   114  H   -0.005465
   115  H   -0.012194
   116  H   -0.000111
   117  H    0.026522
   118  H   -0.010801
   119  H    0.016698
   120  H   -0.002841
   121  H    0.013666
   122  H    0.037533
   123  H    0.024046
   124  H   -0.011445
   125  H   -0.010591
   126  H   -0.029181
   127  H   -0.008988
   128  H    0.013797
   129  H   -0.008714
   130  H   -0.024705
   131  H    0.016191
   132  H    0.012267
   133  H    0.027318
   134  H   -0.011959
   135  H    0.004224
   136  H    0.015039
   137  H    0.078704
   138  H    0.177582
 Sum of Mulliken charges =  -0.00000

 Dipole moment (field-independent basis, Debye):
    X=              1.1226    Y=              2.8651    Z=              0.6475  Tot=              3.1445
 Quadrupole moment (field-independent basis, Debye-Ang):
   XX=           -343.6880   YY=           -379.5055   ZZ=           -398.5627
   XY=            -28.9097   XZ=             12.8288   YZ=             -2.8279

 Normal termination of Gaussian 16 at Thu Aug 29 01:15:37 2019.
