 Gaussian 16, Revision A.03,
 Gaussian 16:  ES64L-G16RevA.03 25-Dec-2016

 --------------------------
 # td=(NStates=1) B3LYP/SVP
 --------------------------

 --
 TD
 --
 Symbolic Z-matrix:
 Charge =  0 Multiplicity = 1

                         Standard orientation:
 ---------------------------------------------------------------------
 Center     Atomic      Atomic             Coordinates (Angstroms)
 Number     Number       Type             X           Y           Z
 ---------------------------------------------------------------------
      1          6           0       -5.117293   -2.005165    0.487400
      2          6           0       -4.666427    2.582843    1.460784
      3          6           0       -9.202260    3.428820   -0.215276
      4          6           0       -9.799708   -1.285992   -0.954657
      5          7           0       -5.173261    0.387314    0.816322
      6          6           0       -4.527410   -0.773148    0.795308
      7          6           0       -3.052733   -0.682106    1.299531
      8          6           0       -3.059464    0.724627    1.863784
      9          6           0       -4.375728    1.344372    1.265539
     10          6           0       -2.993918    0.727104    3.350370
     11          6           0       -2.064565   -0.859521    0.103459
     12          6           0       -0.574134   -0.869291    0.491244
     13          6           0        0.376218   -1.283172   -0.440504
     14          8           0        0.099071   -1.674025   -1.528636
     15          8           0        1.679039   -0.856541   -0.114601
     16          7           0       -6.965711    2.774940    0.550217
     17          6           0       -5.796229    3.410888    1.108398
     18          6           0       -6.053544    4.750184    1.164050
     19          6           0       -7.294031    5.037326    0.589822
     20          6           0       -7.878260    3.692579    0.207429
     21          6           0       -5.029228    5.744137    1.690425
     22          6           0       -7.724865    6.398771    0.261434
     23          6           0       -8.805871    6.726716   -0.429843
     24          7           0       -9.054963    1.051787   -0.586992
     25          6           0       -9.765288    2.245339   -0.491275
     26          6           0      -11.208729    1.975726   -0.904153
     27          6           0      -11.351861    0.689598   -1.241197
     28          6           0       -9.953698    0.131944   -0.931231
     29          6           0      -12.236988    3.075110   -0.893916
     30          6           0      -12.457628   -0.094612   -1.703730
     31          6           0      -12.607965   -0.150987   -3.209187
     32          7           0       -7.412339   -1.250488   -0.147243
     33          6           0       -8.585079   -1.914115   -0.673024
     34          6           0       -8.232159   -3.382100   -0.747252
     35          6           0       -6.951074   -3.460436   -0.266186
     36          6           0       -6.417260   -2.139606   -0.074716
     37          6           0       -9.057726   -4.400864   -1.331673
     38          6           0       -5.796802   -4.347095   -0.146868
     39          8           0       -5.674890   -5.546310   -0.234361
     40          6           0       -4.658721   -3.422764    0.349735
     41          6           0       -4.090578   -3.973909    1.622442
     42          8           0       -4.263096   -3.515191    2.742206
     43          8           0       -3.227431   -4.974499    1.415966
     44          6           0       -2.807929   -5.705591    2.700385
     45          6           0        2.699212   -1.113309   -1.039463
     46          6           0        3.958085   -0.536636   -0.444656
     47          6           0        4.962084    0.139802   -1.176188
     48          6           0        4.693126    0.637396   -2.550301
     49          6           0        6.218393    0.388032   -0.363274
     50          6           0        7.440725   -0.343972   -1.015366
     51          6           0        8.676291    0.030387   -0.118141
     52          6           0       10.036613   -0.591437   -0.627114
     53          6           0        9.845273   -2.250170   -0.506664
     54          6           0       11.164736   -0.030341    0.155407
     55          6           0       12.449817   -0.619951   -0.470478
     56          6           0       13.739881    0.067905    0.264480
     57          6           0       15.187050   -0.280662   -0.347280
     58          6           0       15.392980   -1.761853   -0.479356
     59          6           0       16.240835    0.528831    0.466450
     60          6           0       17.710818    0.489334   -0.099186
     61          6           0       18.601080    1.561489    0.461260
     62          6           0       20.080711    1.572277    0.011491
     63          6           0       20.206606    2.116349   -1.451456
     64          6           0       20.825403    2.577744    0.897796
     65          1           0       -3.854310    3.348508    1.746402
     66          1           0       -9.804123    4.417649   -0.115645
     67          1           0      -10.669839   -1.967621   -1.225255
     68          1           0       -3.000660   -1.526585    2.058999
     69          1           0       -2.163708    1.290847    1.744081
     70          1           0       -2.143343    0.038362    3.964549
     71          1           0       -2.699394    1.753748    3.606474
     72          1           0       -4.004784    0.638085    3.772818
     73          1           0       -2.167285   -1.902559   -0.420486
     74          1           0       -2.150831   -0.058733   -0.604687
     75          1           0       -0.283965    0.019123    0.710611
     76          1           0       -0.405060   -1.372790    1.610594
     77          1           0       -4.171489    5.667722    1.110080
     78          1           0       -5.587463    6.688602    1.527110
     79          1           0       -4.776519    5.529674    2.606317
     80          1           0       -7.245320    7.053645    0.742998
     81          1           0       -9.312002    5.975398   -0.994008
     82          1           0       -8.882283    7.861133   -1.014956
     83          1           0      -12.290047    3.746530    0.010610
     84          1           0      -12.150446    3.857472   -1.763129
     85          1           0      -13.405253    2.535927   -0.972179
     86          1           0      -12.478245   -1.042711   -1.152129
     87          1           0      -13.335393    0.390186   -1.256398
     88          1           0      -12.538969    0.763653   -3.747633
     89          1           0      -11.766324   -0.926840   -3.540175
     90          1           0      -13.533729   -0.805292   -3.509179
     91          1           0      -10.157766   -4.275838   -0.935493
     92          1           0       -9.006277   -4.459844   -2.500564
     93          1           0       -8.646011   -5.448073   -1.090630
     94          1           0       -3.879701   -3.370307   -0.382490
     95          1           0       -2.593172   -6.779524    2.479841
     96          1           0       -1.944948   -5.062194    3.314706
     97          1           0       -3.771591   -5.769539    3.453971
     98          1           0        2.535496   -2.357050   -1.252646
     99          1           0        2.372508   -0.674185   -2.200600
    100          1           0        4.337089   -0.828780    0.543639
    101          1           0        4.770661    1.768465   -2.774676
    102          1           0        5.488177   -0.024068   -3.205883
    103          1           0        3.715623    0.339687   -3.000362
    104          1           0        6.521354    1.543219   -0.460337
    105          1           0        5.921094    0.128672    0.593613
    106          1           0        7.183047   -1.554989   -0.732937
    107          1           0        7.645184   -0.171547   -2.158793
    108          1           0        8.775555    1.091426   -0.138326
    109          1           0        8.501516   -0.339991    0.800774
    110          1           0       10.120427   -0.345227   -1.757601
    111          1           0        8.933995   -2.436474   -0.972416
    112          1           0       10.761275   -2.758927   -1.083600
    113          1           0       10.002308   -2.596815    0.607015
    114          1           0       11.161961    1.041541    0.118559
    115          1           0       10.914906   -0.206177    1.248047
    116          1           0       12.426300   -1.716939   -0.507648
    117          1           0       12.440503   -0.197337   -1.644225
    118          1           0       13.703737    1.258619    0.171407
    119          1           0       13.704906   -0.121129    1.375043
    120          1           0       15.068621    0.275422   -1.460064
    121          1           0       14.605485   -2.332099   -1.069762
    122          1           0       16.312007   -2.187835   -0.787233
    123          1           0       15.193583   -2.220990    0.581055
    124          1           0       16.088733    1.690013    0.456942
    125          1           0       16.360308    0.191867    1.538278
    126          1           0       18.147465   -0.462123   -0.225844
    127          1           0       17.619790    0.834215   -1.069369
    128          1           0       18.254460    2.495033    0.356991
    129          1           0       18.765620    1.332401    1.661756
    130          1           0       20.269121    0.576781   -0.020851
    131          1           0       19.745256    3.196569   -1.594375
    132          1           0       21.329205    1.802221   -1.838706
    133          1           0       19.617357    1.613114   -2.146453
    134          1           0       21.005914    2.424610    1.976585
    135          1           0       21.878624    2.526649    0.623372
    136          1           0       20.510416    3.689465    0.711862
    137          1           0       -7.024013    1.862729    0.410058
    138          1           0       -7.387649   -0.271144    0.072969
 ---------------------------------------------------------------------

 SCF Done:  E(RB3LYP) =  -2733.01739732     A.U. after   17 cycles

 Excitation energies and oscillator strengths:

 Excited State   1:      Singlet-A      1.9616 eV  632.05 nm  f=0.2201  <S**2>=0.000
     235 -> 238        0.25704
     236 -> 237        0.65713
 This state for optimization and/or second-order correction.
 Total Energy, E(TD-HF/TD-DFT) =  -2732.94530890
 Copying the excited state density for this state as the 1-particle RhoCI density.

 The electronic state is 1-A.
 Alpha  occ. eigenvalues --  -19.17884 -19.16197 -19.12836 -19.12650 -19.11753
 Alpha  occ. eigenvalues --  -14.37167 -14.36240 -14.32311 -14.30829 -10.31170
 Alpha  occ. eigenvalues --  -10.30702 -10.28326 -10.27244 -10.26487 -10.24704
 Alpha  occ. eigenvalues --  -10.23940 -10.23442 -10.23300 -10.23140 -10.22544
 Alpha  occ. eigenvalues --  -10.22313 -10.21859 -10.21788 -10.21698 -10.21415
 Alpha  occ. eigenvalues --  -10.21266 -10.20930 -10.20929 -10.20795 -10.20673
 Alpha  occ. eigenvalues --  -10.20602 -10.20587 -10.20286 -10.20267 -10.20168
 Alpha  occ. eigenvalues --  -10.20133 -10.20045 -10.19983 -10.19852 -10.19848
 Alpha  occ. eigenvalues --  -10.19764 -10.19719 -10.19563 -10.19465 -10.19411
 Alpha  occ. eigenvalues --  -10.19373 -10.19373 -10.19341 -10.19308 -10.19300
 Alpha  occ. eigenvalues --  -10.19277 -10.19241 -10.19157 -10.18955 -10.18923
 Alpha  occ. eigenvalues --  -10.18529 -10.18496 -10.18450 -10.18405 -10.18104
 Alpha  occ. eigenvalues --  -10.17989 -10.17361 -10.17250 -10.16542  -1.08830
 Alpha  occ. eigenvalues --   -1.08402  -1.03593  -1.01143  -0.98828  -0.98110
 Alpha  occ. eigenvalues --   -0.97855  -0.95626  -0.93567  -0.85583  -0.82920
 Alpha  occ. eigenvalues --   -0.82184  -0.82050  -0.81739  -0.81280  -0.81216
 Alpha  occ. eigenvalues --   -0.80703  -0.80443  -0.79451  -0.78798  -0.78590
 Alpha  occ. eigenvalues --   -0.77539  -0.76000  -0.75652  -0.74808  -0.73990
 Alpha  occ. eigenvalues --   -0.73552  -0.72797  -0.72342  -0.72079  -0.70809
 Alpha  occ. eigenvalues --   -0.70021  -0.69055  -0.68522  -0.67433  -0.67152
 Alpha  occ. eigenvalues --   -0.66856  -0.66592  -0.66531  -0.65885  -0.64663
 Alpha  occ. eigenvalues --   -0.64136  -0.63041  -0.62592  -0.62175  -0.61745
 Alpha  occ. eigenvalues --   -0.60639  -0.58908  -0.58312  -0.58056  -0.57504
 Alpha  occ. eigenvalues --   -0.56656  -0.56586  -0.56408  -0.55681  -0.55369
 Alpha  occ. eigenvalues --   -0.55048  -0.54222  -0.53635  -0.53389  -0.52894
 Alpha  occ. eigenvalues --   -0.52676  -0.51929  -0.51742  -0.51458  -0.51207
 Alpha  occ. eigenvalues --   -0.50490  -0.50325  -0.49089  -0.48751  -0.48026
 Alpha  occ. eigenvalues --   -0.47933  -0.47607  -0.47515  -0.47079  -0.46670
 Alpha  occ. eigenvalues --   -0.46413  -0.46342  -0.46140  -0.45884  -0.45598
 Alpha  occ. eigenvalues --   -0.45437  -0.45093  -0.44970  -0.44777  -0.44680
 Alpha  occ. eigenvalues --   -0.44461  -0.44193  -0.43904  -0.43703  -0.43644
 Alpha  occ. eigenvalues --   -0.43392  -0.43277  -0.43057  -0.42803  -0.42693
 Alpha  occ. eigenvalues --   -0.42552  -0.42103  -0.41682  -0.41492  -0.41419
 Alpha  occ. eigenvalues --   -0.41277  -0.40767  -0.40294  -0.40236  -0.40103
 Alpha  occ. eigenvalues --   -0.39997  -0.39844  -0.39753  -0.39325  -0.39067
 Alpha  occ. eigenvalues --   -0.39011  -0.38917  -0.38426  -0.38387  -0.38187
 Alpha  occ. eigenvalues --   -0.38086  -0.37907  -0.37727  -0.37592  -0.37401
 Alpha  occ. eigenvalues --   -0.37366  -0.37293  -0.37065  -0.36911  -0.36776
 Alpha  occ. eigenvalues --   -0.36666  -0.36518  -0.36231  -0.35989  -0.35758
 Alpha  occ. eigenvalues --   -0.35130  -0.34978  -0.34935  -0.34823  -0.34532
 Alpha  occ. eigenvalues --   -0.34384  -0.34265  -0.34017  -0.33884  -0.33789
 Alpha  occ. eigenvalues --   -0.33537  -0.33356  -0.32948  -0.32857  -0.32284
 Alpha  occ. eigenvalues --   -0.32260  -0.32074  -0.31920  -0.31796  -0.31625
 Alpha  occ. eigenvalues --   -0.31585  -0.30479  -0.30447  -0.29913  -0.29875
 Alpha  occ. eigenvalues --   -0.29010  -0.28451  -0.28389  -0.27982  -0.27719
 Alpha  occ. eigenvalues --   -0.27644  -0.27449  -0.27234  -0.26832  -0.26607
 Alpha  occ. eigenvalues --   -0.25662  -0.24110  -0.23794  -0.23334  -0.20070
 Alpha  occ. eigenvalues --   -0.19024
 Alpha virt. eigenvalues --   -0.11022  -0.07690  -0.04323  -0.01997  -0.01732
 Alpha virt. eigenvalues --   -0.00260   0.00139   0.01091   0.01780   0.03516
 Alpha virt. eigenvalues --    0.03651   0.04032   0.04214   0.04379   0.04582

 Mulliken charges:
               1
     1  C    0.066033
     2  C   -0.061809
     3  C   -0.104693
     4  C   -0.132466
     5  N   -0.136230
     6  C   -0.083382
     7  C   -0.032664
     8  C   -0.030237
     9  C    0.073259
    10  C    0.014644
    11  C    0.058908
    12  C    0.091099
    13  C    0.168856
    14  O   -0.202831
    15  O   -0.336823
    16  N    0.004720
    17  C    0.022088
    18  C   -0.162028
    19  C   -0.026540
    20  C    0.021742
    21  C    0.240598
    22  C    0.081185
    23  C   -0.066657
    24  N   -0.216665
    25  C    0.107212
    26  C   -0.060512
    27  C   -0.121282
    28  C    0.062642
    29  C   -0.025598
    30  C    0.083643
    31  C    0.012015
    32  N   -0.046192
    33  C    0.110851
    34  C   -0.107155
    35  C   -0.006091
    36  C   -0.009392
    37  C   -0.000770
    38  C    0.079722
    39  O   -0.151794
    40  C    0.004874
    41  C    0.202692
    42  O   -0.246007
    43  O   -0.305227
    44  C    0.091669
    45  C    0.134418
    46  C   -0.026146
    47  C   -0.169479
    48  C    0.026434
    49  C    0.115340
    50  C   -0.108668
    51  C    0.118197
    52  C   -0.137681
    53  C   -0.020988
    54  C    0.088602
    55  C   -0.003916
    56  C   -0.020224
    57  C   -0.076042
    58  C    0.036425
    59  C   -0.003692
    60  C    0.120433
    61  C   -0.006687
    62  C   -0.026785
    63  C   -0.017195
    64  C    0.046061
    65  H   -0.014193
    66  H    0.021878
    67  H    0.005134
    68  H    0.039529
    69  H   -0.026974
    70  H    0.042998
    71  H   -0.007021
    72  H    0.017123
    73  H    0.041111
    74  H    0.001465
    75  H   -0.039153
    76  H    0.042871
    77  H    0.007609
    78  H    0.007618
    79  H   -0.020202
    80  H   -0.093192
    81  H    0.017067
    82  H    0.045571
    83  H    0.035751
    84  H    0.039014
    85  H    0.029426
    86  H    0.000821
    87  H   -0.015743
    88  H    0.028405
    89  H    0.013170
    90  H    0.021518
    91  H    0.050315
    92  H    0.060822
    93  H    0.049169
    94  H    0.041704
    95  H    0.062262
    96  H    0.072791
    97  H    0.068031
    98  H    0.035682
    99  H    0.046148
   100  H   -0.008831
   101  H    0.044675
   102  H    0.034429
   103  H    0.006405
   104  H    0.010992
   105  H   -0.015901
   106  H    0.028737
   107  H    0.040915
   108  H   -0.017762
   109  H   -0.037465
   110  H   -0.003061
   111  H    0.007512
   112  H    0.024546
   113  H    0.028134
   114  H   -0.022533
   115  H   -0.006447
   116  H    0.017848
   117  H    0.013964
   118  H    0.009911
   119  H    0.004408
   120  H    0.006597
   121  H    0.016846
   122  H    0.004786
   123  H    0.001281
   124  H    0.008892
   125  H    0.005232
   126  H   -0.022708
   127  H   -0.049304
   128  H   -0.045162
   129  H   -0.006705
   130  H   -0.041160
   131  H    0.019752
   132  H    0.028305
   133  H   -0.017515
   134  H    0.005609
   135  H   -0.014274
   136  H    0.022062
   137  H    0.057315
   138  H    0.137340
 Sum of Mulliken charges =  -0.00000

 Dipole moment (field-independent basis, Debye):
    X=              0.7981    Y=              2.4685    Z=              0.2647  Tot=              2.6078
 Quadrupole moment (field-independent basis, Debye-Ang):
   XX=           -355.6209   YY=           -385.4052   ZZ=           -395.5075
   XY=             -9.5628   XZ=              9.9861   YZ=             -4.4865

 Normal termination of Gaussian 16 at Mon Aug 26 17:36:48 2019.
