 Gaussian 16, Revision A.03,
 Gaussian 16:  ES64L-G16RevA.03 25-Dec-2016

 --------------------------
 # td=(NStates=1) B3LYP/SVP
 --------------------------

 --
 TD
 --
 Symbolic Z-matrix:
 Charge =  0 Multiplicity = 1

                         Standard orientation:
 ---------------------------------------------------------------------
 Center     Atomic      Atomic             Coordinates (Angstroms)
 Number     Number       Type             X           Y           Z
 ---------------------------------------------------------------------
      1          6           0       -5.185248   -1.975649    0.379053
      2          6           0       -4.813006    2.685214    1.398865
      3          6           0       -9.294936    3.361598   -0.228693
      4          6           0       -9.810213   -1.385821   -0.984633
      5          7           0       -5.302178    0.362629    0.777375
      6          6           0       -4.537538   -0.758400    0.777598
      7          6           0       -3.118873   -0.668558    1.367694
      8          6           0       -3.119188    0.812526    1.901321
      9          6           0       -4.465116    1.361952    1.328557
     10          6           0       -3.085693    0.938638    3.475803
     11          6           0       -2.061431   -0.809598    0.095831
     12          6           0       -0.608713   -0.811676    0.564851
     13          6           0        0.367772   -0.991142   -0.644048
     14          8           0        0.134110   -1.319792   -1.774874
     15          8           0        1.659817   -0.742126   -0.176821
     16          7           0       -7.102696    2.757432    0.496866
     17          6           0       -5.968520    3.376840    0.948830
     18          6           0       -6.283601    4.726821    1.038931
     19          6           0       -7.487279    4.998309    0.468017
     20          6           0       -8.019438    3.744198    0.111294
     21          6           0       -5.175564    5.791217    1.436963
     22          6           0       -8.134117    6.307773    0.398489
     23          6           0       -9.019911    6.665814   -0.631528
     24          7           0       -9.176101    0.936554   -0.507284
     25          6           0       -9.839816    2.043588   -0.611928
     26          6           0      -11.257841    1.832999   -0.865158
     27          6           0      -11.341951    0.528222   -1.210395
     28          6           0      -10.083999   -0.008838   -0.905883
     29          6           0      -12.212828    3.003029   -1.052746
     30          6           0      -12.611768   -0.179671   -1.572695
     31          6           0      -12.706256   -0.568066   -3.053309
     32          7           0       -7.528709   -1.311771   -0.326747
     33          6           0       -8.569600   -2.074746   -0.758302
     34          6           0       -8.278924   -3.455768   -0.695891
     35          6           0       -6.808835   -3.424542   -0.369477
     36          6           0       -6.468269   -2.088142   -0.097793
     37          6           0       -9.113347   -4.512329   -1.126150
     38          6           0       -5.771246   -4.276781    0.038288
     39          8           0       -5.770926   -5.488784    0.024601
     40          6           0       -4.552976   -3.285866    0.426349
     41          6           0       -4.006923   -3.872303    1.768129
     42          8           0       -4.164686   -3.359352    2.851657
     43          8           0       -3.234817   -4.927955    1.491639
     44          6           0       -2.741910   -5.521554    2.613489
     45          6           0        2.776579   -1.016553   -1.182559
     46          6           0        4.016061   -0.768200   -0.416370
     47          6           0        5.006822    0.144298   -0.791161
     48          6           0        4.903185    1.015188   -2.063464
     49          6           0        6.239050    0.240882   -0.072700
     50          6           0        7.568761   -0.209108   -0.780399
     51          6           0        8.885028   -0.274558    0.163632
     52          6           0       10.092528   -0.581186   -0.699117
     53          6           0       10.063447   -2.039314   -1.359178
     54          6           0       11.257538   -0.325765    0.150468
     55          6           0       12.667962   -0.551837   -0.485127
     56          6           0       13.926842   -0.045017    0.214023
     57          6           0       15.149511   -0.220877   -0.503075
     58          6           0       15.667952   -1.660543   -0.918282
     59          6           0       16.382333    0.374538    0.364711
     60          6           0       17.783302    0.544191   -0.415959
     61          6           0       18.673042    1.356972    0.621708
     62          6           0       20.145233    1.635737    0.083319
     63          6           0       20.249694    2.321110   -1.261591
     64          6           0       20.987684    2.450652    1.220310
     65          1           0       -4.036489    3.491216    1.826869
     66          1           0       -9.952180    4.158857   -0.348933
     67          1           0      -10.572929   -1.898577   -1.344883
     68          1           0       -2.943473   -1.436014    1.927258
     69          1           0       -2.275005    1.449371    1.506153
     70          1           0       -2.049054    0.705693    3.809329
     71          1           0       -3.447476    1.955744    3.880764
     72          1           0       -3.717068    0.128693    4.052523
     73          1           0       -2.202132   -1.669802   -0.597384
     74          1           0       -2.000274    0.113222   -0.462068
     75          1           0       -0.405232    0.147726    1.089823
     76          1           0       -0.211333   -1.679537    1.399974
     77          1           0       -4.371311    5.720959    0.832369
     78          1           0       -5.542040    6.737821    1.522857
     79          1           0       -4.535124    5.675654    2.500459
     80          1           0       -7.847465    6.960877    0.894613
     81          1           0       -9.059638    6.057850   -1.468901
     82          1           0       -9.540985    7.773014   -0.487380
     83          1           0      -12.370259    3.652979   -0.225611
     84          1           0      -11.774044    3.549856   -2.104147
     85          1           0      -13.165530    2.816921   -1.297241
     86          1           0      -12.814039   -1.114225   -1.080762
     87          1           0      -13.386300    0.508103   -1.467328
     88          1           0      -13.013932    0.382543   -3.501894
     89          1           0      -11.730710   -1.006589   -3.526359
     90          1           0      -13.566596   -1.260546   -3.363562
     91          1           0      -10.096380   -4.925124   -0.411693
     92          1           0       -9.448283   -4.236821   -2.229669
     93          1           0       -8.485212   -5.528794   -0.937576
     94          1           0       -3.981434   -3.508326   -0.463092
     95          1           0       -2.394951   -6.399765    2.169895
     96          1           0       -1.818994   -5.065366    3.158600
     97          1           0       -3.564454   -5.714441    3.321660
     98          1           0        2.690135   -2.152989   -1.518159
     99          1           0        2.687677   -0.278046   -1.919941
    100          1           0        4.172623   -1.301363    0.409027
    101          1           0        5.499192    2.052369   -1.615274
    102          1           0        5.474762    0.654243   -3.090405
    103          1           0        3.962118    1.504840   -2.311094
    104          1           0        6.308272    1.254485    0.347359
    105          1           0        5.885127   -0.613130    0.832271
    106          1           0        7.660476   -1.289354   -1.077499
    107          1           0        7.741260    0.492443   -1.668927
    108          1           0        9.123403    0.760083    0.557846
    109          1           0        8.796519   -1.054244    1.030345
    110          1           0       10.085269    0.198226   -1.655398
    111          1           0        9.215388   -2.249032   -2.076250
    112          1           0       11.041351   -2.164764   -1.854526
    113          1           0       10.099130   -2.758642   -0.535376
    114          1           0       11.005616    0.672519    0.545087
    115          1           0       11.280176   -0.972575    1.003389
    116          1           0       12.770555   -1.640095   -0.638383
    117          1           0       12.750479   -0.315154   -1.574939
    118          1           0       13.899990    1.021934    0.461268
    119          1           0       13.916766   -0.579991    1.262111
    120          1           0       15.108409    0.357485   -1.372437
    121          1           0       14.829447   -2.227370   -1.592950
    122          1           0       16.626863   -1.785471   -1.399695
    123          1           0       15.514724   -2.224079    0.131443
    124          1           0       15.811205    1.272880    0.688045
    125          1           0       16.500223   -0.183291    1.383452
    126          1           0       18.266811   -0.407925   -0.463667
    127          1           0       17.600970    0.993438   -1.369704
    128          1           0       18.193795    2.491418    0.543013
    129          1           0       18.431536    0.887614    1.589225
    130          1           0       20.690845    0.543768    0.121206
    131          1           0       19.777657    3.436906   -1.423825
    132          1           0       21.184677    2.278155   -1.442260
    133          1           0       19.699689    1.774076   -2.001858
    134          1           0       21.174730    1.825492    2.247749
    135          1           0       22.197427    2.499011    1.058516
    136          1           0       20.594349    3.423095    1.394170
    137          1           0       -7.250717    1.690098    0.618422
    138          1           0       -7.451486   -0.339440   -0.200610
 ---------------------------------------------------------------------

 SCF Done:  E(RB3LYP) =  -2732.98286684     A.U. after   17 cycles

 Excitation energies and oscillator strengths:

 Excited State   1:      Singlet-A      1.9924 eV  622.29 nm  f=0.2397  <S**2>=0.000
     235 -> 237       -0.15788
     235 -> 238       -0.23703
     236 -> 237        0.63355
     236 -> 238       -0.13594
 This state for optimization and/or second-order correction.
 Total Energy, E(TD-HF/TD-DFT) =  -2732.90964849
 Copying the excited state density for this state as the 1-particle RhoCI density.

 The electronic state is 1-A.
 Alpha  occ. eigenvalues --  -19.18276 -19.16106 -19.12941 -19.12771 -19.11102
 Alpha  occ. eigenvalues --  -14.36558 -14.36241 -14.32899 -14.29556 -10.31787
 Alpha  occ. eigenvalues --  -10.31395 -10.26335 -10.24819 -10.23537 -10.23412
 Alpha  occ. eigenvalues --  -10.23369 -10.23357 -10.23163 -10.23153 -10.22171
 Alpha  occ. eigenvalues --  -10.22012 -10.21999 -10.21917 -10.21820 -10.21700
 Alpha  occ. eigenvalues --  -10.21319 -10.21254 -10.21151 -10.20807 -10.20638
 Alpha  occ. eigenvalues --  -10.20548 -10.20542 -10.20429 -10.20409 -10.20270
 Alpha  occ. eigenvalues --  -10.20268 -10.20255 -10.20110 -10.20053 -10.20014
 Alpha  occ. eigenvalues --  -10.19963 -10.19726 -10.19696 -10.19672 -10.19669
 Alpha  occ. eigenvalues --  -10.19544 -10.19509 -10.19473 -10.19416 -10.19154
 Alpha  occ. eigenvalues --  -10.18986 -10.18917 -10.18680 -10.18606 -10.18489
 Alpha  occ. eigenvalues --  -10.18454 -10.18410 -10.18387 -10.18289 -10.18233
 Alpha  occ. eigenvalues --  -10.18220 -10.17958 -10.17779 -10.17731  -1.11472
 Alpha  occ. eigenvalues --   -1.07095  -1.01919  -1.01740  -0.99285  -0.99089
 Alpha  occ. eigenvalues --   -0.98169  -0.95554  -0.93128  -0.85533  -0.82814
 Alpha  occ. eigenvalues --   -0.82492  -0.82168  -0.81261  -0.80943  -0.80452
 Alpha  occ. eigenvalues --   -0.80163  -0.79958  -0.78948  -0.78533  -0.77037
 Alpha  occ. eigenvalues --   -0.76341  -0.75776  -0.75356  -0.74839  -0.74406
 Alpha  occ. eigenvalues --   -0.74078  -0.72786  -0.72397  -0.70894  -0.70334
 Alpha  occ. eigenvalues --   -0.70185  -0.69643  -0.68488  -0.67889  -0.67747
 Alpha  occ. eigenvalues --   -0.67327  -0.67062  -0.65973  -0.65497  -0.64366
 Alpha  occ. eigenvalues --   -0.64009  -0.62749  -0.62381  -0.61907  -0.61451
 Alpha  occ. eigenvalues --   -0.60632  -0.59044  -0.58621  -0.57913  -0.57367
 Alpha  occ. eigenvalues --   -0.57081  -0.56906  -0.55949  -0.55593  -0.55472
 Alpha  occ. eigenvalues --   -0.55125  -0.54305  -0.54206  -0.53669  -0.53511
 Alpha  occ. eigenvalues --   -0.52652  -0.51979  -0.51747  -0.51394  -0.50445
 Alpha  occ. eigenvalues --   -0.49672  -0.49376  -0.48743  -0.48449  -0.48021
 Alpha  occ. eigenvalues --   -0.47952  -0.47848  -0.47788  -0.47230  -0.47131
 Alpha  occ. eigenvalues --   -0.46732  -0.46354  -0.46196  -0.45899  -0.45593
 Alpha  occ. eigenvalues --   -0.45212  -0.45150  -0.44896  -0.44814  -0.44640
 Alpha  occ. eigenvalues --   -0.44493  -0.44323  -0.43690  -0.43597  -0.43411
 Alpha  occ. eigenvalues --   -0.43276  -0.43080  -0.42943  -0.42756  -0.42587
 Alpha  occ. eigenvalues --   -0.42442  -0.42285  -0.42174  -0.41520  -0.41398
 Alpha  occ. eigenvalues --   -0.40867  -0.40822  -0.40582  -0.40331  -0.39943
 Alpha  occ. eigenvalues --   -0.39794  -0.39734  -0.39416  -0.39359  -0.39246
 Alpha  occ. eigenvalues --   -0.39140  -0.38949  -0.38670  -0.38550  -0.38419
 Alpha  occ. eigenvalues --   -0.38168  -0.38089  -0.37749  -0.37534  -0.37479
 Alpha  occ. eigenvalues --   -0.37385  -0.37059  -0.37045  -0.36803  -0.36719
 Alpha  occ. eigenvalues --   -0.36612  -0.36467  -0.36211  -0.35985  -0.35774
 Alpha  occ. eigenvalues --   -0.35564  -0.35289  -0.35211  -0.35052  -0.34766
 Alpha  occ. eigenvalues --   -0.34566  -0.34166  -0.34059  -0.34017  -0.33672
 Alpha  occ. eigenvalues --   -0.33642  -0.33456  -0.33305  -0.32834  -0.32412
 Alpha  occ. eigenvalues --   -0.32143  -0.32011  -0.31867  -0.31617  -0.31318
 Alpha  occ. eigenvalues --   -0.30848  -0.30823  -0.30639  -0.30557  -0.30044
 Alpha  occ. eigenvalues --   -0.29924  -0.29436  -0.28742  -0.28530  -0.27963
 Alpha  occ. eigenvalues --   -0.27856  -0.27364  -0.27290  -0.26213  -0.24937
 Alpha  occ. eigenvalues --   -0.24323  -0.23990  -0.23813  -0.23164  -0.20321
 Alpha  occ. eigenvalues --   -0.18472
 Alpha virt. eigenvalues --   -0.10648  -0.07852  -0.04218  -0.02593  -0.01674
 Alpha virt. eigenvalues --   -0.00180   0.00139   0.00557   0.02206   0.03488
 Alpha virt. eigenvalues --    0.03682   0.03876   0.04370   0.04661   0.04767

 Mulliken charges:
               1
     1  C   -0.013677
     2  C   -0.092181
     3  C   -0.055433
     4  C   -0.023650
     5  N   -0.219490
     6  C   -0.056737
     7  C    0.123584
     8  C   -0.026541
     9  C    0.054994
    10  C   -0.003202
    11  C    0.025888
    12  C   -0.049165
    13  C    0.194219
    14  O   -0.216610
    15  O   -0.384382
    16  N   -0.129164
    17  C    0.065363
    18  C   -0.102681
    19  C    0.057753
    20  C    0.117582
    21  C    0.100612
    22  C    0.120614
    23  C   -0.033470
    24  N   -0.165207
    25  C    0.001525
    26  C   -0.142692
    27  C   -0.074290
    28  C    0.046184
    29  C    0.109894
    30  C    0.163333
    31  C   -0.068597
    32  N    0.047867
    33  C    0.095392
    34  C   -0.042360
    35  C    0.002056
    36  C    0.070794
    37  C   -0.087129
    38  C   -0.034234
    39  O   -0.182317
    40  C   -0.042975
    41  C    0.211652
    42  O   -0.222930
    43  O   -0.246106
    44  C    0.171462
    45  C    0.328077
    46  C   -0.043452
    47  C   -0.123089
    48  C   -0.047517
    49  C    0.045158
    50  C    0.003162
    51  C    0.001144
    52  C   -0.170489
    53  C    0.018331
    54  C    0.114069
    55  C    0.017417
    56  C    0.053454
    57  C   -0.045342
    58  C   -0.029415
    59  C   -0.057749
    60  C    0.079175
    61  C   -0.027680
    62  C   -0.122352
    63  C    0.119380
    64  C   -0.047393
    65  H    0.001570
    66  H   -0.057842
    67  H   -0.101191
    68  H   -0.070880
    69  H    0.016615
    70  H    0.019852
    71  H    0.035048
    72  H    0.044021
    73  H    0.043144
    74  H    0.006691
    75  H    0.032255
    76  H    0.054773
    77  H    0.004587
    78  H   -0.008038
    79  H    0.021211
    80  H   -0.172622
    81  H    0.022118
    82  H    0.058147
    83  H    0.017977
    84  H    0.045765
    85  H   -0.040284
    86  H    0.001185
    87  H   -0.029960
    88  H    0.002053
    89  H    0.036477
    90  H    0.016233
    91  H    0.055254
    92  H    0.071116
    93  H    0.069605
    94  H    0.052688
    95  H    0.008333
    96  H    0.030461
    97  H    0.031759
    98  H    0.054412
    99  H   -0.005648
   100  H   -0.060502
   101  H    0.010854
   102  H    0.071666
   103  H    0.034944
   104  H    0.019612
   105  H    0.008400
   106  H    0.011723
   107  H    0.017601
   108  H   -0.001179
   109  H    0.020500
   110  H    0.007330
   111  H    0.034954
   112  H    0.010754
   113  H   -0.000307
   114  H   -0.014572
   115  H   -0.020929
   116  H   -0.008393
   117  H   -0.020015
   118  H   -0.007545
   119  H   -0.007752
   120  H   -0.027905
   121  H    0.009241
   122  H    0.028887
   123  H    0.014203
   124  H   -0.014950
   125  H    0.004583
   126  H    0.000963
   127  H    0.006926
   128  H    0.005028
   129  H    0.015968
   130  H    0.011764
   131  H    0.025685
   132  H   -0.036051
   133  H   -0.002477
   134  H    0.017313
   135  H    0.015130
   136  H    0.018464
   137  H    0.192474
   138  H    0.110285
 Sum of Mulliken charges =  -0.00000

 Dipole moment (field-independent basis, Debye):
    X=              2.0421    Y=              4.9219    Z=              0.0019  Tot=              5.3287
 Quadrupole moment (field-independent basis, Debye-Ang):
   XX=           -342.2070   YY=           -382.3280   ZZ=           -397.9425
   XY=            -31.9884   XZ=              2.1061   YZ=             -1.8364

 Normal termination of Gaussian 16 at Thu Aug 29 13:34:54 2019.
