 Gaussian 16, Revision A.03,
 Gaussian 16:  ES64L-G16RevA.03 25-Dec-2016

 --------------------------
 # td=(NStates=1) B3LYP/SVP
 --------------------------

 --
 TD
 --
 Symbolic Z-matrix:
 Charge =  0 Multiplicity = 1

                         Standard orientation:
 ---------------------------------------------------------------------
 Center     Atomic      Atomic             Coordinates (Angstroms)
 Number     Number       Type             X           Y           Z
 ---------------------------------------------------------------------
      1          6           0       -5.151273   -2.044239    0.434467
      2          6           0       -4.726037    2.709232    1.534706
      3          6           0       -9.304634    3.347828   -0.266715
      4          6           0       -9.832627   -1.419341   -0.836626
      5          7           0       -5.190791    0.358376    0.894731
      6          6           0       -4.458652   -0.771980    0.884610
      7          6           0       -3.058611   -0.659396    1.217773
      8          6           0       -3.037936    0.757118    1.795580
      9          6           0       -4.475006    1.375066    1.451668
     10          6           0       -2.830629    0.729107    3.318142
     11          6           0       -2.067861   -0.924497    0.028339
     12          6           0       -0.648098   -0.684623    0.365777
     13          6           0        0.434089   -0.978055   -0.755813
     14          8           0        0.086120   -1.202840   -1.924006
     15          8           0        1.622879   -0.805954   -0.331215
     16          7           0       -7.081088    2.758286    0.572911
     17          6           0       -5.932164    3.300564    1.081547
     18          6           0       -6.199607    4.730453    1.141445
     19          6           0       -7.476183    5.017029    0.483785
     20          6           0       -8.065843    3.731486    0.236702
     21          6           0       -5.338518    5.825298    1.681639
     22          6           0       -8.131979    6.254982    0.168721
     23          6           0       -8.977186    6.694701   -0.685416
     24          7           0       -9.165383    0.870773   -0.503209
     25          6           0       -9.812734    2.085853   -0.490915
     26          6           0      -11.263056    1.898025   -0.872897
     27          6           0      -11.501803    0.513328   -0.953608
     28          6           0      -10.140738   -0.125890   -0.761747
     29          6           0      -12.329828    2.925850   -1.012714
     30          6           0      -12.751260   -0.184501   -1.436258
     31          6           0      -12.755398   -0.399816   -3.012042
     32          7           0       -7.431500   -1.242003   -0.252533
     33          6           0       -8.565611   -2.083752   -0.710489
     34          6           0       -8.231473   -3.446374   -0.630128
     35          6           0       -6.939135   -3.435625   -0.293387
     36          6           0       -6.440533   -2.102778   -0.072209
     37          6           0       -9.091581   -4.613727   -0.970197
     38          6           0       -5.751602   -4.365888   -0.028297
     39          8           0       -5.717672   -5.544872   -0.009019
     40          6           0       -4.596499   -3.438793    0.321180
     41          6           0       -3.863987   -3.836199    1.581760
     42          8           0       -4.040305   -3.466909    2.735145
     43          8           0       -2.913662   -4.740634    1.378188
     44          6           0       -2.462489   -5.442922    2.647727
     45          6           0        2.728405   -1.131955   -1.271103
     46          6           0        3.972558   -0.645575   -0.570707
     47          6           0        4.955385    0.160221   -1.206024
     48          6           0        4.903027    0.757932   -2.523531
     49          6           0        6.217511    0.392682   -0.392021
     50          6           0        7.498184   -0.159541   -0.981135
     51          6           0        8.741390    0.073046   -0.110833
     52          6           0        9.999990   -0.708561   -0.762842
     53          6           0        9.934052   -2.183672   -0.660546
     54          6           0       11.249851   -0.106117    0.013379
     55          6           0       12.556291   -0.544166   -0.535207
     56          6           0       13.732469    0.060087    0.231963
     57          6           0       15.148965   -0.166781   -0.310505
     58          6           0       15.609591   -1.713805   -0.228929
     59          6           0       16.166726    0.820784    0.287330
     60          6           0       17.686018    0.632915   -0.121921
     61          6           0       18.752676    1.615285    0.610031
     62          6           0       20.141749    1.504953    0.092462
     63          6           0       20.353376    1.871673   -1.376295
     64          6           0       21.187835    2.312963    1.081658
     65          1           0       -3.880289    3.379206    1.894145
     66          1           0       -9.896250    4.258468   -0.536155
     67          1           0      -10.689197   -2.108373   -0.792227
     68          1           0       -2.763986   -1.282340    1.972467
     69          1           0       -2.456732    1.237588    1.141302
     70          1           0       -1.787320    0.485969    3.644327
     71          1           0       -3.125660    1.898299    3.769576
     72          1           0       -3.466961   -0.103586    3.699542
     73          1           0       -2.226879   -1.909615   -0.364156
     74          1           0       -2.351452   -0.314436   -0.918525
     75          1           0       -0.427626    0.307387    0.736669
     76          1           0       -0.526278   -1.230664    1.266193
     77          1           0       -4.466854    6.085393    1.051438
     78          1           0       -5.902291    6.750155    1.962148
     79          1           0       -4.812432    5.609871    2.577711
     80          1           0       -7.779841    7.043728    1.023150
     81          1           0       -9.354316    6.144801   -1.422802
     82          1           0       -9.363970    7.746025   -0.668678
     83          1           0      -12.544736    3.641212   -0.172066
     84          1           0      -12.113135    3.577438   -2.035610
     85          1           0      -13.352689    2.834595   -1.364550
     86          1           0      -12.673688   -1.282391   -1.016168
     87          1           0      -13.766234    0.325640   -1.089406
     88          1           0      -12.679448    0.762174   -3.409697
     89          1           0      -11.853464   -1.000021   -3.384839
     90          1           0      -13.632040   -0.852251   -3.386310
     91          1           0      -10.078306   -4.540544   -0.421294
     92          1           0       -9.407745   -4.609351   -2.093732
     93          1           0       -8.623959   -5.604386   -0.705418
     94          1           0       -3.943600   -3.469577   -0.574573
     95          1           0       -1.722235   -6.203595    2.097667
     96          1           0       -2.005583   -4.756782    3.258120
     97          1           0       -3.169537   -6.011623    3.140285
     98          1           0        2.815299   -2.398709   -1.422199
     99          1           0        2.461638   -0.810911   -2.361543
    100          1           0        3.982684   -0.975570    0.602639
    101          1           0        5.062788    1.728406   -2.243937
    102          1           0        5.721986    0.335519   -3.131527
    103          1           0        3.869092    0.596976   -3.083690
    104          1           0        6.299333    1.340174   -0.204284
    105          1           0        6.003147    0.077671    0.506553
    106          1           0        7.355577   -1.332285   -1.193858
    107          1           0        7.528961    0.257861   -2.046193
    108          1           0        8.871451    1.241013    0.143311
    109          1           0        8.552439   -0.305369    1.005181
    110          1           0       10.144732   -0.342703   -1.824020
    111          1           0        9.002490   -2.642019   -1.069686
    112          1           0       10.842390   -2.724333   -0.916645
    113          1           0        9.935804   -2.722401    0.459961
    114          1           0       11.125836    1.091035    0.032113
    115          1           0       11.029371   -0.284536    1.227128
    116          1           0       12.753449   -1.809474   -0.437449
    117          1           0       12.763733   -0.312861   -1.593067
    118          1           0       13.478630    1.146401    0.093679
    119          1           0       13.783985   -0.106352    1.358778
    120          1           0       15.193672    0.198400   -1.440515
    121          1           0       14.963142   -2.584122   -0.648955
    122          1           0       16.565340   -1.751783   -0.559621
    123          1           0       15.828366   -1.995645    0.865700
    124          1           0       15.834824    1.896164    0.093745
    125          1           0       16.103664    0.690173    1.380082
    126          1           0       18.060623   -0.492753    0.016285
    127          1           0       17.873979    0.869352   -1.163711
    128          1           0       18.225833    2.606544    0.551041
    129          1           0       18.728518    1.338639    1.672047
    130          1           0       20.716522    0.559951    0.395006
    131          1           0       19.935144    2.905616   -1.334905
    132          1           0       21.436354    1.811956   -1.591701
    133          1           0       19.560022    1.439871   -2.043350
    134          1           0       21.026281    1.850865    2.118025
    135          1           0       22.268828    1.889318    0.693592
    136          1           0       20.972581    3.389568    1.012873
    137          1           0       -7.072552    1.862580    0.515441
    138          1           0       -7.536164   -0.148341   -0.194911
 ---------------------------------------------------------------------

 SCF Done:  E(RB3LYP) =  -2733.08622046     A.U. after   17 cycles

 Excitation energies and oscillator strengths:

 Excited State   1:      Singlet-A      2.0341 eV  609.53 nm  f=0.2230  <S**2>=0.000
     235 -> 237       -0.17114
     235 -> 238       -0.26436
     236 -> 237        0.61940
     236 -> 238       -0.13539
 This state for optimization and/or second-order correction.
 Total Energy, E(TD-HF/TD-DFT) =  -2733.01146904
 Copying the excited state density for this state as the 1-particle RhoCI density.

 The electronic state is 1-A.
 Alpha  occ. eigenvalues --  -19.19243 -19.17160 -19.12815 -19.11592 -19.11331
 Alpha  occ. eigenvalues --  -14.36095 -14.35901 -14.32237 -14.30478 -10.31511
 Alpha  occ. eigenvalues --  -10.31132 -10.28118 -10.27542 -10.24478 -10.24013
 Alpha  occ. eigenvalues --  -10.23710 -10.23575 -10.23385 -10.22397 -10.22350
 Alpha  occ. eigenvalues --  -10.21917 -10.21418 -10.21311 -10.21094 -10.21093
 Alpha  occ. eigenvalues --  -10.21085 -10.20914 -10.20818 -10.20807 -10.20736
 Alpha  occ. eigenvalues --  -10.20660 -10.20647 -10.20638 -10.20626 -10.20464
 Alpha  occ. eigenvalues --  -10.20362 -10.20262 -10.20228 -10.20140 -10.20043
 Alpha  occ. eigenvalues --  -10.19984 -10.19904 -10.19866 -10.19788 -10.19577
 Alpha  occ. eigenvalues --  -10.19534 -10.19494 -10.19475 -10.19454 -10.19444
 Alpha  occ. eigenvalues --  -10.19358 -10.19331 -10.19259 -10.19259 -10.19176
 Alpha  occ. eigenvalues --  -10.18740 -10.18728 -10.18722 -10.18596 -10.18525
 Alpha  occ. eigenvalues --  -10.18510 -10.18371 -10.18193 -10.16510  -1.11210
 Alpha  occ. eigenvalues --   -1.08939  -1.05109  -0.99077  -0.98316  -0.97628
 Alpha  occ. eigenvalues --   -0.96701  -0.94285  -0.91294  -0.84474  -0.83407
 Alpha  occ. eigenvalues --   -0.82227  -0.81675  -0.81408  -0.81264  -0.80323
 Alpha  occ. eigenvalues --   -0.80304  -0.79221  -0.78780  -0.78138  -0.77596
 Alpha  occ. eigenvalues --   -0.76980  -0.76318  -0.75759  -0.74838  -0.74020
 Alpha  occ. eigenvalues --   -0.73696  -0.73011  -0.72038  -0.71431  -0.71059
 Alpha  occ. eigenvalues --   -0.70080  -0.69176  -0.68914  -0.67847  -0.67327
 Alpha  occ. eigenvalues --   -0.67131  -0.67052  -0.66155  -0.65813  -0.65101
 Alpha  occ. eigenvalues --   -0.64105  -0.63179  -0.62132  -0.61317  -0.61054
 Alpha  occ. eigenvalues --   -0.60659  -0.58934  -0.58370  -0.58222  -0.57108
 Alpha  occ. eigenvalues --   -0.56621  -0.56156  -0.55745  -0.55595  -0.55191
 Alpha  occ. eigenvalues --   -0.54410  -0.54308  -0.54037  -0.53744  -0.53153
 Alpha  occ. eigenvalues --   -0.52833  -0.51893  -0.51363  -0.51244  -0.50294
 Alpha  occ. eigenvalues --   -0.49580  -0.48662  -0.48596  -0.48350  -0.47708
 Alpha  occ. eigenvalues --   -0.47628  -0.47524  -0.47382  -0.46965  -0.46841
 Alpha  occ. eigenvalues --   -0.46586  -0.46483  -0.46073  -0.45922  -0.45828
 Alpha  occ. eigenvalues --   -0.45737  -0.45558  -0.45355  -0.44440  -0.44291
 Alpha  occ. eigenvalues --   -0.44209  -0.44164  -0.44086  -0.43914  -0.43641
 Alpha  occ. eigenvalues --   -0.43613  -0.43540  -0.43296  -0.42988  -0.42596
 Alpha  occ. eigenvalues --   -0.42372  -0.42226  -0.41347  -0.41142  -0.40972
 Alpha  occ. eigenvalues --   -0.40824  -0.40744  -0.40410  -0.40152  -0.39982
 Alpha  occ. eigenvalues --   -0.39829  -0.39791  -0.39590  -0.39512  -0.39398
 Alpha  occ. eigenvalues --   -0.39302  -0.39119  -0.38826  -0.38687  -0.38489
 Alpha  occ. eigenvalues --   -0.38396  -0.38204  -0.38066  -0.37604  -0.37507
 Alpha  occ. eigenvalues --   -0.37173  -0.37100  -0.37009  -0.36731  -0.36667
 Alpha  occ. eigenvalues --   -0.36603  -0.36346  -0.36279  -0.36199  -0.35991
 Alpha  occ. eigenvalues --   -0.35779  -0.35598  -0.35412  -0.35303  -0.35009
 Alpha  occ. eigenvalues --   -0.34847  -0.34757  -0.34340  -0.34122  -0.33752
 Alpha  occ. eigenvalues --   -0.33145  -0.32964  -0.32850  -0.32770  -0.32169
 Alpha  occ. eigenvalues --   -0.31925  -0.31821  -0.31795  -0.31477  -0.31348
 Alpha  occ. eigenvalues --   -0.31009  -0.30720  -0.30420  -0.30284  -0.30237
 Alpha  occ. eigenvalues --   -0.29449  -0.29318  -0.27685  -0.27334  -0.27283
 Alpha  occ. eigenvalues --   -0.27047  -0.26953  -0.26605  -0.26278  -0.25983
 Alpha  occ. eigenvalues --   -0.25140  -0.24054  -0.23594  -0.22194  -0.19922
 Alpha  occ. eigenvalues --   -0.18342
 Alpha virt. eigenvalues --   -0.10221  -0.07275  -0.03858  -0.01317  -0.01214
 Alpha virt. eigenvalues --   -0.00004   0.00936   0.01099   0.01773   0.03722
 Alpha virt. eigenvalues --    0.03918   0.03977   0.04085   0.04158   0.04762

 Mulliken charges:
               1
     1  C   -0.027437
     2  C   -0.087932
     3  C   -0.096551
     4  C   -0.101906
     5  N   -0.162767
     6  C   -0.050715
     7  C    0.003210
     8  C    0.036276
     9  C   -0.007125
    10  C    0.015949
    11  C    0.057067
    12  C    0.051502
    13  C    0.179994
    14  O   -0.276412
    15  O   -0.245896
    16  N    0.004422
    17  C    0.100781
    18  C   -0.141654
    19  C    0.058107
    20  C    0.069227
    21  C    0.105987
    22  C   -0.049255
    23  C   -0.009551
    24  N   -0.283752
    25  C    0.146506
    26  C   -0.082522
    27  C   -0.048173
    28  C    0.094085
    29  C    0.007219
    30  C   -0.005347
    31  C   -0.025263
    32  N   -0.119694
    33  C    0.083314
    34  C   -0.153304
    35  C   -0.031755
    36  C    0.087458
    37  C    0.056371
    38  C    0.071515
    39  O   -0.121211
    40  C    0.006908
    41  C    0.193104
    42  O   -0.254174
    43  O   -0.316962
    44  C    0.216471
    45  C    0.133341
    46  C   -0.096934
    47  C   -0.210865
    48  C    0.120889
    49  C    0.265061
    50  C   -0.033757
    51  C   -0.036086
    52  C   -0.021545
    53  C    0.008684
    54  C   -0.062975
    55  C    0.038743
    56  C    0.011931
    57  C   -0.086282
    58  C    0.038446
    59  C    0.027129
    60  C   -0.030710
    61  C    0.045310
    62  C   -0.144641
    63  C    0.062923
    64  C   -0.047603
    65  H    0.008732
    66  H   -0.018889
    67  H   -0.021654
    68  H   -0.031337
    69  H   -0.051908
    70  H    0.021307
    71  H    0.032733
    72  H    0.046828
    73  H   -0.004647
    74  H    0.012638
    75  H    0.014521
    76  H   -0.006350
    77  H    0.021308
    78  H    0.019138
    79  H   -0.007268
    80  H    0.013010
    81  H   -0.022842
    82  H    0.031262
    83  H    0.033409
    84  H    0.014760
    85  H    0.000946
    86  H    0.012228
    87  H    0.035295
    88  H    0.026575
    89  H    0.031863
    90  H    0.013142
    91  H    0.028625
    92  H    0.046594
    93  H    0.049834
    94  H    0.065967
    95  H    0.045198
    96  H    0.023612
    97  H    0.031623
    98  H    0.054311
    99  H    0.065457
   100  H    0.044834
   101  H    0.005421
   102  H    0.040556
   103  H    0.030182
   104  H   -0.065160
   105  H   -0.084137
   106  H    0.013092
   107  H    0.003716
   108  H    0.014405
   109  H    0.014064
   110  H    0.007997
   111  H    0.019790
   112  H    0.012331
   113  H    0.001056
   114  H    0.009463
   115  H    0.014355
   116  H    0.018176
   117  H    0.002389
   118  H   -0.017304
   119  H    0.003363
   120  H   -0.004386
   121  H    0.036466
   122  H   -0.021245
   123  H   -0.003812
   124  H    0.006145
   125  H   -0.011960
   126  H    0.019496
   127  H   -0.012198
   128  H   -0.002179
   129  H   -0.011799
   130  H    0.000357
   131  H   -0.008204
   132  H    0.025015
   133  H    0.021416
   134  H    0.026411
   135  H    0.027847
   136  H    0.022714
   137  H    0.038084
   138  H    0.200048
 Sum of Mulliken charges =  -0.00000

 Dipole moment (field-independent basis, Debye):
    X=              4.1110    Y=              3.1355    Z=              0.4029  Tot=              5.1859
 Quadrupole moment (field-independent basis, Debye-Ang):
   XX=           -348.3795   YY=           -381.0150   ZZ=           -398.2650
   XY=            -15.0463   XZ=              9.1717   YZ=             -1.3740

 Normal termination of Gaussian 16 at Sun Aug 25 12:11:31 2019.
