 Gaussian 16, Revision A.03,
 Gaussian 16:  ES64L-G16RevA.03 25-Dec-2016

 --------------------------
 # td=(NStates=1) B3LYP/SVP
 --------------------------

 --
 TD
 --
 Symbolic Z-matrix:
 Charge =  0 Multiplicity = 1

                         Standard orientation:
 ---------------------------------------------------------------------
 Center     Atomic      Atomic             Coordinates (Angstroms)
 Number     Number       Type             X           Y           Z
 ---------------------------------------------------------------------
      1          6           0       -5.112172   -2.011212    0.422852
      2          6           0       -4.706437    2.822606    1.370475
      3          6           0       -9.481279    3.340955   -0.191292
      4          6           0       -9.783519   -1.384479   -0.876931
      5          7           0       -5.185148    0.491308    0.781121
      6          6           0       -4.531589   -0.782203    0.781812
      7          6           0       -3.171247   -0.519865    1.201107
      8          6           0       -3.079320    0.861953    1.829785
      9          6           0       -4.360393    1.430356    1.293186
     10          6           0       -3.158435    0.853698    3.316290
     11          6           0       -2.127892   -0.670456    0.011226
     12          6           0       -0.624568   -0.672068    0.478520
     13          6           0        0.395119   -1.064023   -0.582563
     14          8           0        0.114069   -1.565223   -1.641396
     15          8           0        1.658717   -0.803670   -0.236264
     16          7           0       -7.174707    2.779180    0.492140
     17          6           0       -5.994772    3.427788    0.953701
     18          6           0       -6.222665    4.853749    1.028289
     19          6           0       -7.608262    5.004714    0.513487
     20          6           0       -8.138866    3.701742    0.190114
     21          6           0       -5.179382    5.996009    1.297957
     22          6           0       -8.162087    6.330123    0.220438
     23          6           0       -9.141981    6.628864   -0.724824
     24          7           0       -9.184905    0.916378   -0.504261
     25          6           0       -9.926415    2.057111   -0.566347
     26          6           0      -11.353288    1.848567   -0.906208
     27          6           0      -11.466505    0.560304   -1.079159
     28          6           0      -10.061096   -0.058640   -0.772542
     29          6           0      -12.353149    2.964796   -1.079893
     30          6           0      -12.695314   -0.288604   -1.542110
     31          6           0      -12.666396   -0.612869   -3.052473
     32          7           0       -7.547459   -1.303573   -0.214962
     33          6           0       -8.661907   -2.019560   -0.473143
     34          6           0       -8.249458   -3.391788   -0.418839
     35          6           0       -6.814242   -3.458609   -0.093598
     36          6           0       -6.446564   -2.053931    0.150031
     37          6           0       -9.083256   -4.612397   -0.638638
     38          6           0       -5.669611   -4.345188    0.027081
     39          8           0       -5.619589   -5.489202   -0.159425
     40          6           0       -4.583112   -3.380461    0.369840
     41          6           0       -3.750908   -3.861715    1.517205
     42          8           0       -4.027007   -3.440495    2.654589
     43          8           0       -2.917859   -4.854195    1.334208
     44          6           0       -2.230510   -5.439197    2.432962
     45          6           0        2.707578   -1.289070   -1.103943
     46          6           0        4.071462   -0.905700   -0.462816
     47          6           0        5.041178   -0.086693   -0.945058
     48          6           0        4.896848    0.524141   -2.466471
     49          6           0        6.272956    0.257316   -0.249007
     50          6           0        7.558842   -0.366743   -0.852176
     51          6           0        8.892049   -0.348605   -0.036056
     52          6           0       10.093358   -0.763112   -0.787998
     53          6           0       10.146527   -2.331230   -1.045753
     54          6           0       11.368138   -0.328894    0.013701
     55          6           0       12.730896   -0.468436   -0.672529
     56          6           0       13.856548    0.040129    0.247714
     57          6           0       15.276677   -0.148515   -0.370664
     58          6           0       15.737693   -1.643579   -0.487754
     59          6           0       16.285438    0.665296    0.456277
     60          6           0       17.746994    0.661493   -0.109062
     61          6           0       18.598661    1.685977    0.695922
     62          6           0       19.983000    1.718315    0.244937
     63          6           0       20.035962    2.260432   -1.258006
     64          6           0       20.825087    2.765072    1.014240
     65          1           0       -4.000367    3.511536    1.901333
     66          1           0      -10.311761    4.140831   -0.417400
     67          1           0      -10.682164   -1.963324   -1.239604
     68          1           0       -2.798020   -1.381913    1.902849
     69          1           0       -2.226111    1.339373    1.731233
     70          1           0       -2.105195    0.656596    3.601701
     71          1           0       -3.381174    1.892905    3.624156
     72          1           0       -3.940815    0.284120    3.813405
     73          1           0       -2.195183   -1.505694   -0.508199
     74          1           0       -2.253642    0.355143   -0.573909
     75          1           0       -0.445585    0.079352    1.110091
     76          1           0       -0.855572   -1.273479    1.342658
     77          1           0       -4.277303    5.841408    0.649256
     78          1           0       -5.701282    6.960171    1.003087
     79          1           0       -4.790031    5.951924    2.283345
     80          1           0       -7.934199    7.245133    0.823041
     81          1           0       -9.698518    6.083833   -1.368682
     82          1           0       -9.742766    7.552493   -0.678637
     83          1           0      -12.321408    3.781260   -0.028021
     84          1           0      -12.102632    3.699418   -1.883999
     85          1           0      -13.413438    2.712729   -1.218724
     86          1           0      -12.675953   -1.272332   -0.988959
     87          1           0      -13.525907    0.374195   -1.314287
     88          1           0      -12.674494    0.237877   -3.457549
     89          1           0      -11.720643   -1.053650   -3.429375
     90          1           0      -13.581478   -1.211451   -3.395024
     91          1           0       -9.828274   -4.627254    0.227321
     92          1           0       -9.692132   -4.520515   -1.531844
     93          1           0       -8.406760   -5.567096   -0.704766
     94          1           0       -3.911809   -3.498504   -0.565007
     95          1           0       -1.503611   -6.136998    2.094423
     96          1           0       -1.631585   -4.647810    3.004375
     97          1           0       -2.908799   -5.938567    3.266638
     98          1           0        2.542032   -2.341098   -1.236221
     99          1           0        2.447391   -0.839875   -2.059966
    100          1           0        4.052782   -1.424483    0.550575
    101          1           0        5.124665    1.655848   -2.466809
    102          1           0        5.777287    0.002023   -3.027101
    103          1           0        3.887903    0.331665   -3.028447
    104          1           0        6.611167    1.383103   -0.215581
    105          1           0        6.139575   -0.131585    0.802112
    106          1           0        7.442467   -1.421267   -1.006575
    107          1           0        7.666926   -0.020109   -1.958022
    108          1           0        8.921059    0.702808    0.106823
    109          1           0        8.907220   -0.810007    1.064359
    110          1           0       10.038094   -0.268029   -1.766621
    111          1           0        9.251235   -2.583537   -1.633655
    112          1           0       11.084379   -2.698128   -1.501525
    113          1           0       10.151654   -2.741854    0.005496
    114          1           0       11.314753    0.836755    0.087509
    115          1           0       11.108550   -0.898915    1.041589
    116          1           0       12.906721   -1.494705   -0.848445
    117          1           0       12.654903   -0.147646   -1.596311
    118          1           0       13.980208    1.110688    0.549028
    119          1           0       13.902157   -0.590003    1.126257
    120          1           0       15.155357    0.487642   -1.189490
    121          1           0       15.005964   -2.237613   -1.113082
    122          1           0       16.710653   -1.655089   -1.251906
    123          1           0       15.722804   -2.146352    0.577553
    124          1           0       15.851748    1.897101    0.340841
    125          1           0       16.212904    0.620369    1.425828
    126          1           0       18.160155   -0.333522   -0.084575
    127          1           0       17.676839    1.045823   -1.221339
    128          1           0       17.934212    2.620614    0.563577
    129          1           0       18.499835    1.066423    1.789192
    130          1           0       20.600491    0.759391    0.301872
    131          1           0       19.427559    3.120479   -1.489752
    132          1           0       21.068983    2.358429   -1.548722
    133          1           0       19.632015    1.514520   -2.024116
    134          1           0       20.913288    2.420711    2.123118
    135          1           0       21.892236    2.723306    0.623901
    136          1           0       20.387991    3.852456    1.030883
    137          1           0       -7.333530    1.761284    0.299270
    138          1           0       -7.761599   -0.272069   -0.108194
 ---------------------------------------------------------------------

 SCF Done:  E(RB3LYP) =  -2733.09036423     A.U. after   17 cycles

 Excitation energies and oscillator strengths:

 Excited State   1:      Singlet-A      1.9519 eV  635.20 nm  f=0.2068  <S**2>=0.000
     235 -> 238       -0.26794
     236 -> 237        0.64269
 This state for optimization and/or second-order correction.
 Total Energy, E(TD-HF/TD-DFT) =  -2733.01863307
 Copying the excited state density for this state as the 1-particle RhoCI density.

 The electronic state is 1-A.
 Alpha  occ. eigenvalues --  -19.19422 -19.17293 -19.12284 -19.12141 -19.11451
 Alpha  occ. eigenvalues --  -14.37049 -14.36634 -14.32242 -14.31317 -10.31998
 Alpha  occ. eigenvalues --  -10.31828 -10.27504 -10.26136 -10.24695 -10.24573
 Alpha  occ. eigenvalues --  -10.24029 -10.23366 -10.23199 -10.22865 -10.22836
 Alpha  occ. eigenvalues --  -10.21957 -10.21916 -10.21915 -10.21824 -10.21781
 Alpha  occ. eigenvalues --  -10.21608 -10.21557 -10.21205 -10.21179 -10.20891
 Alpha  occ. eigenvalues --  -10.20735 -10.20718 -10.20663 -10.20653 -10.20572
 Alpha  occ. eigenvalues --  -10.20525 -10.20276 -10.20155 -10.20007 -10.19821
 Alpha  occ. eigenvalues --  -10.19721 -10.19627 -10.19531 -10.19464 -10.19393
 Alpha  occ. eigenvalues --  -10.19345 -10.19203 -10.19135 -10.19033 -10.18986
 Alpha  occ. eigenvalues --  -10.18897 -10.18762 -10.18748 -10.18706 -10.18608
 Alpha  occ. eigenvalues --  -10.18500 -10.18481 -10.18387 -10.18387 -10.18123
 Alpha  occ. eigenvalues --  -10.17858 -10.17749 -10.17553 -10.17067  -1.11117
 Alpha  occ. eigenvalues --   -1.09766  -1.06101  -1.00538  -0.99346  -0.98248
 Alpha  occ. eigenvalues --   -0.96420  -0.94573  -0.93560  -0.87056  -0.82521
 Alpha  occ. eigenvalues --   -0.81780  -0.81403  -0.80831  -0.80579  -0.80247
 Alpha  occ. eigenvalues --   -0.79815  -0.79772  -0.79379  -0.78633  -0.78078
 Alpha  occ. eigenvalues --   -0.76835  -0.76382  -0.75664  -0.74975  -0.74405
 Alpha  occ. eigenvalues --   -0.73885  -0.72638  -0.72137  -0.71285  -0.70859
 Alpha  occ. eigenvalues --   -0.70029  -0.69765  -0.68703  -0.67703  -0.67299
 Alpha  occ. eigenvalues --   -0.66395  -0.66366  -0.66099  -0.65880  -0.65401
 Alpha  occ. eigenvalues --   -0.63993  -0.63186  -0.62910  -0.62441  -0.62000
 Alpha  occ. eigenvalues --   -0.61530  -0.58865  -0.58022  -0.57780  -0.57727
 Alpha  occ. eigenvalues --   -0.57451  -0.56617  -0.56594  -0.56178  -0.55461
 Alpha  occ. eigenvalues --   -0.55001  -0.54661  -0.54226  -0.54002  -0.53930
 Alpha  occ. eigenvalues --   -0.53004  -0.52718  -0.52315  -0.51613  -0.51223
 Alpha  occ. eigenvalues --   -0.50389  -0.49858  -0.49690  -0.49053  -0.48451
 Alpha  occ. eigenvalues --   -0.48317  -0.47854  -0.47424  -0.47274  -0.46750
 Alpha  occ. eigenvalues --   -0.46631  -0.46514  -0.46293  -0.46104  -0.45825
 Alpha  occ. eigenvalues --   -0.45508  -0.45361  -0.45169  -0.44770  -0.44521
 Alpha  occ. eigenvalues --   -0.44284  -0.44072  -0.43960  -0.43571  -0.43306
 Alpha  occ. eigenvalues --   -0.43205  -0.42923  -0.42822  -0.42613  -0.42186
 Alpha  occ. eigenvalues --   -0.42079  -0.42035  -0.41864  -0.41574  -0.41348
 Alpha  occ. eigenvalues --   -0.41101  -0.40996  -0.40591  -0.40389  -0.40211
 Alpha  occ. eigenvalues --   -0.40115  -0.40062  -0.39823  -0.39495  -0.39338
 Alpha  occ. eigenvalues --   -0.39128  -0.39024  -0.38955  -0.38702  -0.38597
 Alpha  occ. eigenvalues --   -0.38583  -0.38305  -0.38175  -0.38043  -0.37965
 Alpha  occ. eigenvalues --   -0.37697  -0.37513  -0.37485  -0.37154  -0.36909
 Alpha  occ. eigenvalues --   -0.36715  -0.36562  -0.36134  -0.36074  -0.35923
 Alpha  occ. eigenvalues --   -0.35588  -0.35445  -0.35049  -0.34982  -0.34742
 Alpha  occ. eigenvalues --   -0.34424  -0.34240  -0.33967  -0.33784  -0.33549
 Alpha  occ. eigenvalues --   -0.33445  -0.33123  -0.33075  -0.32943  -0.32668
 Alpha  occ. eigenvalues --   -0.32202  -0.32088  -0.31939  -0.31256  -0.31219
 Alpha  occ. eigenvalues --   -0.30567  -0.30483  -0.30391  -0.30128  -0.29768
 Alpha  occ. eigenvalues --   -0.29732  -0.28973  -0.28407  -0.28265  -0.28117
 Alpha  occ. eigenvalues --   -0.27891  -0.27078  -0.26438  -0.26299  -0.25535
 Alpha  occ. eigenvalues --   -0.25378  -0.24995  -0.24662  -0.22823  -0.19668
 Alpha  occ. eigenvalues --   -0.18708
 Alpha virt. eigenvalues --   -0.10712  -0.07179  -0.04638  -0.02137  -0.00821
 Alpha virt. eigenvalues --   -0.00756   0.00052   0.00661   0.02012   0.03028
 Alpha virt. eigenvalues --    0.03471   0.04149   0.04343   0.04409   0.04690

 Mulliken charges:
               1
     1  C   -0.018606
     2  C   -0.064824
     3  C   -0.092057
     4  C   -0.108488
     5  N   -0.198730
     6  C    0.017547
     7  C   -0.127235
     8  C    0.073702
     9  C    0.002456
    10  C    0.084780
    11  C    0.067771
    12  C    0.087686
    13  C    0.227978
    14  O   -0.232439
    15  O   -0.312532
    16  N   -0.099562
    17  C    0.117410
    18  C   -0.160340
    19  C    0.028200
    20  C    0.103213
    21  C    0.105388
    22  C   -0.052428
    23  C   -0.044210
    24  N   -0.235204
    25  C    0.030957
    26  C   -0.058217
    27  C   -0.129033
    28  C    0.026018
    29  C    0.000047
    30  C    0.065638
    31  C    0.080411
    32  N   -0.067874
    33  C    0.116132
    34  C   -0.151348
    35  C   -0.089841
    36  C    0.134543
    37  C    0.067958
    38  C    0.038773
    39  O   -0.097815
    40  C    0.018032
    41  C    0.173251
    42  O   -0.276423
    43  O   -0.245419
    44  C    0.159418
    45  C    0.274593
    46  C   -0.107775
    47  C   -0.069235
    48  C   -0.035677
    49  C    0.090803
    50  C   -0.048462
    51  C    0.066199
    52  C   -0.094819
    53  C    0.025714
    54  C   -0.055647
    55  C    0.192466
    56  C    0.027611
    57  C   -0.024101
    58  C   -0.020085
    59  C   -0.006152
    60  C    0.001202
    61  C    0.001976
    62  C   -0.075324
    63  C    0.009356
    64  C   -0.002975
    65  H   -0.009233
    66  H    0.008419
    67  H   -0.010592
    68  H    0.030486
    69  H   -0.074463
    70  H    0.003414
    71  H   -0.009868
    72  H    0.029102
    73  H   -0.028114
    74  H    0.021329
    75  H   -0.052087
    76  H   -0.016152
    77  H    0.032833
    78  H    0.035567
    79  H    0.020554
    80  H    0.024840
    81  H   -0.019279
    82  H    0.010898
    83  H    0.040966
    84  H    0.038877
    85  H    0.021702
    86  H    0.016321
    87  H   -0.000742
    88  H   -0.053777
    89  H    0.013200
    90  H    0.025842
    91  H    0.037476
    92  H    0.015568
    93  H    0.062335
    94  H    0.068943
    95  H    0.030499
    96  H    0.032293
    97  H    0.057494
    98  H    0.009902
    99  H    0.001289
   100  H    0.009757
   101  H    0.036585
   102  H    0.045053
   103  H    0.045977
   104  H    0.024861
   105  H    0.007232
   106  H   -0.019028
   107  H    0.010058
   108  H   -0.030901
   109  H    0.010507
   110  H   -0.022215
   111  H    0.019985
   112  H    0.017450
   113  H    0.000341
   114  H    0.005373
   115  H    0.013665
   116  H   -0.041970
   117  H   -0.061746
   118  H   -0.004780
   119  H   -0.023798
   120  H   -0.031578
   121  H    0.014330
   122  H    0.041955
   123  H    0.037749
   124  H   -0.019768
   125  H   -0.057195
   126  H    0.005054
   127  H    0.008430
   128  H    0.019372
   129  H    0.012289
   130  H    0.009559
   131  H    0.006319
   132  H   -0.002360
   133  H    0.006509
   134  H    0.006900
   135  H    0.012952
   136  H    0.024274
   137  H    0.164005
   138  H    0.168605
 Sum of Mulliken charges =  -0.00000

 Dipole moment (field-independent basis, Debye):
    X=              2.5231    Y=              2.6030    Z=              0.2015  Tot=              3.6307
 Quadrupole moment (field-independent basis, Debye-Ang):
   XX=           -338.4366   YY=           -387.2808   ZZ=           -397.5457
   XY=            -27.3466   XZ=              4.9774   YZ=             -4.2349

 Normal termination of Gaussian 16 at Sun Aug 25 01:30:49 2019.
