 Gaussian 16, Revision A.03,
 Gaussian 16:  ES64L-G16RevA.03 25-Dec-2016

 --------------------------
 # td=(NStates=1) B3LYP/SVP
 --------------------------

 --
 TD
 --
 Symbolic Z-matrix:
 Charge =  0 Multiplicity = 1

                         Standard orientation:
 ---------------------------------------------------------------------
 Center     Atomic      Atomic             Coordinates (Angstroms)
 Number     Number       Type             X           Y           Z
 ---------------------------------------------------------------------
      1          6           0       -5.085658   -1.987725    0.664753
      2          6           0       -4.759430    2.769827    1.481371
      3          6           0       -9.320002    3.360426   -0.218762
      4          6           0       -9.764704   -1.497145   -1.051781
      5          7           0       -5.188738    0.498956    0.802976
      6          6           0       -4.554822   -0.723972    0.840541
      7          6           0       -3.062252   -0.560898    1.218784
      8          6           0       -3.014092    0.865717    1.786722
      9          6           0       -4.343887    1.483430    1.288173
     10          6           0       -3.029451    0.944073    3.383704
     11          6           0       -2.183023   -0.727258    0.066562
     12          6           0       -0.642952   -0.777270    0.441149
     13          6           0        0.263790   -0.959749   -0.647727
     14          8           0        0.092794   -1.376749   -1.743015
     15          8           0        1.630618   -0.708212   -0.257954
     16          7           0       -7.002122    2.820206    0.542183
     17          6           0       -5.874337    3.426550    1.022800
     18          6           0       -6.150209    4.837361    0.973846
     19          6           0       -7.499898    5.018918    0.509679
     20          6           0       -8.089389    3.711907    0.236602
     21          6           0       -5.210851    5.844140    1.510190
     22          6           0       -8.104362    6.314472    0.459011
     23          6           0       -8.982090    6.692547   -0.568025
     24          7           0       -9.231760    0.837284   -0.452333
     25          6           0       -9.828230    2.002506   -0.568628
     26          6           0      -11.300321    1.819309   -1.011963
     27          6           0      -11.421337    0.487415   -1.120625
     28          6           0      -10.141387   -0.176924   -0.865361
     29          6           0      -12.234788    2.890961   -1.096874
     30          6           0      -12.739823   -0.138628   -1.596944
     31          6           0      -12.705324   -0.419864   -3.145555
     32          7           0       -7.388388   -1.220522   -0.279295
     33          6           0       -8.462093   -2.068597   -0.660400
     34          6           0       -8.194295   -3.468161   -0.773729
     35          6           0       -6.834392   -3.352243   -0.202750
     36          6           0       -6.417808   -2.047473    0.036471
     37          6           0       -9.042169   -4.648050   -1.040729
     38          6           0       -5.795297   -4.271376    0.198103
     39          8           0       -5.744793   -5.441782    0.087106
     40          6           0       -4.541072   -3.356235    0.650105
     41          6           0       -3.830258   -3.894225    1.854960
     42          8           0       -4.012375   -3.420459    2.976263
     43          8           0       -3.051552   -4.970908    1.639643
     44          6           0       -2.570717   -5.561110    2.842711
     45          6           0        2.651724   -0.866997   -1.209681
     46          6           0        4.030654   -0.645898   -0.615246
     47          6           0        5.029989   -0.015514   -1.260264
     48          6           0        4.905995    0.623144   -2.511170
     49          6           0        6.299593    0.146088   -0.416029
     50          6           0        7.506964   -0.415177   -1.040439
     51          6           0        8.718586   -0.280791   -0.330590
     52          6           0       10.067436   -0.773746   -1.069473
     53          6           0       10.127407   -2.249798   -1.305225
     54          6           0       11.326999   -0.344011   -0.249078
     55          6           0       12.708472   -0.822414   -0.678383
     56          6           0       13.759153   -0.121035    0.143755
     57          6           0       15.226119   -0.270440   -0.400724
     58          6           0       15.781822   -1.753981   -0.319129
     59          6           0       16.155532    0.668965    0.412106
     60          6           0       17.668023    0.784016    0.000133
     61          6           0       18.470939    1.722169    0.796273
     62          6           0       19.943222    1.816678    0.303652
     63          6           0       19.995156    2.420540   -1.120511
     64          6           0       20.868537    2.406739    1.350581
     65          1           0       -4.068060    3.527581    1.834255
     66          1           0      -10.284087    4.097210   -0.245535
     67          1           0      -10.521812   -2.195166   -1.517591
     68          1           0       -2.712087   -1.252280    2.114790
     69          1           0       -2.056792    1.597589    1.476169
     70          1           0       -2.141862    0.514465    3.833171
     71          1           0       -3.098992    2.068452    3.731682
     72          1           0       -3.801990    0.250224    3.830636
     73          1           0       -2.544789   -1.601236   -0.487279
     74          1           0       -2.258328    0.085791   -0.777080
     75          1           0       -0.392173   -0.031950    1.097409
     76          1           0       -0.360693   -1.643038    0.867885
     77          1           0       -4.075676    5.801423    1.139841
     78          1           0       -5.519977    6.829215    1.294681
     79          1           0       -5.348056    5.869241    2.637011
     80          1           0       -7.993013    6.883496    1.276101
     81          1           0       -9.437415    5.802672   -1.227830
     82          1           0       -9.386737    7.611547   -0.686900
     83          1           0      -12.426696    3.191837    0.019753
     84          1           0      -12.040315    3.824205   -1.648100
     85          1           0      -13.232387    2.526508   -1.660210
     86          1           0      -12.813703   -0.965199   -0.802386
     87          1           0      -13.529587    0.511033   -1.355075
     88          1           0      -12.514273    0.538617   -3.570975
     89          1           0      -11.927027   -1.098946   -3.448766
     90          1           0      -13.774195   -0.761509   -3.388818
     91          1           0       -9.880876   -4.692998   -0.474173
     92          1           0       -9.545427   -4.496218   -2.095927
     93          1           0       -8.415854   -5.636764   -1.062443
     94          1           0       -3.718667   -3.272020   -0.340241
     95          1           0       -2.214291   -6.728247    2.639734
     96          1           0       -1.581086   -4.963341    3.231040
     97          1           0       -3.323007   -5.619326    3.674356
     98          1           0        2.725933   -1.836730   -1.693390
     99          1           0        2.579763   -0.325929   -2.297769
    100          1           0        4.264181   -0.809529    0.448462
    101          1           0        5.419273    1.778135   -2.768661
    102          1           0        5.396944   -0.013583   -3.254219
    103          1           0        3.985323    0.675144   -2.921179
    104          1           0        6.726336    1.240523   -0.173780
    105          1           0        6.284347   -0.207719    0.680316
    106          1           0        7.405099   -1.409849   -1.202638
    107          1           0        7.340942   -0.006736   -2.161099
    108          1           0        8.984356    0.818987   -0.271214
    109          1           0        8.701597   -0.782504    0.688651
    110          1           0       10.158521   -0.109166   -1.930340
    111          1           0        9.338657   -2.519487   -2.220138
    112          1           0       11.039048   -2.678595   -1.821312
    113          1           0        9.993725   -2.927054   -0.437665
    114          1           0       11.315568    0.740852   -0.023890
    115          1           0       11.125382   -0.932722    0.737409
    116          1           0       12.911846   -1.979831   -0.727251
    117          1           0       12.914684   -0.474769   -1.768077
    118          1           0       13.669033    0.983983    0.125960
    119          1           0       13.588466   -0.346660    1.249249
    120          1           0       15.217497    0.067517   -1.418386
    121          1           0       15.031188   -2.573439   -0.875119
    122          1           0       16.816458   -1.825180   -0.849602
    123          1           0       15.938861   -2.151473    0.725218
    124          1           0       15.782366    1.731574    0.234812
    125          1           0       16.369208    0.344322    1.538005
    126          1           0       18.035953   -0.350438   -0.038397
    127          1           0       17.601630    0.957491   -1.197399
    128          1           0       18.146608    2.833242    0.755618
    129          1           0       18.679610    1.491079    1.922284
    130          1           0       19.953387    0.600226    0.340608
    131          1           0       19.732413    3.536588   -1.067675
    132          1           0       20.943175    2.308166   -1.631908
    133          1           0       19.409360    1.884190   -1.707444
    134          1           0       21.024624    1.936176    2.315195
    135          1           0       21.862787    2.449187    0.893924
    136          1           0       20.625992    3.512675    1.595219
    137          1           0       -7.114133    1.753406    0.482966
    138          1           0       -7.278908   -0.328683   -0.357253
 ---------------------------------------------------------------------

 SCF Done:  E(RB3LYP) =  -2733.06468355     A.U. after   16 cycles

 Excitation energies and oscillator strengths:

 Excited State   1:      Singlet-A      2.0744 eV  597.67 nm  f=0.2124  <S**2>=0.000
     235 -> 237       -0.21037
     235 -> 238        0.23446
     236 -> 237        0.62131
     236 -> 238        0.11792
 This state for optimization and/or second-order correction.
 Total Energy, E(TD-HF/TD-DFT) =  -2732.98844901
 Copying the excited state density for this state as the 1-particle RhoCI density.

 The electronic state is 1-A.
 Alpha  occ. eigenvalues --  -19.18673 -19.16030 -19.13025 -19.11988 -19.11812
 Alpha  occ. eigenvalues --  -14.37248 -14.36737 -14.32726 -14.30601 -10.31807
 Alpha  occ. eigenvalues --  -10.31656 -10.27052 -10.26476 -10.24855 -10.24518
 Alpha  occ. eigenvalues --  -10.24446 -10.24136 -10.23688 -10.23052 -10.23030
 Alpha  occ. eigenvalues --  -10.22699 -10.22638 -10.22352 -10.22057 -10.21929
 Alpha  occ. eigenvalues --  -10.21924 -10.21723 -10.21383 -10.21205 -10.20970
 Alpha  occ. eigenvalues --  -10.20957 -10.20927 -10.20828 -10.20744 -10.20684
 Alpha  occ. eigenvalues --  -10.20664 -10.20527 -10.19885 -10.19884 -10.19867
 Alpha  occ. eigenvalues --  -10.19615 -10.19516 -10.19424 -10.19383 -10.19107
 Alpha  occ. eigenvalues --  -10.19090 -10.18992 -10.18991 -10.18971 -10.18946
 Alpha  occ. eigenvalues --  -10.18911 -10.18895 -10.18881 -10.18881 -10.18478
 Alpha  occ. eigenvalues --  -10.18385 -10.18365 -10.18361 -10.18343 -10.18143
 Alpha  occ. eigenvalues --  -10.18043 -10.17999 -10.17043 -10.16551  -1.09837
 Alpha  occ. eigenvalues --   -1.08552  -1.04399  -1.00243  -1.00023  -0.99776
 Alpha  occ. eigenvalues --   -0.96771  -0.93396  -0.93106  -0.84720  -0.83210
 Alpha  occ. eigenvalues --   -0.82653  -0.82032  -0.81751  -0.81374  -0.80892
 Alpha  occ. eigenvalues --   -0.80767  -0.80127  -0.79453  -0.78652  -0.77997
 Alpha  occ. eigenvalues --   -0.77010  -0.76708  -0.75333  -0.74897  -0.74290
 Alpha  occ. eigenvalues --   -0.73751  -0.73119  -0.72387  -0.71496  -0.71199
 Alpha  occ. eigenvalues --   -0.70494  -0.69631  -0.68984  -0.68473  -0.67967
 Alpha  occ. eigenvalues --   -0.67604  -0.66348  -0.65766  -0.65626  -0.64576
 Alpha  occ. eigenvalues --   -0.63602  -0.63365  -0.62997  -0.62213  -0.62008
 Alpha  occ. eigenvalues --   -0.60857  -0.59314  -0.57878  -0.57671  -0.57480
 Alpha  occ. eigenvalues --   -0.56610  -0.56039  -0.55708  -0.55617  -0.54902
 Alpha  occ. eigenvalues --   -0.54891  -0.53992  -0.53781  -0.53418  -0.53264
 Alpha  occ. eigenvalues --   -0.52632  -0.52328  -0.51944  -0.51743  -0.50162
 Alpha  occ. eigenvalues --   -0.50014  -0.49212  -0.49115  -0.48828  -0.48328
 Alpha  occ. eigenvalues --   -0.47985  -0.47410  -0.47261  -0.47054  -0.47029
 Alpha  occ. eigenvalues --   -0.46735  -0.46434  -0.45939  -0.45801  -0.45648
 Alpha  occ. eigenvalues --   -0.45491  -0.45256  -0.45063  -0.44893  -0.44594
 Alpha  occ. eigenvalues --   -0.44358  -0.44199  -0.43944  -0.43527  -0.43371
 Alpha  occ. eigenvalues --   -0.43222  -0.43018  -0.42905  -0.42787  -0.42344
 Alpha  occ. eigenvalues --   -0.42295  -0.42096  -0.41867  -0.41544  -0.41250
 Alpha  occ. eigenvalues --   -0.41150  -0.40993  -0.40923  -0.40648  -0.40509
 Alpha  occ. eigenvalues --   -0.40236  -0.40094  -0.39892  -0.39742  -0.39723
 Alpha  occ. eigenvalues --   -0.39543  -0.39338  -0.39136  -0.39018  -0.38910
 Alpha  occ. eigenvalues --   -0.38756  -0.38436  -0.38323  -0.38182  -0.37727
 Alpha  occ. eigenvalues --   -0.37557  -0.37286  -0.37241  -0.37168  -0.36730
 Alpha  occ. eigenvalues --   -0.36332  -0.36229  -0.36204  -0.36155  -0.36109
 Alpha  occ. eigenvalues --   -0.35803  -0.35566  -0.35438  -0.35088  -0.34901
 Alpha  occ. eigenvalues --   -0.34693  -0.34577  -0.34200  -0.34194  -0.33824
 Alpha  occ. eigenvalues --   -0.33366  -0.32976  -0.32945  -0.32375  -0.32216
 Alpha  occ. eigenvalues --   -0.32041  -0.31894  -0.31816  -0.30699  -0.30323
 Alpha  occ. eigenvalues --   -0.30264  -0.29918  -0.29594  -0.29452  -0.29148
 Alpha  occ. eigenvalues --   -0.28730  -0.28254  -0.28029  -0.28005  -0.27777
 Alpha  occ. eigenvalues --   -0.27451  -0.27157  -0.26490  -0.26386  -0.25767
 Alpha  occ. eigenvalues --   -0.24578  -0.23673  -0.23238  -0.23223  -0.20521
 Alpha  occ. eigenvalues --   -0.19166
 Alpha virt. eigenvalues --   -0.10829  -0.07719  -0.04209  -0.02999  -0.01292
 Alpha virt. eigenvalues --   -0.00126   0.00332   0.00493   0.01585   0.03083
 Alpha virt. eigenvalues --    0.03626   0.04011   0.04103   0.04584   0.04959

 Mulliken charges:
               1
     1  C    0.034094
     2  C   -0.032258
     3  C   -0.143609
     4  C   -0.092549
     5  N   -0.221073
     6  C   -0.049384
     7  C   -0.034445
     8  C   -0.116004
     9  C    0.060457
    10  C    0.021450
    11  C    0.058042
    12  C    0.178015
    13  C    0.151076
    14  O   -0.189137
    15  O   -0.365864
    16  N   -0.156378
    17  C    0.090214
    18  C   -0.132903
    19  C    0.046170
    20  C    0.205126
    21  C    0.074916
    22  C   -0.049312
    23  C   -0.023947
    24  N   -0.210748
    25  C   -0.022502
    26  C   -0.094586
    27  C   -0.128126
    28  C    0.081669
    29  C    0.008657
    30  C    0.060782
    31  C    0.049702
    32  N    0.108550
    33  C    0.065019
    34  C   -0.096826
    35  C   -0.053488
    36  C   -0.008867
    37  C    0.106241
    38  C    0.042964
    39  O   -0.131375
    40  C   -0.104764
    41  C    0.214738
    42  O   -0.252397
    43  O   -0.267107
    44  C    0.096034
    45  C    0.272084
    46  C   -0.081016
    47  C   -0.109902
    48  C    0.109740
    49  C    0.024630
    50  C    0.060517
    51  C    0.027911
    52  C   -0.030336
    53  C   -0.014580
    54  C   -0.016060
    55  C    0.032368
    56  C    0.005364
    57  C   -0.008760
    58  C   -0.063027
    59  C   -0.016685
    60  C   -0.071416
    61  C    0.042094
    62  C   -0.185274
    63  C    0.123367
    64  C    0.055975
    65  H   -0.037501
    66  H    0.037673
    67  H   -0.000442
    68  H    0.038314
    69  H    0.027413
    70  H    0.006993
    71  H    0.034528
    72  H    0.038586
    73  H   -0.006219
    74  H    0.024788
    75  H   -0.001311
    76  H   -0.001262
    77  H    0.057172
    78  H   -0.009661
    79  H    0.037132
    80  H   -0.019752
    81  H    0.055909
    82  H    0.001313
    83  H    0.049958
    84  H    0.029176
    85  H    0.029595
    86  H    0.008580
    87  H   -0.022812
    88  H    0.004571
    89  H    0.015061
    90  H    0.028090
    91  H    0.006218
    92  H    0.026487
    93  H    0.073855
    94  H    0.102032
    95  H    0.054683
    96  H    0.044570
    97  H    0.057428
    98  H    0.002659
    99  H    0.009928
   100  H   -0.008562
   101  H    0.040240
   102  H    0.014993
   103  H   -0.043387
   104  H   -0.006796
   105  H   -0.013260
   106  H   -0.050986
   107  H   -0.009780
   108  H   -0.010195
   109  H    0.004479
   110  H   -0.017038
   111  H    0.016882
   112  H    0.016901
   113  H    0.017288
   114  H   -0.000265
   115  H   -0.009794
   116  H    0.025436
   117  H   -0.014201
   118  H   -0.014311
   119  H   -0.002635
   120  H   -0.016218
   121  H    0.025454
   122  H    0.030130
   123  H    0.022870
   124  H    0.008390
   125  H    0.016234
   126  H    0.011702
   127  H    0.011378
   128  H   -0.005574
   129  H    0.011215
   130  H    0.000494
   131  H    0.016938
   132  H   -0.004561
   133  H   -0.044000
   134  H    0.009147
   135  H    0.000431
   136  H    0.004654
   137  H    0.174056
   138  H    0.055239
 Sum of Mulliken charges =  -0.00000

 Dipole moment (field-independent basis, Debye):
    X=             -1.8279    Y=              4.8219    Z=              0.2028  Tot=              5.1608
 Quadrupole moment (field-independent basis, Debye-Ang):
   XX=           -338.5094   YY=           -377.9261   ZZ=           -394.6931
   XY=            -29.3158   XZ=              9.2313   YZ=              1.5550

 Normal termination of Gaussian 16 at Mon Aug 26 13:12:52 2019.
