 Gaussian 16, Revision A.03,
 Gaussian 16:  ES64L-G16RevA.03 25-Dec-2016

 --------------------------
 # td=(NStates=1) B3LYP/SVP
 --------------------------

 --
 TD
 --
 Symbolic Z-matrix:
 Charge =  0 Multiplicity = 1

                         Standard orientation:
 ---------------------------------------------------------------------
 Center     Atomic      Atomic             Coordinates (Angstroms)
 Number     Number       Type             X           Y           Z
 ---------------------------------------------------------------------
      1          6           0       -5.071681   -1.939330    0.579505
      2          6           0       -4.843632    2.772296    1.483759
      3          6           0       -9.316323    3.198375   -0.251132
      4          6           0       -9.766575   -1.499370   -1.059188
      5          7           0       -5.234260    0.503730    0.767439
      6          6           0       -4.527497   -0.772748    0.830600
      7          6           0       -2.998564   -0.564945    1.370546
      8          6           0       -3.081311    0.942049    1.820093
      9          6           0       -4.441768    1.431464    1.372978
     10          6           0       -3.161063    0.966827    3.275789
     11          6           0       -2.044052   -0.690654    0.205848
     12          6           0       -0.569887   -0.459728    0.630513
     13          6           0        0.384869   -0.924374   -0.481193
     14          8           0        0.057931   -1.647781   -1.449283
     15          8           0        1.644829   -0.467850   -0.138180
     16          7           0       -7.073205    2.726877    0.450825
     17          6           0       -6.040549    3.384052    1.007531
     18          6           0       -6.337105    4.765397    1.155900
     19          6           0       -7.705494    4.931646    0.600378
     20          6           0       -8.175809    3.563534    0.214361
     21          6           0       -5.410361    5.974592    1.603128
     22          6           0       -8.427872    6.162857    0.524058
     23          6           0       -9.295388    6.482776   -0.397534
     24          7           0       -9.155693    0.802597   -0.645722
     25          6           0       -9.797121    1.908902   -0.679703
     26          6           0      -11.232256    1.782651   -1.127624
     27          6           0      -11.391347    0.372590   -1.399364
     28          6           0      -10.075499   -0.191101   -1.087153
     29          6           0      -12.210220    2.855900   -1.182405
     30          6           0      -12.585559   -0.362722   -1.887832
     31          6           0      -12.617961   -0.492296   -3.428485
     32          7           0       -7.421588   -1.355349   -0.288560
     33          6           0       -8.512751   -2.120391   -0.785130
     34          6           0       -8.084557   -3.515477   -0.680173
     35          6           0       -6.797139   -3.429683   -0.230416
     36          6           0       -6.376694   -2.070718    0.084602
     37          6           0       -8.948034   -4.743000   -1.092606
     38          6           0       -5.621156   -4.293457   -0.035643
     39          8           0       -5.478431   -5.537166    0.044251
     40          6           0       -4.473428   -3.359403    0.502261
     41          6           0       -3.912388   -3.758944    1.957149
     42          8           0       -4.247378   -3.273145    3.027771
     43          8           0       -3.068668   -4.767374    1.697463
     44          6           0       -2.659457   -5.497730    2.949296
     45          6           0        2.636671   -0.741510   -1.109862
     46          6           0        3.939488   -0.494487   -0.503584
     47          6           0        4.995333    0.146685   -1.007112
     48          6           0        4.964817    1.056986   -2.287145
     49          6           0        6.274717    0.226007   -0.239823
     50          6           0        7.532587   -0.268954   -1.111321
     51          6           0        8.793331   -0.121960   -0.210042
     52          6           0       10.067035   -0.669173   -0.837047
     53          6           0        9.983305   -2.139379   -1.167942
     54          6           0       11.311008   -0.237045   -0.021650
     55          6           0       12.698707   -0.504709   -0.584670
     56          6           0       13.877514    0.025531    0.200527
     57          6           0       15.268574   -0.185865   -0.484629
     58          6           0       15.688709   -1.599982   -0.564047
     59          6           0       16.358975    0.632671    0.281509
     60          6           0       17.633945    0.788466   -0.260863
     61          6           0       18.575142    1.484790    0.566910
     62          6           0       20.079665    1.422621    0.102909
     63          6           0       20.308311    2.090260   -1.216715
     64          6           0       21.060571    1.984295    1.198147
     65          1           0       -3.912267    3.430353    1.937448
     66          1           0      -10.086393    4.030891   -0.332590
     67          1           0      -10.362611   -2.406251   -1.363023
     68          1           0       -3.022899   -1.192810    2.196219
     69          1           0       -2.170441    1.396951    1.553430
     70          1           0       -2.225934    0.628334    3.657095
     71          1           0       -3.316793    1.980338    3.846758
     72          1           0       -3.850793    0.386976    3.740562
     73          1           0       -2.141062   -1.627327   -0.467018
     74          1           0       -2.362404   -0.053576   -0.568784
     75          1           0       -0.272732    0.728941    0.825770
     76          1           0       -0.216361   -1.050633    1.562587
     77          1           0       -4.501210    5.811766    1.147900
     78          1           0       -5.980061    6.885609    1.374462
     79          1           0       -5.397221    5.884033    2.815287
     80          1           0       -8.000501    7.053541    0.963074
     81          1           0       -9.532090    5.705986   -1.190928
     82          1           0       -9.836285    7.535988   -0.400703
     83          1           0      -12.231893    3.388736   -0.290810
     84          1           0      -12.049861    3.397340   -2.076189
     85          1           0      -13.267096    2.475545   -1.267658
     86          1           0      -12.530460   -1.382868   -1.322947
     87          1           0      -13.349035    0.168728   -1.375345
     88          1           0      -12.551503    0.330085   -4.118804
     89          1           0      -11.914387   -1.208200   -3.979858
     90          1           0      -13.665117   -0.583540   -3.801822
     91          1           0      -10.069687   -4.582505   -0.550678
     92          1           0       -9.124692   -4.766282   -2.018027
     93          1           0       -8.401802   -5.647906   -0.912779
     94          1           0       -3.778680   -3.514338   -0.165850
     95          1           0       -1.949169   -6.071599    2.513581
     96          1           0       -2.311076   -4.617431    3.606976
     97          1           0       -3.444255   -6.197512    3.494465
     98          1           0        2.486948   -1.807059   -1.281989
     99          1           0        2.267058   -0.236396   -1.988945
    100          1           0        4.206671   -1.229085    0.275611
    101          1           0        5.533744    2.111021   -2.187070
    102          1           0        5.575041    0.573049   -3.161604
    103          1           0        3.949211    1.328648   -2.584349
    104          1           0        6.509263    1.100945    0.228626
    105          1           0        6.286008   -0.596028    0.652828
    106          1           0        7.210549   -1.176545   -1.497695
    107          1           0        7.805125    0.557351   -1.974500
    108          1           0        8.958574    0.939992    0.447034
    109          1           0        8.694381   -0.883292    0.575620
    110          1           0       10.214039   -0.084291   -1.809769
    111          1           0        9.059012   -2.382541   -1.762819
    112          1           0       10.706750   -2.489780   -2.060544
    113          1           0       10.271428   -2.885828   -0.211536
    114          1           0       11.238358    0.812143    0.359798
    115          1           0       11.165962   -0.841463    0.704863
    116          1           0       12.947382   -1.700916   -0.729202
    117          1           0       12.784484    0.019911   -1.704489
    118          1           0       13.602816    1.126487    0.344658
    119          1           0       13.985810   -0.492517    1.182635
    120          1           0       15.185031    0.180732   -1.543692
    121          1           0       15.029063   -2.217496   -0.937673
    122          1           0       16.451948   -1.521718   -1.195398
    123          1           0       15.972879   -2.014400    0.482538
    124          1           0       15.769021    1.587768    0.422155
    125          1           0       16.458300    0.352276    1.226666
    126          1           0       18.116604   -0.280118   -0.519183
    127          1           0       17.526455    1.305427   -1.196849
    128          1           0       18.356495    2.522121    0.692256
    129          1           0       18.332165    1.151239    1.748150
    130          1           0       20.517819    0.221587   -0.110969
    131          1           0       19.728263    3.084840   -1.353010
    132          1           0       21.485336    2.251755   -1.337328
    133          1           0       19.772509    1.628624   -1.967144
    134          1           0       20.685414    1.621609    2.182539
    135          1           0       22.263733    1.939926    0.904315
    136          1           0       20.996206    3.148392    1.355505
    137          1           0       -7.372060    1.801883    0.364940
    138          1           0       -7.516710   -0.274593   -0.148384
 ---------------------------------------------------------------------

 SCF Done:  E(RB3LYP) =  -2732.98774040     A.U. after   16 cycles

 Excitation energies and oscillator strengths:

 Excited State   1:      Singlet-A      2.1321 eV  581.50 nm  f=0.1644  <S**2>=0.000
     235 -> 237       -0.22642
     235 -> 238       -0.25877
     236 -> 237        0.60567
 This state for optimization and/or second-order correction.
 Total Energy, E(TD-HF/TD-DFT) =  -2732.90938579
 Copying the excited state density for this state as the 1-particle RhoCI density.

 The electronic state is 1-A.
 Alpha  occ. eigenvalues --  -19.18075 -19.17723 -19.13513 -19.12926 -19.10857
 Alpha  occ. eigenvalues --  -14.36664 -14.36063 -14.31795 -14.30365 -10.32224
 Alpha  occ. eigenvalues --  -10.31675 -10.26787 -10.25014 -10.24747 -10.23957
 Alpha  occ. eigenvalues --  -10.22945 -10.22753 -10.22710 -10.22616 -10.22304
 Alpha  occ. eigenvalues --  -10.21903 -10.21672 -10.21580 -10.21506 -10.21455
 Alpha  occ. eigenvalues --  -10.21074 -10.21073 -10.21032 -10.20996 -10.20852
 Alpha  occ. eigenvalues --  -10.20566 -10.20551 -10.20549 -10.20246 -10.20154
 Alpha  occ. eigenvalues --  -10.20142 -10.19963 -10.19944 -10.19911 -10.19814
 Alpha  occ. eigenvalues --  -10.19615 -10.19536 -10.19425 -10.19359 -10.19315
 Alpha  occ. eigenvalues --  -10.19288 -10.19044 -10.19039 -10.19033 -10.19024
 Alpha  occ. eigenvalues --  -10.18950 -10.18879 -10.18849 -10.18701 -10.18652
 Alpha  occ. eigenvalues --  -10.18459 -10.18395 -10.18246 -10.18107 -10.17558
 Alpha  occ. eigenvalues --  -10.17081 -10.17081 -10.16191 -10.15598  -1.08537
 Alpha  occ. eigenvalues --   -1.08306  -1.00208  -1.00099  -0.99267  -0.98151
 Alpha  occ. eigenvalues --   -0.97275  -0.93844  -0.91339  -0.83797  -0.83605
 Alpha  occ. eigenvalues --   -0.82627  -0.82092  -0.81637  -0.81269  -0.80877
 Alpha  occ. eigenvalues --   -0.79948  -0.79720  -0.79515  -0.78880  -0.77858
 Alpha  occ. eigenvalues --   -0.76965  -0.76343  -0.75968  -0.75327  -0.75007
 Alpha  occ. eigenvalues --   -0.73951  -0.73144  -0.72336  -0.71847  -0.70626
 Alpha  occ. eigenvalues --   -0.70045  -0.69487  -0.68673  -0.68297  -0.67701
 Alpha  occ. eigenvalues --   -0.67306  -0.67037  -0.66720  -0.66039  -0.65169
 Alpha  occ. eigenvalues --   -0.63943  -0.63469  -0.62401  -0.61559  -0.60816
 Alpha  occ. eigenvalues --   -0.60678  -0.59139  -0.58608  -0.58056  -0.57437
 Alpha  occ. eigenvalues --   -0.56816  -0.56243  -0.55916  -0.55051  -0.54879
 Alpha  occ. eigenvalues --   -0.54775  -0.54507  -0.53898  -0.53615  -0.53455
 Alpha  occ. eigenvalues --   -0.52742  -0.52252  -0.51368  -0.50770  -0.50232
 Alpha  occ. eigenvalues --   -0.50026  -0.48970  -0.48652  -0.48389  -0.48209
 Alpha  occ. eigenvalues --   -0.47743  -0.47671  -0.47342  -0.47014  -0.46873
 Alpha  occ. eigenvalues --   -0.46557  -0.46248  -0.46133  -0.45717  -0.45666
 Alpha  occ. eigenvalues --   -0.45427  -0.45157  -0.45045  -0.44851  -0.44675
 Alpha  occ. eigenvalues --   -0.44432  -0.44375  -0.44180  -0.43704  -0.43321
 Alpha  occ. eigenvalues --   -0.43223  -0.43044  -0.42826  -0.42721  -0.42684
 Alpha  occ. eigenvalues --   -0.42166  -0.41900  -0.41465  -0.41400  -0.41122
 Alpha  occ. eigenvalues --   -0.40933  -0.40734  -0.40674  -0.40390  -0.40298
 Alpha  occ. eigenvalues --   -0.40159  -0.39795  -0.39630  -0.39540  -0.39472
 Alpha  occ. eigenvalues --   -0.39105  -0.38875  -0.38680  -0.38555  -0.38479
 Alpha  occ. eigenvalues --   -0.38212  -0.37887  -0.37843  -0.37644  -0.37470
 Alpha  occ. eigenvalues --   -0.37113  -0.36885  -0.36852  -0.36701  -0.36520
 Alpha  occ. eigenvalues --   -0.36428  -0.36380  -0.36318  -0.36134  -0.35907
 Alpha  occ. eigenvalues --   -0.35677  -0.35547  -0.35372  -0.35188  -0.34593
 Alpha  occ. eigenvalues --   -0.34498  -0.34256  -0.34055  -0.33884  -0.33669
 Alpha  occ. eigenvalues --   -0.33469  -0.33062  -0.32635  -0.32349  -0.32207
 Alpha  occ. eigenvalues --   -0.31868  -0.31730  -0.31580  -0.31559  -0.31079
 Alpha  occ. eigenvalues --   -0.30922  -0.30690  -0.30427  -0.30179  -0.29994
 Alpha  occ. eigenvalues --   -0.29583  -0.29546  -0.29267  -0.28530  -0.28233
 Alpha  occ. eigenvalues --   -0.27682  -0.27038  -0.26672  -0.25956  -0.25733
 Alpha  occ. eigenvalues --   -0.25247  -0.23618  -0.23588  -0.22324  -0.19597
 Alpha  occ. eigenvalues --   -0.18857
 Alpha virt. eigenvalues --   -0.09889  -0.07461  -0.03828  -0.01683  -0.01328
 Alpha virt. eigenvalues --   -0.00654   0.00235   0.01481   0.02359   0.03844
 Alpha virt. eigenvalues --    0.04044   0.04142   0.04369   0.04742   0.04968

 Mulliken charges:
               1
     1  C    0.046163
     2  C   -0.117030
     3  C   -0.140421
     4  C   -0.084509
     5  N   -0.234135
     6  C   -0.149555
     7  C    0.047998
     8  C    0.019874
     9  C    0.005896
    10  C    0.071764
    11  C    0.092620
    12  C   -0.033107
    13  C    0.197511
    14  O   -0.261243
    15  O   -0.330739
    16  N   -0.014003
    17  C    0.151102
    18  C   -0.177432
    19  C    0.046835
    20  C    0.092520
    21  C    0.119208
    22  C   -0.028999
    23  C   -0.090020
    24  N   -0.212450
    25  C    0.042132
    26  C   -0.213715
    27  C   -0.104914
    28  C    0.161321
    29  C    0.175731
    30  C    0.119480
    31  C    0.013302
    32  N   -0.073008
    33  C   -0.032761
    34  C   -0.145651
    35  C   -0.036611
    36  C    0.074335
    37  C    0.176624
    38  C    0.075248
    39  O   -0.224070
    40  C    0.057571
    41  C    0.228326
    42  O   -0.234704
    43  O   -0.304038
    44  C    0.158190
    45  C    0.293482
    46  C   -0.060788
    47  C   -0.094658
    48  C    0.003254
    49  C    0.058850
    50  C   -0.018858
    51  C   -0.023201
    52  C   -0.055123
    53  C   -0.043523
    54  C    0.151321
    55  C   -0.058527
    56  C    0.022636
    57  C   -0.102689
    58  C    0.170992
    59  C    0.073025
    60  C    0.109333
    61  C   -0.015949
    62  C   -0.122800
    63  C    0.041159
    64  C   -0.022887
    65  H    0.012731
    66  H   -0.013545
    67  H   -0.010136
    68  H   -0.014607
    69  H   -0.029909
    70  H   -0.017019
    71  H    0.008442
    72  H   -0.007455
    73  H    0.038808
    74  H   -0.016580
    75  H    0.064948
    76  H    0.057924
    77  H    0.029161
    78  H    0.021811
    79  H    0.050959
    80  H   -0.010377
    81  H    0.045463
    82  H    0.049129
    83  H    0.014728
    84  H    0.012166
    85  H   -0.005405
    86  H    0.017236
    87  H   -0.006603
    88  H   -0.009651
    89  H    0.032446
    90  H   -0.002271
    91  H    0.043218
    92  H   -0.035417
    93  H    0.027872
    94  H   -0.019032
    95  H    0.016871
    96  H    0.059861
    97  H    0.071515
    98  H    0.008107
    99  H    0.002403
   100  H   -0.002254
   101  H    0.030675
   102  H    0.045691
   103  H    0.020001
   104  H   -0.011472
   105  H    0.006015
   106  H    0.009653
   107  H    0.020594
   108  H    0.029768
   109  H   -0.017021
   110  H   -0.017818
   111  H    0.016145
   112  H    0.021277
   113  H    0.038398
   114  H   -0.006829
   115  H   -0.078562
   116  H    0.016119
   117  H    0.002440
   118  H   -0.001548
   119  H   -0.006282
   120  H   -0.020885
   121  H   -0.050679
   122  H   -0.032499
   123  H    0.004662
   124  H   -0.027088
   125  H   -0.070078
   126  H    0.008175
   127  H   -0.024631
   128  H   -0.016660
   129  H   -0.002511
   130  H    0.015691
   131  H   -0.004528
   132  H    0.036138
   133  H   -0.011989
   134  H    0.018039
   135  H    0.034694
   136  H    0.005139
   137  H    0.111839
   138  H    0.188706
 Sum of Mulliken charges =  -0.00000

 Dipole moment (field-independent basis, Debye):
    X=              1.2993    Y=              5.3001    Z=             -0.0839  Tot=              5.4576
 Quadrupole moment (field-independent basis, Debye-Ang):
   XX=           -360.4354   YY=           -379.8912   ZZ=           -392.1379
   XY=            -29.7767   XZ=              9.9188   YZ=             -2.8963

 Normal termination of Gaussian 16 at Sat Aug 17 12:45:54 2019.
