 Gaussian 16, Revision A.03,
 Gaussian 16:  ES64L-G16RevA.03 25-Dec-2016

 --------------------------
 # td=(NStates=1) B3LYP/SVP
 --------------------------

 --
 TD
 --
 Symbolic Z-matrix:
 Charge =  0 Multiplicity = 1

                         Standard orientation:
 ---------------------------------------------------------------------
 Center     Atomic      Atomic             Coordinates (Angstroms)
 Number     Number       Type             X           Y           Z
 ---------------------------------------------------------------------
      1          6           0       -5.143555   -1.964698    0.490785
      2          6           0       -4.681558    2.670066    1.434494
      3          6           0       -9.140380    3.473724   -0.223901
      4          6           0       -9.825998   -1.266716   -0.901730
      5          7           0       -5.139183    0.455629    0.858817
      6          6           0       -4.557833   -0.727638    0.757701
      7          6           0       -3.087388   -0.629094    1.191650
      8          6           0       -2.952677    0.779348    1.912448
      9          6           0       -4.344825    1.340147    1.297838
     10          6           0       -3.133934    0.746757    3.395857
     11          6           0       -2.080142   -0.851147    0.035568
     12          6           0       -0.634429   -0.878341    0.538743
     13          6           0        0.264275   -1.233175   -0.644037
     14          8           0        0.015077   -1.728367   -1.733539
     15          8           0        1.589046   -0.950509   -0.319207
     16          7           0       -6.878725    2.814797    0.471712
     17          6           0       -5.853504    3.348056    1.075871
     18          6           0       -6.035525    4.742209    1.036588
     19          6           0       -7.332092    5.072152    0.524070
     20          6           0       -7.912270    3.709297    0.280676
     21          6           0       -4.986889    5.752899    1.592019
     22          6           0       -7.886693    6.347209    0.275621
     23          6           0       -8.941573    6.736556   -0.516750
     24          7           0       -9.147195    1.027018   -0.367880
     25          6           0       -9.797017    2.208747   -0.504829
     26          6           0      -11.200632    2.062033   -0.905532
     27          6           0      -11.402466    0.660175   -0.955689
     28          6           0      -10.133805    0.111648   -0.812945
     29          6           0      -12.178127    3.137517   -1.178678
     30          6           0      -12.534652   -0.056255   -1.567053
     31          6           0      -12.695335   -0.237843   -3.057984
     32          7           0       -7.426203   -1.242879   -0.250245
     33          6           0       -8.624776   -1.933604   -0.626869
     34          6           0       -8.331526   -3.412012   -0.652783
     35          6           0       -6.918654   -3.402231   -0.267804
     36          6           0       -6.516438   -2.075707   -0.044745
     37          6           0       -9.190550   -4.544955   -0.964795
     38          6           0       -5.854722   -4.296872    0.067457
     39          8           0       -5.860407   -5.515903    0.204890
     40          6           0       -4.515291   -3.450379    0.417510
     41          6           0       -3.953607   -3.917063    1.753190
     42          8           0       -4.376397   -3.640675    2.853230
     43          8           0       -3.047215   -4.856962    1.548105
     44          6           0       -2.698460   -5.622908    2.649717
     45          6           0        2.513684   -1.127952   -1.332627
     46          6           0        3.862446   -0.775251   -0.740437
     47          6           0        4.818112    0.050086   -1.103600
     48          6           0        4.867117    0.782615   -2.400741
     49          6           0        6.157420    0.105978   -0.399486
     50          6           0        7.602391   -0.240792   -1.204715
     51          6           0        8.761224   -0.283100   -0.145064
     52          6           0       10.069848   -0.646577   -0.974569
     53          6           0       10.044000   -2.218725   -1.537633
     54          6           0       11.366010   -0.273900   -0.220637
     55          6           0       12.668069   -0.501899   -0.890593
     56          6           0       13.775150   -0.020269    0.099859
     57          6           0       15.249556   -0.175499   -0.373022
     58          6           0       15.703042   -1.728017   -0.251853
     59          6           0       16.208899    0.692214    0.366337
     60          6           0       17.664843    0.890294   -0.208907
     61          6           0       18.531829    1.626022    0.817200
     62          6           0       20.118064    1.582039    0.403508
     63          6           0       20.363242    2.244797   -0.949632
     64          6           0       20.889363    2.320940    1.541001
     65          1           0       -3.726517    3.298177    1.813049
     66          1           0       -9.817267    4.311641   -0.154230
     67          1           0      -10.739477   -1.914875   -1.025917
     68          1           0       -3.073112   -1.375318    1.883340
     69          1           0       -2.158676    1.276311    1.515165
     70          1           0       -2.144650    0.096807    3.840094
     71          1           0       -3.343731    1.647886    3.965798
     72          1           0       -4.017390    0.221830    3.757687
     73          1           0       -2.409868   -1.934101   -0.360875
     74          1           0       -2.202695   -0.250567   -0.508841
     75          1           0       -0.519966    0.064060    1.131669
     76          1           0       -0.542496   -1.669126    1.278754
     77          1           0       -3.879665    5.539713    1.170849
     78          1           0       -5.335743    6.668773    1.428257
     79          1           0       -4.958434    5.649150    2.661967
     80          1           0       -7.792769    7.229512    1.023164
     81          1           0       -9.318612    6.008029   -1.440114
     82          1           0       -9.247039    7.737252   -0.534457
     83          1           0      -12.519014    3.751840   -0.164709
     84          1           0      -11.763999    3.946307   -1.890331
     85          1           0      -13.222764    2.694276   -1.481604
     86          1           0      -12.927661   -1.025630   -1.071974
     87          1           0      -13.469260    0.704385   -1.180140
     88          1           0      -12.512015    0.665485   -3.489659
     89          1           0      -11.846615   -0.825685   -3.694182
     90          1           0      -13.741704   -0.746691   -3.778444
     91          1           0       -9.959560   -4.588037   -0.237490
     92          1           0       -9.590225   -4.420124   -2.041370
     93          1           0       -8.603136   -5.494152   -1.073166
     94          1           0       -3.919054   -3.449176   -0.495233
     95          1           0       -2.210266   -6.480359    2.216047
     96          1           0       -1.717302   -5.121096    3.179705
     97          1           0       -3.578995   -5.720376    3.140226
     98          1           0        2.337142   -2.224078   -1.858454
     99          1           0        2.511969   -0.632023   -2.231964
    100          1           0        3.907441   -1.399611    0.352432
    101          1           0        4.822899    1.903378   -2.104791
    102          1           0        5.760855    0.347182   -3.005895
    103          1           0        3.989034    0.439792   -3.231700
    104          1           0        6.136578    1.248271    0.130793
    105          1           0        6.046913   -0.481184    0.474436
    106          1           0        7.350387   -1.228033   -1.724264
    107          1           0        7.645263    0.371212   -2.193813
    108          1           0        8.626878    0.634307    0.344474
    109          1           0        8.492339   -1.063018    0.529860
    110          1           0       10.087418    0.037382   -1.941874
    111          1           0        9.050631   -2.323812   -1.971809
    112          1           0       10.603507   -2.482997   -2.384088
    113          1           0       10.102352   -2.962296   -0.646389
    114          1           0       11.181649    0.827250    0.118921
    115          1           0       11.449758   -1.126378    0.625356
    116          1           0       12.786197   -1.473418   -1.168566
    117          1           0       12.705119   -0.048356   -1.671365
    118          1           0       13.746572    1.201206   -0.076232
    119          1           0       13.647055   -0.302420    1.238910
    120          1           0       15.439071    0.134691   -1.282216
    121          1           0       14.869456   -2.475641   -0.697943
    122          1           0       16.755578   -2.019943   -0.497140
    123          1           0       15.917348   -2.022343    0.806494
    124          1           0       15.773034    1.758276    0.405081
    125          1           0       16.303254    0.571416    1.541931
    126          1           0       18.041085   -0.126486   -0.487000
    127          1           0       17.499563    1.377129   -1.090590
    128          1           0       18.383309    2.724615    0.816911
    129          1           0       18.513671    1.246755    1.828900
    130          1           0       20.527268    0.567585    0.220527
    131          1           0       20.236263    3.330547   -1.051662
    132          1           0       21.452440    2.252762   -1.079538
    133          1           0       19.849586    1.617233   -1.854438
    134          1           0       21.083221    1.770070    2.474441
    135          1           0       22.001454    2.631817    1.061163
    136          1           0       20.634608    3.452028    1.566444
    137          1           0       -7.122122    1.670072    0.477141
    138          1           0       -7.285640   -0.267125    0.063424
 ---------------------------------------------------------------------

 SCF Done:  E(RB3LYP) =  -2732.86675496     A.U. after   17 cycles

 Excitation energies and oscillator strengths:

 Excited State   1:      Singlet-A      2.0999 eV  590.44 nm  f=0.0830  <S**2>=0.000
     235 -> 237       -0.32266
     235 -> 238       -0.32532
     236 -> 237        0.49085
     236 -> 238       -0.20761
 This state for optimization and/or second-order correction.
 Total Energy, E(TD-HF/TD-DFT) =  -2732.78958687
 Copying the excited state density for this state as the 1-particle RhoCI density.

 The electronic state is 1-A.
 Alpha  occ. eigenvalues --  -19.17607 -19.17562 -19.13740 -19.12156 -19.11848
 Alpha  occ. eigenvalues --  -14.38214 -14.37593 -14.32017 -14.30304 -10.32615
 Alpha  occ. eigenvalues --  -10.31528 -10.27783 -10.24856 -10.24023 -10.24004
 Alpha  occ. eigenvalues --  -10.23883 -10.23802 -10.23674 -10.23461 -10.22850
 Alpha  occ. eigenvalues --  -10.22736 -10.22104 -10.21823 -10.21731 -10.21645
 Alpha  occ. eigenvalues --  -10.21558 -10.21458 -10.21420 -10.21340 -10.21257
 Alpha  occ. eigenvalues --  -10.21113 -10.21113 -10.21053 -10.20844 -10.20843
 Alpha  occ. eigenvalues --  -10.20840 -10.20617 -10.20559 -10.20370 -10.20087
 Alpha  occ. eigenvalues --  -10.20084 -10.20061 -10.19854 -10.19735 -10.19731
 Alpha  occ. eigenvalues --  -10.19567 -10.19560 -10.19549 -10.19400 -10.19332
 Alpha  occ. eigenvalues --  -10.19038 -10.19032 -10.19025 -10.18883 -10.18800
 Alpha  occ. eigenvalues --  -10.18798 -10.18753 -10.18425 -10.18402 -10.18352
 Alpha  occ. eigenvalues --  -10.18256 -10.18217 -10.17752 -10.15528  -1.11196
 Alpha  occ. eigenvalues --   -1.09421  -1.01872  -1.00841  -1.00831  -1.00744
 Alpha  occ. eigenvalues --   -0.99648  -0.97032  -0.93053  -0.83645  -0.82562
 Alpha  occ. eigenvalues --   -0.82103  -0.81775  -0.81579  -0.81394  -0.80681
 Alpha  occ. eigenvalues --   -0.80082  -0.79652  -0.78805  -0.78649  -0.77888
 Alpha  occ. eigenvalues --   -0.76863  -0.76548  -0.75902  -0.75083  -0.74086
 Alpha  occ. eigenvalues --   -0.74003  -0.73168  -0.72895  -0.71460  -0.70781
 Alpha  occ. eigenvalues --   -0.70142  -0.69737  -0.68964  -0.67346  -0.66910
 Alpha  occ. eigenvalues --   -0.66430  -0.66322  -0.66031  -0.65604  -0.65065
 Alpha  occ. eigenvalues --   -0.63627  -0.63489  -0.63101  -0.62241  -0.61964
 Alpha  occ. eigenvalues --   -0.61390  -0.59897  -0.59155  -0.58351  -0.58307
 Alpha  occ. eigenvalues --   -0.57781  -0.57555  -0.56699  -0.56309  -0.56058
 Alpha  occ. eigenvalues --   -0.55236  -0.55145  -0.54477  -0.53436  -0.53043
 Alpha  occ. eigenvalues --   -0.52763  -0.52173  -0.51282  -0.51153  -0.50376
 Alpha  occ. eigenvalues --   -0.49983  -0.49747  -0.49369  -0.48945  -0.48521
 Alpha  occ. eigenvalues --   -0.48032  -0.47739  -0.47539  -0.47058  -0.46943
 Alpha  occ. eigenvalues --   -0.46816  -0.46672  -0.46323  -0.46068  -0.45843
 Alpha  occ. eigenvalues --   -0.45720  -0.44944  -0.44869  -0.44556  -0.44360
 Alpha  occ. eigenvalues --   -0.44183  -0.43978  -0.43797  -0.43710  -0.43504
 Alpha  occ. eigenvalues --   -0.43321  -0.43282  -0.43017  -0.42900  -0.42698
 Alpha  occ. eigenvalues --   -0.42315  -0.42185  -0.41963  -0.41901  -0.41807
 Alpha  occ. eigenvalues --   -0.41456  -0.41072  -0.40993  -0.40638  -0.40516
 Alpha  occ. eigenvalues --   -0.40183  -0.39964  -0.39759  -0.39494  -0.39390
 Alpha  occ. eigenvalues --   -0.38998  -0.38878  -0.38704  -0.38552  -0.38497
 Alpha  occ. eigenvalues --   -0.38107  -0.38042  -0.37780  -0.37597  -0.37327
 Alpha  occ. eigenvalues --   -0.37179  -0.37032  -0.36961  -0.36878  -0.36701
 Alpha  occ. eigenvalues --   -0.36497  -0.36241  -0.35893  -0.35809  -0.35764
 Alpha  occ. eigenvalues --   -0.35422  -0.35324  -0.35154  -0.34893  -0.34618
 Alpha  occ. eigenvalues --   -0.34542  -0.34278  -0.33778  -0.33258  -0.33232
 Alpha  occ. eigenvalues --   -0.33030  -0.32807  -0.32717  -0.32353  -0.32326
 Alpha  occ. eigenvalues --   -0.32037  -0.31854  -0.31574  -0.31340  -0.30908
 Alpha  occ. eigenvalues --   -0.30843  -0.30463  -0.30439  -0.29841  -0.29680
 Alpha  occ. eigenvalues --   -0.29389  -0.29285  -0.29021  -0.28538  -0.28149
 Alpha  occ. eigenvalues --   -0.27813  -0.27562  -0.27111  -0.26624  -0.26339
 Alpha  occ. eigenvalues --   -0.24847  -0.24250  -0.24176  -0.22710  -0.19845
 Alpha  occ. eigenvalues --   -0.19723
 Alpha virt. eigenvalues --   -0.10474  -0.08816  -0.04199  -0.02728  -0.01388
 Alpha virt. eigenvalues --   -0.00450   0.00190   0.00814   0.02179   0.03007
 Alpha virt. eigenvalues --    0.03830   0.03871   0.03980   0.04134   0.04436

 Mulliken charges:
               1
     1  C   -0.049306
     2  C   -0.099530
     3  C   -0.097975
     4  C   -0.073846
     5  N   -0.091165
     6  C   -0.077081
     7  C    0.000501
     8  C    0.014562
     9  C   -0.134645
    10  C    0.059508
    11  C    0.235052
    12  C    0.059596
    13  C    0.212258
    14  O   -0.227951
    15  O   -0.303387
    16  N   -0.091492
    17  C    0.143399
    18  C   -0.185021
    19  C    0.084347
    20  C    0.110361
    21  C    0.160527
    22  C   -0.111606
    23  C   -0.077016
    24  N   -0.271843
    25  C    0.047925
    26  C   -0.098946
    27  C   -0.055296
    28  C    0.058909
    29  C   -0.001734
    30  C   -0.024015
    31  C   -0.022910
    32  N    0.051574
    33  C    0.081407
    34  C   -0.101728
    35  C    0.003114
    36  C   -0.035784
    37  C    0.099779
    38  C    0.020033
    39  O   -0.196653
    40  C   -0.014583
    41  C    0.220792
    42  O   -0.235311
    43  O   -0.265550
    44  C    0.193867
    45  C    0.268752
    46  C   -0.130167
    47  C   -0.115551
    48  C   -0.019524
    49  C    0.040523
    50  C   -0.086292
    51  C    0.135551
    52  C   -0.116575
    53  C    0.027513
    54  C   -0.028860
    55  C    0.285704
    56  C   -0.079690
    57  C    0.105040
    58  C   -0.037126
    59  C   -0.087261
    60  C    0.091093
    61  C    0.055487
    62  C   -0.103342
    63  C   -0.019193
    64  C   -0.028424
    65  H    0.005355
    66  H   -0.009992
    67  H   -0.000990
    68  H   -0.048601
    69  H   -0.042017
    70  H    0.027801
    71  H    0.011425
    72  H    0.021216
    73  H    0.043470
    74  H   -0.177895
    75  H    0.037724
    76  H    0.027809
    77  H    0.046049
    78  H   -0.028611
    79  H    0.017224
    80  H    0.036172
    81  H    0.054862
    82  H    0.016929
    83  H    0.037241
    84  H    0.044467
    85  H    0.033521
    86  H    0.023982
    87  H    0.018215
    88  H   -0.013569
    89  H    0.013751
    90  H    0.036645
    91  H    0.038338
    92  H    0.041531
    93  H    0.047196
    94  H    0.064339
    95  H    0.021382
    96  H    0.027923
    97  H    0.027433
    98  H    0.026726
    99  H   -0.045148
   100  H    0.010089
   101  H    0.050314
   102  H    0.044861
   103  H    0.027250
   104  H    0.006848
   105  H   -0.021710
   106  H    0.023458
   107  H    0.026396
   108  H   -0.002018
   109  H   -0.002842
   110  H    0.000790
   111  H   -0.017657
   112  H    0.007625
   113  H    0.029316
   114  H    0.015186
   115  H    0.000189
   116  H   -0.043033
   117  H   -0.121105
   118  H    0.005857
   119  H    0.030480
   120  H   -0.064411
   121  H    0.031856
   122  H    0.005215
   123  H   -0.006057
   124  H   -0.016580
   125  H   -0.007507
   126  H   -0.004920
   127  H   -0.022416
   128  H   -0.001529
   129  H    0.000318
   130  H    0.004012
   131  H   -0.000620
   132  H   -0.002506
   133  H    0.036315
   134  H    0.037381
   135  H   -0.007160
   136  H    0.019694
   137  H    0.225643
   138  H    0.150283
 Sum of Mulliken charges =  -0.00000

 Dipole moment (field-independent basis, Debye):
    X=              1.2415    Y=              4.3879    Z=             -0.2795  Tot=              4.5687
 Quadrupole moment (field-independent basis, Debye-Ang):
   XX=           -357.6222   YY=           -381.5349   ZZ=           -396.2565
   XY=            -23.1694   XZ=              3.5959   YZ=              4.5881

 Normal termination of Gaussian 16 at Thu Aug 15 12:34:50 2019.
