 Gaussian 16, Revision A.03,
 Gaussian 16:  ES64L-G16RevA.03 25-Dec-2016

 --------------------------
 # td=(NStates=1) B3LYP/SVP
 --------------------------

 --
 TD
 --
 Symbolic Z-matrix:
 Charge =  0 Multiplicity = 1

                         Standard orientation:
 ---------------------------------------------------------------------
 Center     Atomic      Atomic             Coordinates (Angstroms)
 Number     Number       Type             X           Y           Z
 ---------------------------------------------------------------------
      1          6           0       -5.062281   -1.999657    0.562472
      2          6           0       -4.715146    2.747107    1.474236
      3          6           0       -9.343586    3.271003   -0.199167
      4          6           0       -9.699797   -1.496779   -1.039589
      5          7           0       -5.104216    0.379609    0.742149
      6          6           0       -4.433653   -0.757712    0.901949
      7          6           0       -3.006796   -0.547188    1.260055
      8          6           0       -3.051400    0.751069    1.946672
      9          6           0       -4.402025    1.364071    1.472683
     10          6           0       -3.219310    0.621803    3.463426
     11          6           0       -2.107742   -0.605732    0.014024
     12          6           0       -0.690511   -0.479727    0.405395
     13          6           0        0.220919   -0.648412   -0.720702
     14          8           0       -0.065158   -1.037091   -1.863327
     15          8           0        1.529882   -0.481565   -0.289535
     16          7           0       -7.059122    2.667541    0.514546
     17          6           0       -5.924232    3.302010    1.035455
     18          6           0       -6.223461    4.734422    1.173495
     19          6           0       -7.531135    4.853368    0.565209
     20          6           0       -8.088452    3.539841    0.243658
     21          6           0       -5.292312    5.827737    1.650801
     22          6           0       -8.272956    6.154937    0.468707
     23          6           0       -9.201434    6.441011   -0.457769
     24          7           0       -9.127146    0.790466   -0.520351
     25          6           0       -9.723743    1.906351   -0.565661
     26          6           0      -11.101166    1.755569   -0.946256
     27          6           0      -11.315119    0.442289   -1.159233
     28          6           0      -10.035549   -0.151705   -0.944308
     29          6           0      -12.222439    2.895705   -1.020460
     30          6           0      -12.529968   -0.361868   -1.699457
     31          6           0      -12.507474   -0.544308   -3.193292
     32          7           0       -7.473704   -1.319424   -0.285302
     33          6           0       -8.538229   -2.091635   -0.691594
     34          6           0       -8.030042   -3.516210   -0.644630
     35          6           0       -6.745154   -3.511093   -0.174600
     36          6           0       -6.387439   -2.128254    0.205514
     37          6           0       -8.886807   -4.655416   -1.143658
     38          6           0       -5.569617   -4.339668    0.040667
     39          8           0       -5.473023   -5.468531   -0.085112
     40          6           0       -4.332261   -3.285467    0.497434
     41          6           0       -3.900283   -3.860001    1.802418
     42          8           0       -4.073377   -3.391825    2.927886
     43          8           0       -3.103950   -4.914072    1.531101
     44          6           0       -2.534895   -5.702325    2.624492
     45          6           0        2.536747   -0.534986   -1.328203
     46          6           0        3.913980   -0.221802   -0.698061
     47          6           0        4.846156    0.513187   -1.145432
     48          6           0        4.920617    1.389967   -2.419277
     49          6           0        6.164265    0.602873   -0.386204
     50          6           0        7.434756   -0.070480   -1.073004
     51          6           0        8.743059   -0.000678   -0.186852
     52          6           0        9.998543   -0.668561   -0.813758
     53          6           0        9.812109   -2.171608   -1.032086
     54          6           0       11.340413   -0.370772    0.063704
     55          6           0       12.623330   -0.761198   -0.551282
     56          6           0       13.740661   -0.052370    0.205068
     57          6           0       15.107581   -0.201457   -0.506034
     58          6           0       15.634947   -1.594593   -0.599367
     59          6           0       16.200538    0.584255    0.285691
     60          6           0       17.651469    0.583242   -0.173373
     61          6           0       18.648104    1.309864    0.844425
     62          6           0       20.039761    1.293473    0.202546
     63          6           0       20.137903    1.935840   -1.100060
     64          6           0       21.046918    2.073178    1.145890
     65          1           0       -3.904379    3.355136    1.921774
     66          1           0       -9.801589    4.286718   -0.216341
     67          1           0      -10.582671   -2.131704   -1.577446
     68          1           0       -2.838124   -1.317421    1.879560
     69          1           0       -2.229279    1.408232    1.736235
     70          1           0       -2.198611    0.332229    3.744526
     71          1           0       -3.255598    1.596026    3.956819
     72          1           0       -4.155923   -0.026252    3.683408
     73          1           0       -2.224055   -1.608625   -0.552997
     74          1           0       -2.491475    0.258912   -0.683693
     75          1           0       -0.588748    0.571478    0.698144
     76          1           0       -0.214401   -1.132873    1.287532
     77          1           0       -4.274958    5.742550    1.069021
     78          1           0       -5.536284    6.919024    1.512398
     79          1           0       -5.158728    5.583286    2.815987
     80          1           0       -7.999807    6.891258    1.290247
     81          1           0       -9.262085    5.664975   -1.314838
     82          1           0       -9.848063    7.300852   -0.624392
     83          1           0      -12.390402    3.190501    0.006518
     84          1           0      -11.943356    3.663512   -1.632270
     85          1           0      -13.027455    2.519121   -1.480792
     86          1           0      -12.445664   -1.350673   -1.213669
     87          1           0      -13.615730    0.139189   -1.412146
     88          1           0      -12.482126    0.431714   -3.582498
     89          1           0      -11.456031   -1.062013   -3.496465
     90          1           0      -13.214377   -1.192432   -3.616802
     91          1           0       -9.573233   -5.057695   -0.076553
     92          1           0       -9.361910   -4.331283   -2.102879
     93          1           0       -8.290510   -5.498641   -1.431619
     94          1           0       -3.817165   -3.575510   -0.291943
     95          1           0       -1.978947   -6.592872    2.270456
     96          1           0       -1.957173   -5.067741    3.332303
     97          1           0       -3.352262   -5.957330    3.338964
     98          1           0        2.526390   -1.434604   -1.882119
     99          1           0        2.350336    0.435015   -2.169608
    100          1           0        4.130226   -0.889235    0.225328
    101          1           0        5.203031    2.419912   -2.182164
    102          1           0        5.489902    0.807908   -3.133823
    103          1           0        3.968993    1.420471   -3.100018
    104          1           0        6.346487    1.686372   -0.257837
    105          1           0        6.073173    0.414145    0.664255
    106          1           0        7.260963   -1.332547   -1.283927
    107          1           0        7.461057    0.301785   -2.076077
    108          1           0        9.231345    1.063875   -0.100707
    109          1           0        8.711016   -0.500185    0.662199
    110          1           0       10.198522    0.027812   -1.750123
    111          1           0        9.001745   -2.402379   -1.690594
    112          1           0       10.420482   -2.639522   -1.721438
    113          1           0        9.575235   -2.506073    0.015014
    114          1           0       11.307343    0.846180    0.233808
    115          1           0       11.261139   -0.942087    0.965674
    116          1           0       12.711908   -1.893871   -0.417097
    117          1           0       12.398855   -0.444943   -1.602452
    118          1           0       13.638829    1.079379    0.273132
    119          1           0       13.719123   -0.594817    1.268814
    120          1           0       14.936750    0.380349   -1.475588
    121          1           0       14.947923   -2.109056   -1.084476
    122          1           0       16.520754   -1.904498   -0.976253
    123          1           0       15.459986   -2.097664    0.393210
    124          1           0       15.894228    1.701297    0.471187
    125          1           0       16.142390    0.249687    1.268059
    126          1           0       18.129068   -0.371245   -0.298264
    127          1           0       17.486553    0.969034   -1.157285
    128          1           0       18.162283    2.382390    1.064249
    129          1           0       18.834637    0.842850    1.800540
    130          1           0       20.401032    0.163461    0.340665
    131          1           0       19.677925    2.922630   -0.767689
    132          1           0       21.242493    2.055629   -1.348777
    133          1           0       19.636714    1.469578   -1.715040
    134          1           0       21.084660    1.542196    2.119934
    135          1           0       21.993512    1.791141    0.847070
    136          1           0       20.929497    3.175979    1.417448
    137          1           0       -7.281014    1.611155    0.587100
    138          1           0       -7.698226   -0.306866   -0.244574
 ---------------------------------------------------------------------

 SCF Done:  E(RB3LYP) =  -2733.03685337     A.U. after   16 cycles

 Excitation energies and oscillator strengths:

 Excited State   1:      Singlet-A      2.0299 eV  610.80 nm  f=0.1644  <S**2>=0.000
     235 -> 237       -0.11991
     235 -> 238        0.28931
     236 -> 237        0.62099
     236 -> 238        0.12462
 This state for optimization and/or second-order correction.
 Total Energy, E(TD-HF/TD-DFT) =  -2732.96225721
 Copying the excited state density for this state as the 1-particle RhoCI density.

 The electronic state is 1-A.
 Alpha  occ. eigenvalues --  -19.17559 -19.17455 -19.13716 -19.12633 -19.11898
 Alpha  occ. eigenvalues --  -14.36929 -14.36002 -14.31697 -14.29697 -10.31539
 Alpha  occ. eigenvalues --  -10.31401 -10.28290 -10.25734 -10.24978 -10.24569
 Alpha  occ. eigenvalues --  -10.23856 -10.23011 -10.22900 -10.22698 -10.22323
 Alpha  occ. eigenvalues --  -10.22208 -10.22045 -10.21340 -10.21318 -10.21305
 Alpha  occ. eigenvalues --  -10.21023 -10.20930 -10.20854 -10.20844 -10.20618
 Alpha  occ. eigenvalues --  -10.20524 -10.20250 -10.20228 -10.20098 -10.20042
 Alpha  occ. eigenvalues --  -10.19930 -10.19886 -10.19884 -10.19739 -10.19638
 Alpha  occ. eigenvalues --  -10.19604 -10.19516 -10.19420 -10.19155 -10.19093
 Alpha  occ. eigenvalues --  -10.19004 -10.18970 -10.18808 -10.18731 -10.18675
 Alpha  occ. eigenvalues --  -10.18523 -10.18434 -10.18363 -10.18160 -10.17959
 Alpha  occ. eigenvalues --  -10.17526 -10.17451 -10.17408 -10.17382 -10.17020
 Alpha  occ. eigenvalues --  -10.17000 -10.16969 -10.16088 -10.15667  -1.08588
 Alpha  occ. eigenvalues --   -1.07707  -1.07678  -0.99291  -0.99178  -0.97008
 Alpha  occ. eigenvalues --   -0.96310  -0.95291  -0.94085  -0.85022  -0.82641
 Alpha  occ. eigenvalues --   -0.82276  -0.81932  -0.81167  -0.80945  -0.80534
 Alpha  occ. eigenvalues --   -0.80000  -0.79586  -0.79232  -0.78540  -0.78250
 Alpha  occ. eigenvalues --   -0.76727  -0.76372  -0.75383  -0.74445  -0.74164
 Alpha  occ. eigenvalues --   -0.73755  -0.73312  -0.72574  -0.71466  -0.70278
 Alpha  occ. eigenvalues --   -0.69964  -0.69310  -0.68741  -0.68471  -0.68370
 Alpha  occ. eigenvalues --   -0.68031  -0.67540  -0.66708  -0.65864  -0.65036
 Alpha  occ. eigenvalues --   -0.64293  -0.62628  -0.62130  -0.61172  -0.61017
 Alpha  occ. eigenvalues --   -0.60638  -0.59335  -0.58329  -0.58081  -0.57321
 Alpha  occ. eigenvalues --   -0.56531  -0.56351  -0.55126  -0.55036  -0.54934
 Alpha  occ. eigenvalues --   -0.54237  -0.53770  -0.53297  -0.53178  -0.52690
 Alpha  occ. eigenvalues --   -0.52535  -0.52205  -0.51257  -0.50746  -0.50548
 Alpha  occ. eigenvalues --   -0.49734  -0.49584  -0.49334  -0.48755  -0.48320
 Alpha  occ. eigenvalues --   -0.48135  -0.47771  -0.47578  -0.47357  -0.47108
 Alpha  occ. eigenvalues --   -0.47013  -0.46810  -0.45846  -0.45628  -0.45467
 Alpha  occ. eigenvalues --   -0.45334  -0.45298  -0.45092  -0.44823  -0.44670
 Alpha  occ. eigenvalues --   -0.44611  -0.44279  -0.44028  -0.43894  -0.43771
 Alpha  occ. eigenvalues --   -0.43616  -0.43187  -0.43130  -0.43038  -0.42704
 Alpha  occ. eigenvalues --   -0.42643  -0.42424  -0.42050  -0.42000  -0.41685
 Alpha  occ. eigenvalues --   -0.41270  -0.41251  -0.41066  -0.40975  -0.40477
 Alpha  occ. eigenvalues --   -0.40318  -0.40277  -0.40045  -0.39849  -0.39664
 Alpha  occ. eigenvalues --   -0.39465  -0.39293  -0.38910  -0.38875  -0.38640
 Alpha  occ. eigenvalues --   -0.38304  -0.38063  -0.37566  -0.37385  -0.37203
 Alpha  occ. eigenvalues --   -0.37095  -0.36914  -0.36774  -0.36746  -0.36324
 Alpha  occ. eigenvalues --   -0.35819  -0.35733  -0.35671  -0.35611  -0.35483
 Alpha  occ. eigenvalues --   -0.35228  -0.35064  -0.35010  -0.34856  -0.34587
 Alpha  occ. eigenvalues --   -0.34417  -0.34269  -0.34129  -0.33846  -0.33479
 Alpha  occ. eigenvalues --   -0.33132  -0.33037  -0.32742  -0.32343  -0.32108
 Alpha  occ. eigenvalues --   -0.32028  -0.31861  -0.31814  -0.31598  -0.31156
 Alpha  occ. eigenvalues --   -0.30875  -0.30554  -0.30400  -0.30165  -0.29788
 Alpha  occ. eigenvalues --   -0.29667  -0.29097  -0.28545  -0.28080  -0.27856
 Alpha  occ. eigenvalues --   -0.27706  -0.26855  -0.26485  -0.26127  -0.26022
 Alpha  occ. eigenvalues --   -0.25837  -0.24769  -0.23676  -0.23164  -0.20169
 Alpha  occ. eigenvalues --   -0.18149
 Alpha virt. eigenvalues --   -0.09572  -0.08011  -0.04232  -0.01669  -0.01141
 Alpha virt. eigenvalues --    0.00229   0.00809   0.02145   0.02718   0.03802
 Alpha virt. eigenvalues --    0.04110   0.04216   0.04629   0.04714   0.05089

 Mulliken charges:
               1
     1  C    0.003917
     2  C   -0.095774
     3  C   -0.093495
     4  C   -0.113237
     5  N   -0.176756
     6  C   -0.140576
     7  C    0.197805
     8  C   -0.093543
     9  C   -0.001280
    10  C    0.090435
    11  C    0.021775
    12  C    0.046792
    13  C    0.188897
    14  O   -0.253522
    15  O   -0.342174
    16  N   -0.113432
    17  C    0.167508
    18  C   -0.125324
    19  C   -0.012094
    20  C    0.038218
    21  C    0.012312
    22  C   -0.042358
    23  C   -0.062300
    24  N   -0.182152
    25  C    0.097402
    26  C   -0.234051
    27  C   -0.061835
    28  C    0.009560
    29  C    0.247285
    30  C    0.014580
    31  C    0.046269
    32  N   -0.105182
    33  C    0.079433
    34  C   -0.161040
    35  C    0.016183
    36  C    0.150245
    37  C    0.056228
    38  C   -0.023227
    39  O   -0.067775
    40  C   -0.001032
    41  C    0.234355
    42  O   -0.249785
    43  O   -0.317772
    44  C    0.188654
    45  C    0.224177
    46  C   -0.100228
    47  C   -0.118579
    48  C    0.062031
    49  C    0.087809
    50  C   -0.007013
    51  C    0.091951
    52  C   -0.152852
    53  C    0.109689
    54  C   -0.026560
    55  C    0.061038
    56  C   -0.037788
    57  C   -0.064427
    58  C    0.174539
    59  C    0.034213
    60  C    0.046754
    61  C    0.014457
    62  C   -0.194051
    63  C    0.186337
    64  C    0.049859
    65  H   -0.014983
    66  H   -0.024855
    67  H    0.022559
    68  H   -0.082184
    69  H   -0.025910
    70  H    0.000031
    71  H   -0.004543
    72  H    0.062681
    73  H    0.037596
    74  H    0.033811
    75  H    0.022150
    76  H    0.071059
    77  H    0.050513
    78  H    0.037060
    79  H    0.053081
    80  H    0.018536
    81  H    0.050813
    82  H    0.030841
    83  H    0.021850
    84  H   -0.018610
    85  H   -0.039854
    86  H    0.004061
    87  H    0.022083
    88  H    0.000562
    89  H    0.007520
    90  H    0.008104
    91  H    0.069052
    92  H    0.038529
    93  H    0.018637
    94  H   -0.000879
    95  H    0.054599
    96  H    0.022391
    97  H    0.025378
    98  H    0.028054
    99  H    0.035614
   100  H    0.008190
   101  H    0.036775
   102  H    0.027062
   103  H    0.005135
   104  H   -0.013941
   105  H   -0.023882
   106  H    0.014884
   107  H   -0.008626
   108  H    0.012340
   109  H   -0.043744
   110  H   -0.009120
   111  H   -0.019294
   112  H   -0.015819
   113  H    0.018734
   114  H    0.009044
   115  H   -0.023517
   116  H    0.019263
   117  H   -0.007412
   118  H    0.012263
   119  H    0.010016
   120  H   -0.006498
   121  H   -0.062630
   122  H   -0.013093
   123  H   -0.018088
   124  H   -0.020674
   125  H   -0.048947
   126  H   -0.011995
   127  H   -0.002857
   128  H    0.005802
   129  H   -0.005340
   130  H    0.001779
   131  H    0.007159
   132  H    0.011815
   133  H   -0.065412
   134  H   -0.023757
   135  H   -0.023952
   136  H    0.026602
   137  H    0.187032
   138  H    0.139861
 Sum of Mulliken charges =  -0.00000

 Dipole moment (field-independent basis, Debye):
    X=              2.3348    Y=              2.7085    Z=              0.5849  Tot=              3.6234
 Quadrupole moment (field-independent basis, Debye-Ang):
   XX=           -372.7971   YY=           -369.6646   ZZ=           -395.6085
   XY=            -28.4704   XZ=              5.9340   YZ=              2.0862

 Normal termination of Gaussian 16 at Sat Aug 10 07:21:48 2019.
