 Gaussian 16, Revision A.03,
 Gaussian 16:  ES64L-G16RevA.03 25-Dec-2016

 --------------------------
 # td=(NStates=1) B3LYP/SVP
 --------------------------

 --
 TD
 --
 Symbolic Z-matrix:
 Charge =  0 Multiplicity = 1

                         Standard orientation:
 ---------------------------------------------------------------------
 Center     Atomic      Atomic             Coordinates (Angstroms)
 Number     Number       Type             X           Y           Z
 ---------------------------------------------------------------------
      1          6           0       -5.207832   -2.008021    0.480593
      2          6           0       -4.610805    2.724847    1.303113
      3          6           0       -9.289494    3.569534   -0.266542
      4          6           0       -9.848560   -1.250221   -0.924960
      5          7           0       -5.060804    0.425482    0.833274
      6          6           0       -4.528963   -0.882030    0.915217
      7          6           0       -3.001247   -0.643857    1.245338
      8          6           0       -2.964674    0.863448    1.630088
      9          6           0       -4.312860    1.336657    1.226208
     10          6           0       -2.780799    0.924556    3.159352
     11          6           0       -2.056653   -1.119730   -0.013427
     12          6           0       -0.667110   -1.032755    0.507809
     13          6           0        0.316946   -1.416240   -0.563278
     14          8           0        0.066691   -1.650597   -1.740721
     15          8           0        1.553295   -1.268058   -0.057130
     16          7           0       -7.019714    2.738120    0.384379
     17          6           0       -5.846657    3.341317    0.880998
     18          6           0       -6.071354    4.766585    1.043647
     19          6           0       -7.378630    5.015941    0.677616
     20          6           0       -7.925523    3.800203    0.244001
     21          6           0       -5.088419    5.791541    1.521648
     22          6           0       -8.025182    6.342399    0.596004
     23          6           0       -8.994415    6.888037   -0.230385
     24          7           0       -9.136348    1.109356   -0.403693
     25          6           0       -9.881680    2.309899   -0.540976
     26          6           0      -11.242544    2.072082   -0.982607
     27          6           0      -11.375895    0.757875   -1.188141
     28          6           0      -10.059187    0.118721   -0.854298
     29          6           0      -12.292550    3.141372   -1.219781
     30          6           0      -12.548534   -0.053424   -1.678402
     31          6           0      -12.584525   -0.205729   -3.209881
     32          7           0       -7.456947   -1.193219   -0.241772
     33          6           0       -8.576716   -1.863515   -0.726235
     34          6           0       -8.327478   -3.376826   -0.685094
     35          6           0       -6.980099   -3.384296   -0.346593
     36          6           0       -6.476894   -2.007086    0.020230
     37          6           0       -9.180098   -4.569610   -1.035260
     38          6           0       -5.896547   -4.278219    0.017717
     39          8           0       -5.768542   -5.445621   -0.072173
     40          6           0       -4.632128   -3.373366    0.578768
     41          6           0       -4.039493   -3.814202    1.793498
     42          8           0       -4.240134   -3.406799    2.881131
     43          8           0       -3.180535   -4.842123    1.571685
     44          6           0       -2.741329   -5.497448    2.741098
     45          6           0        2.732469   -1.388922   -1.101881
     46          6           0        4.004352   -0.966797   -0.499921
     47          6           0        4.993426   -0.195562   -1.074187
     48          6           0        4.874648    0.338963   -2.471569
     49          6           0        6.252949    0.121612   -0.324114
     50          6           0        7.474550   -0.530892   -0.884797
     51          6           0        8.783611   -0.294652   -0.092729
     52          6           0       10.091632   -0.948952   -0.630124
     53          6           0        9.933390   -2.367853   -0.734940
     54          6           0       11.287861   -0.530829    0.169639
     55          6           0       12.741860   -0.778185   -0.406171
     56          6           0       13.906106   -0.170322    0.266194
     57          6           0       15.325125   -0.146582   -0.427594
     58          6           0       15.770881   -1.639974   -0.536719
     59          6           0       16.216029    0.668057    0.443519
     60          6           0       17.547508    0.842756   -0.205403
     61          6           0       18.485932    1.870518    0.524510
     62          6           0       19.905171    1.961885    0.023524
     63          6           0       20.052805    2.581976   -1.370351
     64          6           0       20.687556    2.985941    0.924063
     65          1           0       -3.901083    3.352422    1.820212
     66          1           0       -9.848954    4.482742   -0.700643
     67          1           0      -10.585223   -1.847320   -1.415024
     68          1           0       -2.897575   -1.125752    2.259647
     69          1           0       -2.226319    1.609279    1.027832
     70          1           0       -1.798695    0.566562    3.376922
     71          1           0       -2.441036    2.168316    3.489673
     72          1           0       -3.705663    0.402249    3.746213
     73          1           0       -2.434441   -2.239440   -0.494190
     74          1           0       -2.239203   -0.358008   -0.769012
     75          1           0       -0.131038   -0.173466    0.987206
     76          1           0       -0.388214   -1.846868    1.221138
     77          1           0       -3.951565    5.487951    1.072417
     78          1           0       -5.316878    6.815803    1.438773
     79          1           0       -4.981891    5.436005    2.615358
     80          1           0       -7.726725    7.113342    1.292993
     81          1           0       -9.367769    6.359989   -1.156608
     82          1           0       -9.278416    7.942308   -0.290827
     83          1           0      -12.535017    3.776938   -0.242140
     84          1           0      -11.772991    3.853272   -1.924586
     85          1           0      -13.150168    2.790360   -1.693159
     86          1           0      -12.710594   -1.052984   -1.215901
     87          1           0      -13.312699    0.555459   -1.345885
     88          1           0      -12.461003    0.634478   -3.777092
     89          1           0      -11.651567   -0.958804   -3.582419
     90          1           0      -13.539517   -0.607515   -3.577819
     91          1           0       -9.916400   -4.716642   -0.446284
     92          1           0       -9.625252   -4.514652   -2.113093
     93          1           0       -8.374102   -5.349178   -1.233769
     94          1           0       -3.869506   -3.445544   -0.256728
     95          1           0       -2.168472   -6.371422    2.112105
     96          1           0       -2.157009   -4.931130    3.654135
     97          1           0       -3.562632   -5.878318    3.189626
     98          1           0        2.758703   -2.339698   -1.414514
     99          1           0        2.316935   -0.814452   -1.836028
    100          1           0        4.136501   -1.241608    0.503671
    101          1           0        5.183701    1.344999   -2.402671
    102          1           0        5.560148   -0.036196   -3.332776
    103          1           0        3.901412    0.292603   -3.006151
    104          1           0        6.328487    1.268712   -0.588309
    105          1           0        6.037656   -0.125791    0.625002
    106          1           0        7.242701   -1.599895   -0.830671
    107          1           0        7.904980   -0.258223   -1.847431
    108          1           0        9.140112    0.807730   -0.138539
    109          1           0        8.804815   -0.711429    0.873960
    110          1           0       10.157610   -0.608448   -1.633855
    111          1           0        9.425955   -2.759207   -1.539848
    112          1           0       11.019520   -3.111294   -0.758328
    113          1           0        9.698296   -2.894609    0.294673
    114          1           0       11.193668    0.526697    0.432091
    115          1           0       11.366717   -1.069733    1.035591
    116          1           0       13.089187   -1.963592   -0.586294
    117          1           0       12.815692   -0.369117   -1.418568
    118          1           0       13.575883    0.924391    0.312425
    119          1           0       14.248629   -0.479911    1.249493
    120          1           0       15.046290    0.245189   -1.378276
    121          1           0       15.085662   -2.082732   -1.108844
    122          1           0       16.817316   -1.786992   -0.994559
    123          1           0       15.885553   -1.975565    0.493988
    124          1           0       15.876490    1.568512    0.345437
    125          1           0       16.333298    0.251196    1.498435
    126          1           0       17.962209   -0.089037   -0.359481
    127          1           0       17.561230    1.074513   -1.225891
    128          1           0       17.945335    2.833983    0.390976
    129          1           0       18.451003    1.744180    1.567379
    130          1           0       20.491815    1.027666    0.024831
    131          1           0       19.471898    3.630000   -1.458706
    132          1           0       21.189832    2.470697   -1.739190
    133          1           0       19.470597    2.001894   -2.194001
    134          1           0       20.553520    2.821345    2.147629
    135          1           0       21.874742    2.910547    0.889918
    136          1           0       20.342472    3.894662    0.867173
    137          1           0       -7.291795    1.824773    0.421919
    138          1           0       -7.376242   -0.133524   -0.166553
 ---------------------------------------------------------------------

 SCF Done:  E(RB3LYP) =  -2733.01656734     A.U. after   17 cycles

 Excitation energies and oscillator strengths:

 Excited State   1:      Singlet-A      2.0029 eV  619.03 nm  f=0.1770  <S**2>=0.000
     235 -> 237       -0.17469
     235 -> 238       -0.26308
     236 -> 237        0.61302
     236 -> 238       -0.15213
 This state for optimization and/or second-order correction.
 Total Energy, E(TD-HF/TD-DFT) =  -2732.94296301
 Copying the excited state density for this state as the 1-particle RhoCI density.

 The electronic state is 1-A.
 Alpha  occ. eigenvalues --  -19.16756 -19.16500 -19.12486 -19.11908 -19.11267
 Alpha  occ. eigenvalues --  -14.38414 -14.36370 -14.31029 -14.30298 -10.30257
 Alpha  occ. eigenvalues --  -10.30201 -10.27940 -10.24569 -10.24394 -10.24223
 Alpha  occ. eigenvalues --  -10.23779 -10.23756 -10.23368 -10.22904 -10.22735
 Alpha  occ. eigenvalues --  -10.21728 -10.21595 -10.21581 -10.21516 -10.21474
 Alpha  occ. eigenvalues --  -10.21190 -10.21096 -10.21085 -10.20776 -10.20647
 Alpha  occ. eigenvalues --  -10.20525 -10.20450 -10.20374 -10.20286 -10.20245
 Alpha  occ. eigenvalues --  -10.20117 -10.20089 -10.20027 -10.19956 -10.19842
 Alpha  occ. eigenvalues --  -10.19719 -10.19627 -10.19567 -10.19549 -10.19431
 Alpha  occ. eigenvalues --  -10.19374 -10.19354 -10.19241 -10.19126 -10.19039
 Alpha  occ. eigenvalues --  -10.19012 -10.18923 -10.18726 -10.18473 -10.18315
 Alpha  occ. eigenvalues --  -10.18291 -10.18264 -10.18189 -10.18049 -10.17680
 Alpha  occ. eigenvalues --  -10.17659 -10.17098 -10.16649 -10.16093  -1.10124
 Alpha  occ. eigenvalues --   -1.06816  -1.04905  -1.01222  -0.99304  -0.98157
 Alpha  occ. eigenvalues --   -0.97083  -0.95199  -0.90885  -0.85317  -0.83960
 Alpha  occ. eigenvalues --   -0.83031  -0.82336  -0.82235  -0.80915  -0.80481
 Alpha  occ. eigenvalues --   -0.80077  -0.79646  -0.79011  -0.78457  -0.78189
 Alpha  occ. eigenvalues --   -0.77022  -0.76302  -0.75738  -0.75343  -0.74164
 Alpha  occ. eigenvalues --   -0.73783  -0.73405  -0.72460  -0.72347  -0.71377
 Alpha  occ. eigenvalues --   -0.70056  -0.69026  -0.68628  -0.68028  -0.67885
 Alpha  occ. eigenvalues --   -0.67479  -0.67380  -0.65926  -0.65725  -0.65418
 Alpha  occ. eigenvalues --   -0.63853  -0.62845  -0.62762  -0.62234  -0.62158
 Alpha  occ. eigenvalues --   -0.61691  -0.60190  -0.58964  -0.57481  -0.57419
 Alpha  occ. eigenvalues --   -0.56630  -0.56353  -0.56314  -0.56288  -0.55972
 Alpha  occ. eigenvalues --   -0.55325  -0.55127  -0.55058  -0.54091  -0.53327
 Alpha  occ. eigenvalues --   -0.52316  -0.52219  -0.51369  -0.50608  -0.50396
 Alpha  occ. eigenvalues --   -0.49636  -0.49528  -0.49359  -0.49155  -0.48713
 Alpha  occ. eigenvalues --   -0.48351  -0.47622  -0.47193  -0.47033  -0.47001
 Alpha  occ. eigenvalues --   -0.46963  -0.46713  -0.46683  -0.46165  -0.46017
 Alpha  occ. eigenvalues --   -0.45662  -0.45337  -0.45256  -0.45026  -0.44921
 Alpha  occ. eigenvalues --   -0.44640  -0.44141  -0.44109  -0.43948  -0.43776
 Alpha  occ. eigenvalues --   -0.43478  -0.43325  -0.43024  -0.42934  -0.42632
 Alpha  occ. eigenvalues --   -0.42504  -0.42352  -0.42145  -0.41797  -0.41579
 Alpha  occ. eigenvalues --   -0.41367  -0.41329  -0.41139  -0.40606  -0.40332
 Alpha  occ. eigenvalues --   -0.40045  -0.39928  -0.39829  -0.39779  -0.39566
 Alpha  occ. eigenvalues --   -0.39424  -0.39320  -0.38975  -0.38850  -0.38737
 Alpha  occ. eigenvalues --   -0.38440  -0.38386  -0.38319  -0.37797  -0.37751
 Alpha  occ. eigenvalues --   -0.37704  -0.37349  -0.37201  -0.36807  -0.36757
 Alpha  occ. eigenvalues --   -0.36615  -0.36438  -0.36090  -0.35964  -0.35629
 Alpha  occ. eigenvalues --   -0.35409  -0.35143  -0.35088  -0.35004  -0.34765
 Alpha  occ. eigenvalues --   -0.34691  -0.34588  -0.34416  -0.34201  -0.34047
 Alpha  occ. eigenvalues --   -0.33666  -0.33291  -0.33023  -0.33001  -0.32800
 Alpha  occ. eigenvalues --   -0.32491  -0.31936  -0.31720  -0.31693  -0.31245
 Alpha  occ. eigenvalues --   -0.31159  -0.30779  -0.30506  -0.29967  -0.29929
 Alpha  occ. eigenvalues --   -0.29859  -0.28432  -0.28019  -0.27924  -0.27293
 Alpha  occ. eigenvalues --   -0.26966  -0.26912  -0.26760  -0.26284  -0.25047
 Alpha  occ. eigenvalues --   -0.24706  -0.24642  -0.23922  -0.22841  -0.19730
 Alpha  occ. eigenvalues --   -0.18229
 Alpha virt. eigenvalues --   -0.10053  -0.07432  -0.04495  -0.02092  -0.01166
 Alpha virt. eigenvalues --   -0.00207   0.00777   0.01501   0.02153   0.02905
 Alpha virt. eigenvalues --    0.03840   0.03896   0.04480   0.04554   0.04812

 Mulliken charges:
               1
     1  C    0.011522
     2  C   -0.075603
     3  C   -0.094770
     4  C   -0.059845
     5  N   -0.117692
     6  C   -0.121558
     7  C    0.020064
     8  C   -0.145772
     9  C   -0.031574
    10  C   -0.004734
    11  C    0.068102
    12  C    0.032504
    13  C    0.164390
    14  O   -0.267297
    15  O   -0.381415
    16  N   -0.037078
    17  C    0.145633
    18  C   -0.143529
    19  C    0.088617
    20  C    0.043740
    21  C    0.062017
    22  C   -0.050206
    23  C   -0.073537
    24  N   -0.329668
    25  C    0.078695
    26  C   -0.128214
    27  C   -0.103332
    28  C    0.090693
    29  C    0.101988
    30  C    0.110636
    31  C    0.006991
    32  N    0.008637
    33  C    0.054005
    34  C   -0.157931
    35  C   -0.016488
    36  C    0.043500
    37  C    0.142757
    38  C    0.042903
    39  O   -0.123627
    40  C   -0.056618
    41  C    0.184776
    42  O   -0.195600
    43  O   -0.302265
    44  C    0.161735
    45  C    0.399252
    46  C   -0.097108
    47  C   -0.152621
    48  C    0.055242
    49  C    0.175067
    50  C    0.042944
    51  C   -0.002147
    52  C   -0.004647
    53  C   -0.027936
    54  C    0.119744
    55  C    0.016494
    56  C   -0.015616
    57  C   -0.133014
    58  C    0.082188
    59  C    0.181457
    60  C    0.075638
    61  C    0.075683
    62  C   -0.048886
    63  C   -0.055443
    64  C    0.021722
    65  H   -0.036575
    66  H    0.000126
    67  H   -0.023661
    68  H    0.014853
    69  H    0.031445
    70  H    0.013354
    71  H    0.010262
    72  H    0.079601
    73  H    0.069047
    74  H    0.020142
    75  H    0.045268
    76  H    0.024897
    77  H    0.048332
    78  H    0.021674
    79  H    0.046621
    80  H    0.000333
    81  H    0.031492
    82  H    0.027171
    83  H    0.043034
    84  H    0.023208
    85  H   -0.006321
    86  H    0.010478
    87  H   -0.023819
    88  H   -0.011806
    89  H    0.021027
    90  H    0.011493
    91  H   -0.013367
    92  H    0.030425
    93  H    0.055273
    94  H    0.066038
    95  H    0.051747
    96  H    0.050708
    97  H   -0.003775
    98  H   -0.000565
    99  H   -0.006701
   100  H   -0.024279
   101  H   -0.006834
   102  H    0.032121
   103  H    0.015017
   104  H    0.010153
   105  H   -0.040252
   106  H   -0.000565
   107  H   -0.001924
   108  H    0.005592
   109  H   -0.022774
   110  H   -0.036981
   111  H    0.004016
   112  H    0.000217
   113  H    0.005649
   114  H   -0.016815
   115  H   -0.030180
   116  H    0.014623
   117  H   -0.022702
   118  H   -0.015088
   119  H   -0.022840
   120  H   -0.027637
   121  H   -0.018368
   122  H    0.014468
   123  H   -0.003997
   124  H   -0.073932
   125  H    0.011563
   126  H   -0.062226
   127  H   -0.048698
   128  H   -0.018596
   129  H   -0.027594
   130  H    0.000587
   131  H    0.026032
   132  H    0.034542
   133  H    0.011019
   134  H   -0.006948
   135  H    0.024668
   136  H   -0.034871
   137  H    0.099702
   138  H    0.179105
 Sum of Mulliken charges =  -0.00000

 Dipole moment (field-independent basis, Debye):
    X=              2.0317    Y=              3.9950    Z=             -0.5325  Tot=              4.5135
 Quadrupole moment (field-independent basis, Debye-Ang):
   XX=           -352.0008   YY=           -384.3834   ZZ=           -395.4816
   XY=            -17.4753   XZ=             10.8507   YZ=             -0.9139

 Normal termination of Gaussian 16 at Wed Aug 28 23:58:09 2019.
