 Gaussian 16, Revision A.03,
 Gaussian 16:  ES64L-G16RevA.03 25-Dec-2016

 --------------------------
 # td=(NStates=1) B3LYP/SVP
 --------------------------

 --
 TD
 --
 Symbolic Z-matrix:
 Charge =  0 Multiplicity = 1

                         Standard orientation:
 ---------------------------------------------------------------------
 Center     Atomic      Atomic             Coordinates (Angstroms)
 Number     Number       Type             X           Y           Z
 ---------------------------------------------------------------------
      1          6           0       -5.002950   -1.950127    0.548325
      2          6           0       -4.815118    2.835738    1.237365
      3          6           0       -9.474161    3.212955   -0.163563
      4          6           0       -9.800111   -1.533096   -0.876047
      5          7           0       -5.248481    0.462962    0.826213
      6          6           0       -4.438692   -0.764216    0.879814
      7          6           0       -3.016504   -0.472513    1.339651
      8          6           0       -3.220772    0.948853    1.741685
      9          6           0       -4.491388    1.401110    1.261948
     10          6           0       -3.023875    1.303695    3.317969
     11          6           0       -2.087769   -0.699659    0.265211
     12          6           0       -0.515728   -0.555624    0.552755
     13          6           0        0.309043   -0.864458   -0.671318
     14          8           0        0.053102   -1.253289   -1.724997
     15          8           0        1.575047   -0.609168   -0.250648
     16          7           0       -7.040119    2.754433    0.322631
     17          6           0       -5.943117    3.498737    0.907519
     18          6           0       -6.345427    4.827678    0.908122
     19          6           0       -7.519719    4.987675    0.441218
     20          6           0       -8.124594    3.677064    0.134928
     21          6           0       -5.354271    5.787416    1.409248
     22          6           0       -8.248501    6.287061    0.324463
     23          6           0       -9.250038    6.473228   -0.559759
     24          7           0       -9.267955    0.804793   -0.453120
     25          6           0       -9.940940    1.977415   -0.537977
     26          6           0      -11.335907    1.711306   -0.855978
     27          6           0      -11.486890    0.306304   -1.022198
     28          6           0      -10.040308   -0.124092   -0.847455
     29          6           0      -12.339028    2.782458   -1.080256
     30          6           0      -12.555296   -0.475276   -1.632122
     31          6           0      -12.389278   -0.866084   -3.069725
     32          7           0       -7.461966   -1.265445   -0.138660
     33          6           0       -8.525988   -2.102774   -0.454573
     34          6           0       -8.094892   -3.437067   -0.532181
     35          6           0       -6.781135   -3.467682   -0.107911
     36          6           0       -6.424484   -2.103932    0.198389
     37          6           0       -8.986284   -4.633446   -1.033183
     38          6           0       -5.652788   -4.314786    0.116455
     39          8           0       -5.582002   -5.517593   -0.064143
     40          6           0       -4.430910   -3.345243    0.465384
     41          6           0       -3.765709   -3.763278    1.874715
     42          8           0       -4.105912   -3.281136    2.909796
     43          8           0       -2.894932   -4.694267    1.700124
     44          6           0       -2.414520   -5.370876    2.786395
     45          6           0        2.569433   -0.839199   -1.268678
     46          6           0        3.933069   -0.318584   -0.737900
     47          6           0        5.001812    0.244024   -1.358460
     48          6           0        4.992356    0.734900   -2.780999
     49          6           0        6.194253    0.424536   -0.547378
     50          6           0        7.405247   -0.332240   -1.172017
     51          6           0        8.839020   -0.192748   -0.419794
     52          6           0       10.061584   -0.773062   -0.976010
     53          6           0        9.994978   -2.282219   -0.958479
     54          6           0       11.341578   -0.243799   -0.202212
     55          6           0       12.637541   -0.616482   -0.628222
     56          6           0       13.837153   -0.126053    0.176396
     57          6           0       15.330721   -0.291701   -0.491973
     58          6           0       15.671793   -1.759813   -0.607191
     59          6           0       16.314063    0.381807    0.553590
     60          6           0       17.678543    0.672092   -0.125595
     61          6           0       18.585001    1.462070    0.817435
     62          6           0       20.006857    1.685880    0.388061
     63          6           0       20.071914    2.355398   -0.993335
     64          6           0       20.881584    2.289527    1.427293
     65          1           0       -3.795728    3.230855    1.743687
     66          1           0      -10.065259    3.974590   -0.303428
     67          1           0      -10.658075   -2.369648   -0.950419
     68          1           0       -2.671746   -1.099340    2.352069
     69          1           0       -2.377285    1.701223    1.286326
     70          1           0       -2.162421    0.683494    3.560505
     71          1           0       -2.935863    2.290985    3.454013
     72          1           0       -3.846514    0.712808    3.957386
     73          1           0       -2.230068   -1.604340   -0.181788
     74          1           0       -2.378398    0.149572   -0.496652
     75          1           0       -0.159174    0.315192    1.084533
     76          1           0       -0.466597   -1.323355    1.448462
     77          1           0       -4.496845    5.907584    0.884558
     78          1           0       -5.816371    6.857735    1.688129
     79          1           0       -4.747718    5.492273    2.305404
     80          1           0       -7.800466    7.003578    1.004753
     81          1           0       -9.431507    5.767316   -1.340083
     82          1           0       -9.920828    7.512447   -0.513194
     83          1           0      -12.550521    3.397003   -0.022384
     84          1           0      -11.991553    3.580241   -1.774569
     85          1           0      -13.262004    2.482789   -1.668385
     86          1           0      -12.729741   -1.199293   -0.969489
     87          1           0      -13.430257    0.007909   -1.435033
     88          1           0      -12.415372    0.081638   -3.683453
     89          1           0      -11.510545   -1.318172   -3.242464
     90          1           0      -13.119089   -1.511763   -3.361127
     91          1           0       -9.884202   -4.582794   -0.443978
     92          1           0       -9.369369   -4.696043   -2.182851
     93          1           0       -8.572726   -5.619014   -0.798186
     94          1           0       -3.786719   -3.598646   -0.315135
     95          1           0       -1.575348   -6.029508    2.414564
     96          1           0       -2.014743   -4.773223    3.570993
     97          1           0       -3.252796   -6.168127    3.328958
     98          1           0        2.483337   -1.737964   -1.471649
     99          1           0        2.443591   -0.259765   -2.049502
    100          1           0        4.335008   -0.748298    0.199400
    101          1           0        5.242662    1.766730   -2.879409
    102          1           0        5.695023    0.016418   -3.348132
    103          1           0        4.038925    0.594982   -3.335927
    104          1           0        6.514098    1.419605   -0.239554
    105          1           0        6.176243   -0.022068    0.497184
    106          1           0        7.116569   -1.418025   -1.237458
    107          1           0        7.618206   -0.197003   -2.126021
    108          1           0        8.949206    0.938777   -0.447373
    109          1           0        8.571689   -0.665532    0.609004
    110          1           0       10.110137   -0.408037   -1.983110
    111          1           0        8.976429   -2.479001   -1.186697
    112          1           0       10.817747   -2.827829   -1.418296
    113          1           0       10.089876   -2.780782    0.090133
    114          1           0       11.254040    1.001973   -0.110969
    115          1           0       11.188143   -0.671746    0.951420
    116          1           0       12.628425   -1.797151   -1.173346
    117          1           0       12.864761    0.094395   -1.542173
    118          1           0       13.859062    0.843086    0.510626
    119          1           0       13.743062   -0.561869    1.087583
    120          1           0       15.393718    0.208790   -1.373254
    121          1           0       14.836760   -2.297313   -1.274442
    122          1           0       16.637241   -1.990517   -1.062716
    123          1           0       15.671352   -2.326262    0.319076
    124          1           0       15.862420    1.383624    0.796590
    125          1           0       16.520332   -0.340248    1.408872
    126          1           0       18.120740   -0.354727   -0.300032
    127          1           0       17.434762    1.204771   -1.058109
    128          1           0       18.066682    2.500577    0.918581
    129          1           0       18.521022    1.130489    1.897981
    130          1           0       20.329084    0.489790    0.195596
    131          1           0       19.298861    3.161712   -0.942201
    132          1           0       21.255557    3.053977   -1.272073
    133          1           0       20.006104    1.493650   -1.864085
    134          1           0       20.959257    1.746472    2.338589
    135          1           0       21.820538    2.420114    1.183769
    136          1           0       20.490653    3.384875    1.718175
    137          1           0       -7.072195    1.717189    0.026791
    138          1           0       -7.598759   -0.290201   -0.086150
 ---------------------------------------------------------------------

 SCF Done:  E(RB3LYP) =  -2732.96396886     A.U. after   17 cycles

 Excitation energies and oscillator strengths:

 Excited State   1:      Singlet-A      2.0197 eV  613.86 nm  f=0.2410  <S**2>=0.000
     235 -> 237       -0.10174
     235 -> 238        0.20917
     236 -> 237        0.65941
     236 -> 238        0.11958
 This state for optimization and/or second-order correction.
 Total Energy, E(TD-HF/TD-DFT) =  -2732.88974484
 Copying the excited state density for this state as the 1-particle RhoCI density.

 The electronic state is 1-A.
 Alpha  occ. eigenvalues --  -19.19575 -19.16385 -19.13470 -19.12488 -19.11622
 Alpha  occ. eigenvalues --  -14.37037 -14.36180 -14.32392 -14.29389 -10.31912
 Alpha  occ. eigenvalues --  -10.31333 -10.27259 -10.26150 -10.24672 -10.23814
 Alpha  occ. eigenvalues --  -10.23782 -10.22756 -10.22671 -10.22626 -10.22302
 Alpha  occ. eigenvalues --  -10.21540 -10.21237 -10.21111 -10.21074 -10.21061
 Alpha  occ. eigenvalues --  -10.21060 -10.21005 -10.20996 -10.20887 -10.20862
 Alpha  occ. eigenvalues --  -10.20796 -10.20649 -10.20449 -10.20443 -10.20338
 Alpha  occ. eigenvalues --  -10.20309 -10.20067 -10.20057 -10.20035 -10.19981
 Alpha  occ. eigenvalues --  -10.19967 -10.19778 -10.19776 -10.19580 -10.19578
 Alpha  occ. eigenvalues --  -10.19457 -10.19228 -10.18958 -10.18882 -10.18801
 Alpha  occ. eigenvalues --  -10.18790 -10.18693 -10.18624 -10.18527 -10.18356
 Alpha  occ. eigenvalues --  -10.18336 -10.18180 -10.18131 -10.18087 -10.17902
 Alpha  occ. eigenvalues --  -10.17117 -10.17116 -10.16638 -10.16604  -1.13502
 Alpha  occ. eigenvalues --   -1.11123  -1.02662  -1.02478  -1.01927  -0.98011
 Alpha  occ. eigenvalues --   -0.95982  -0.95220  -0.94755  -0.84420  -0.83224
 Alpha  occ. eigenvalues --   -0.82855  -0.82332  -0.82132  -0.81515  -0.80730
 Alpha  occ. eigenvalues --   -0.80276  -0.79929  -0.79884  -0.78450  -0.78024
 Alpha  occ. eigenvalues --   -0.77108  -0.76691  -0.76153  -0.75093  -0.74454
 Alpha  occ. eigenvalues --   -0.73766  -0.73659  -0.72953  -0.72269  -0.70996
 Alpha  occ. eigenvalues --   -0.70275  -0.69462  -0.68814  -0.68331  -0.67811
 Alpha  occ. eigenvalues --   -0.67457  -0.67172  -0.66322  -0.66152  -0.65319
 Alpha  occ. eigenvalues --   -0.64517  -0.64132  -0.63446  -0.62614  -0.61672
 Alpha  occ. eigenvalues --   -0.61114  -0.59532  -0.59119  -0.57964  -0.57406
 Alpha  occ. eigenvalues --   -0.56755  -0.56419  -0.56392  -0.55910  -0.55523
 Alpha  occ. eigenvalues --   -0.55428  -0.54459  -0.54012  -0.53625  -0.53350
 Alpha  occ. eigenvalues --   -0.52744  -0.52167  -0.52152  -0.51637  -0.51461
 Alpha  occ. eigenvalues --   -0.50799  -0.49871  -0.49579  -0.49056  -0.48697
 Alpha  occ. eigenvalues --   -0.48312  -0.48089  -0.47923  -0.47854  -0.47529
 Alpha  occ. eigenvalues --   -0.47274  -0.46687  -0.46157  -0.45947  -0.45593
 Alpha  occ. eigenvalues --   -0.45434  -0.45350  -0.45231  -0.44928  -0.44596
 Alpha  occ. eigenvalues --   -0.44529  -0.44397  -0.44214  -0.44089  -0.43982
 Alpha  occ. eigenvalues --   -0.43902  -0.43637  -0.43252  -0.43178  -0.43093
 Alpha  occ. eigenvalues --   -0.42761  -0.42489  -0.41973  -0.41841  -0.41695
 Alpha  occ. eigenvalues --   -0.41459  -0.41146  -0.41113  -0.40894  -0.40394
 Alpha  occ. eigenvalues --   -0.40269  -0.40063  -0.39848  -0.39427  -0.39255
 Alpha  occ. eigenvalues --   -0.39072  -0.39036  -0.38834  -0.38705  -0.38500
 Alpha  occ. eigenvalues --   -0.38348  -0.38286  -0.38125  -0.37910  -0.37875
 Alpha  occ. eigenvalues --   -0.37674  -0.37473  -0.37092  -0.36846  -0.36570
 Alpha  occ. eigenvalues --   -0.36495  -0.36271  -0.36048  -0.36004  -0.35856
 Alpha  occ. eigenvalues --   -0.35762  -0.35688  -0.35651  -0.35316  -0.34596
 Alpha  occ. eigenvalues --   -0.34573  -0.34479  -0.34409  -0.33894  -0.33541
 Alpha  occ. eigenvalues --   -0.33389  -0.33196  -0.33107  -0.33050  -0.32423
 Alpha  occ. eigenvalues --   -0.32313  -0.32165  -0.31932  -0.31688  -0.31672
 Alpha  occ. eigenvalues --   -0.31128  -0.30825  -0.30797  -0.30602  -0.30035
 Alpha  occ. eigenvalues --   -0.29362  -0.29220  -0.28649  -0.28431  -0.27887
 Alpha  occ. eigenvalues --   -0.27561  -0.27292  -0.26393  -0.26305  -0.25802
 Alpha  occ. eigenvalues --   -0.25130  -0.24781  -0.24629  -0.22187  -0.20686
 Alpha  occ. eigenvalues --   -0.18094
 Alpha virt. eigenvalues --   -0.10200  -0.07309  -0.04402  -0.01758  -0.00528
 Alpha virt. eigenvalues --   -0.00120   0.00261   0.00631   0.02040   0.03264
 Alpha virt. eigenvalues --    0.03451   0.03887   0.04059   0.04368   0.04731

 Mulliken charges:
               1
     1  C    0.031428
     2  C   -0.103822
     3  C    0.024496
     4  C   -0.097102
     5  N   -0.175837
     6  C   -0.071216
     7  C    0.026424
     8  C   -0.153272
     9  C   -0.038847
    10  C    0.094115
    11  C    0.068386
    12  C   -0.026530
    13  C    0.189823
    14  O   -0.162505
    15  O   -0.355108
    16  N   -0.218750
    17  C    0.204917
    18  C   -0.035490
    19  C   -0.008070
    20  C    0.051683
    21  C    0.112997
    22  C   -0.004601
    23  C   -0.041723
    24  N   -0.168412
    25  C    0.098436
    26  C   -0.110389
    27  C   -0.186940
    28  C    0.031004
    29  C    0.029216
    30  C    0.213392
    31  C    0.140162
    32  N   -0.014748
    33  C    0.022890
    34  C   -0.142507
    35  C    0.031806
    36  C    0.072898
    37  C    0.066168
    38  C    0.040257
    39  O   -0.177606
    40  C   -0.041518
    41  C    0.160841
    42  O   -0.202989
    43  O   -0.203343
    44  C    0.121116
    45  C    0.503675
    46  C   -0.123384
    47  C   -0.145805
    48  C    0.078063
    49  C    0.104348
    50  C   -0.005317
    51  C   -0.031659
    52  C    0.009647
    53  C    0.048728
    54  C   -0.068389
    55  C    0.020498
    56  C    0.125554
    57  C   -0.025303
    58  C    0.019390
    59  C   -0.025299
    60  C    0.031326
    61  C   -0.001911
    62  C   -0.110091
    63  C   -0.074358
    64  C    0.133957
    65  H   -0.003744
    66  H   -0.131034
    67  H    0.038299
    68  H    0.035580
    69  H    0.016934
    70  H    0.007283
    71  H   -0.004560
    72  H    0.040299
    73  H   -0.010709
    74  H    0.019449
    75  H    0.025604
    76  H    0.038343
    77  H   -0.014997
    78  H    0.029670
    79  H    0.005580
    80  H   -0.009876
    81  H    0.037937
    82  H    0.054710
    83  H    0.041292
    84  H    0.014251
    85  H    0.018764
    86  H   -0.059789
    87  H   -0.059909
    88  H    0.009426
    89  H   -0.028251
    90  H   -0.017977
    91  H    0.011714
    92  H    0.047908
    93  H    0.027922
    94  H    0.029520
    95  H    0.037828
    96  H    0.025407
    97  H    0.051969
    98  H   -0.065027
    99  H   -0.053626
   100  H   -0.011518
   101  H    0.021935
   102  H    0.037002
   103  H    0.007521
   104  H   -0.000922
   105  H   -0.002349
   106  H   -0.004122
   107  H   -0.049331
   108  H    0.002607
   109  H    0.007074
   110  H   -0.023972
   111  H   -0.008999
   112  H    0.013469
   113  H   -0.004227
   114  H    0.009880
   115  H   -0.001889
   116  H    0.033924
   117  H   -0.008948
   118  H   -0.050076
   119  H   -0.055334
   120  H   -0.037734
   121  H    0.012083
   122  H    0.005773
   123  H    0.000805
   124  H    0.001316
   125  H    0.011964
   126  H   -0.000577
   127  H    0.003382
   128  H   -0.016486
   129  H   -0.001714
   130  H   -0.001187
   131  H    0.027723
   132  H    0.017786
   133  H    0.057040
   134  H   -0.009213
   135  H   -0.039372
   136  H    0.002430
   137  H    0.182834
   138  H    0.110433
 Sum of Mulliken charges =  -0.00000

 Dipole moment (field-independent basis, Debye):
    X=              3.2805    Y=              4.0159    Z=              0.3235  Tot=              5.1956
 Quadrupole moment (field-independent basis, Debye-Ang):
   XX=           -368.4676   YY=           -382.2993   ZZ=           -394.5569
   XY=            -23.3667   XZ=             12.4313   YZ=             -1.9469

 Normal termination of Gaussian 16 at Mon Aug 12 21:50:52 2019.
