 Gaussian 16, Revision A.03,
 Gaussian 16:  ES64L-G16RevA.03 25-Dec-2016

 --------------------------
 # td=(NStates=1) B3LYP/SVP
 --------------------------

 --
 TD
 --
 Symbolic Z-matrix:
 Charge =  0 Multiplicity = 1

                         Standard orientation:
 ---------------------------------------------------------------------
 Center     Atomic      Atomic             Coordinates (Angstroms)
 Number     Number       Type             X           Y           Z
 ---------------------------------------------------------------------
      1          6           0       -5.075970   -2.064900    0.393484
      2          6           0       -4.711173    2.717128    1.481176
      3          6           0       -9.248390    3.469768   -0.267820
      4          6           0       -9.691581   -1.304316   -0.997220
      5          7           0       -5.111738    0.421723    0.791432
      6          6           0       -4.475350   -0.808463    0.767580
      7          6           0       -3.003775   -0.651656    1.322080
      8          6           0       -3.097202    0.823813    1.872176
      9          6           0       -4.393621    1.298249    1.376242
     10          6           0       -3.156042    0.834246    3.413212
     11          6           0       -1.949587   -0.735267    0.198672
     12          6           0       -0.584832   -0.767030    0.597294
     13          6           0        0.380372   -0.990091   -0.493418
     14          8           0        0.061850   -1.448232   -1.564170
     15          8           0        1.672135   -0.779903   -0.179373
     16          7           0       -6.949359    2.803254    0.354111
     17          6           0       -5.901883    3.396182    1.028329
     18          6           0       -6.171260    4.799424    1.235185
     19          6           0       -7.421217    5.008301    0.653709
     20          6           0       -7.937993    3.744076    0.112502
     21          6           0       -5.311724    5.798207    1.774382
     22          6           0       -8.109751    6.255578    0.504769
     23          6           0       -9.097962    6.677956   -0.322541
     24          7           0       -9.167767    0.990938   -0.565280
     25          6           0       -9.852456    2.176995   -0.612247
     26          6           0      -11.246542    1.905379   -1.062730
     27          6           0      -11.375782    0.562609   -1.250675
     28          6           0      -10.017373    0.060519   -0.964545
     29          6           0      -12.219000    3.062759   -1.228202
     30          6           0      -12.461692   -0.249414   -1.701785
     31          6           0      -12.486928   -0.511882   -3.343034
     32          7           0       -7.427284   -1.264563   -0.256570
     33          6           0       -8.601721   -1.993027   -0.668047
     34          6           0       -8.181097   -3.304175   -0.749434
     35          6           0       -6.909707   -3.444230   -0.347541
     36          6           0       -6.379862   -2.120479   -0.056257
     37          6           0       -9.097257   -4.436255   -1.197022
     38          6           0       -5.724038   -4.320450   -0.095465
     39          8           0       -5.624333   -5.546054   -0.158319
     40          6           0       -4.445791   -3.461922    0.447250
     41          6           0       -4.143764   -3.923693    1.912656
     42          8           0       -4.472193   -3.428185    2.964616
     43          8           0       -3.319348   -4.962185    1.778078
     44          6           0       -2.947415   -5.601958    3.093084
     45          6           0        2.732495   -1.061718   -1.119649
     46          6           0        4.036098   -0.573188   -0.563675
     47          6           0        5.047796    0.019209   -1.277811
     48          6           0        4.813407    0.602765   -2.582513
     49          6           0        6.320371    0.430379   -0.542071
     50          6           0        7.482023   -0.522791   -0.993906
     51          6           0        8.785199   -0.152640   -0.362796
     52          6           0       10.117369   -0.761302   -0.918411
     53          6           0       10.035814   -2.324180   -0.880453
     54          6           0       11.233721   -0.300217   -0.085016
     55          6           0       12.700465   -0.638355   -0.677064
     56          6           0       13.765036   -0.046618    0.158920
     57          6           0       15.232526   -0.263329   -0.387994
     58          6           0       15.601494   -1.771643   -0.287087
     59          6           0       16.252998    0.683062    0.330106
     60          6           0       17.702018    0.626672   -0.087124
     61          6           0       18.584595    1.709091    0.636662
     62          6           0       20.052903    1.697263    0.271795
     63          6           0       20.244839    2.236932   -1.249987
     64          6           0       20.912096    2.461149    1.181103
     65          1           0       -3.961050    3.272402    1.915696
     66          1           0       -9.920797    4.307314   -0.519099
     67          1           0      -10.574206   -1.978075   -1.297211
     68          1           0       -3.081338   -1.477181    2.199867
     69          1           0       -2.422283    1.415315    1.537679
     70          1           0       -2.241105    0.378209    3.938326
     71          1           0       -3.306879    1.861864    3.685473
     72          1           0       -4.041812    0.165026    3.666406
     73          1           0       -2.149569   -1.611763   -0.504348
     74          1           0       -2.278055    0.265111   -0.639929
     75          1           0       -0.329550    0.300072    1.096494
     76          1           0       -0.371766   -1.492075    1.444098
     77          1           0       -4.315446    5.737939    1.158914
     78          1           0       -5.737967    6.860305    1.657749
     79          1           0       -5.142212    5.730800    2.849479
     80          1           0       -7.679256    7.027170    1.010978
     81          1           0       -9.529120    6.152874   -1.095798
     82          1           0       -9.555776    7.713976   -0.151557
     83          1           0      -12.297656    3.676226   -0.403804
     84          1           0      -11.833450    3.791277   -2.157932
     85          1           0      -13.151659    2.691125   -1.497892
     86          1           0      -12.421777   -1.280169   -1.182966
     87          1           0      -13.429945    0.160740   -1.266685
     88          1           0      -12.214801    0.614987   -3.760850
     89          1           0      -11.490621   -1.154014   -3.629182
     90          1           0      -13.478858   -0.920567   -3.634874
     91          1           0       -9.935433   -4.383822   -0.419095
     92          1           0       -9.601493   -4.354378   -2.213468
     93          1           0       -8.614503   -5.334856   -1.126715
     94          1           0       -3.725264   -3.561238   -0.449141
     95          1           0       -2.421956   -6.690004    2.821361
     96          1           0       -2.234082   -4.752083    3.399633
     97          1           0       -3.790630   -5.684476    3.809276
     98          1           0        2.950134   -2.242603   -1.077202
     99          1           0        2.688084   -0.602605   -2.137063
    100          1           0        4.196479   -0.860000    0.576845
    101          1           0        5.337674    1.660069   -2.716833
    102          1           0        5.613362    0.262725   -3.369452
    103          1           0        3.811562    0.626318   -3.041904
    104          1           0        6.285037    1.524080   -0.471499
    105          1           0        5.966244    0.202826    0.552483
    106          1           0        7.241402   -1.655686   -0.798480
    107          1           0        7.517445   -0.476757   -2.364752
    108          1           0        9.000583    0.902640   -0.499636
    109          1           0        8.732558   -0.182750    0.892893
    110          1           0       10.275454   -0.507436   -2.109984
    111          1           0        9.177386   -2.566075   -1.611338
    112          1           0       11.041674   -3.011851   -1.130222
    113          1           0        9.849937   -2.800718    0.103583
    114          1           0       11.242299    0.838414    0.092669
    115          1           0       11.270471   -0.627490    0.756935
    116          1           0       12.794253   -1.706478   -0.820523
    117          1           0       12.812315   -0.262953   -1.616747
    118          1           0       13.397024    1.035695    0.156844
    119          1           0       13.738422   -0.299777    1.232755
    120          1           0       15.150900    0.156755   -1.581340
    121          1           0       14.828052   -2.237073   -0.907144
    122          1           0       16.505708   -2.224652   -0.767699
    123          1           0       15.635326   -2.031303    0.935136
    124          1           0       15.806642    1.670103    0.255184
    125          1           0       15.975799    0.636129    1.414678
    126          1           0       18.041014   -0.586479    0.006170
    127          1           0       17.650401    0.949272   -1.093510
    128          1           0       18.363485    2.778706    0.416137
    129          1           0       18.439878    1.472631    1.670119
    130          1           0       20.642282    0.721447    0.241385
    131          1           0       19.854871    3.432559   -1.229984
    132          1           0       21.253700    2.195843   -1.597952
    133          1           0       19.728157    1.607813   -2.049999
    134          1           0       20.746466    2.118383    2.209051
    135          1           0       22.001433    2.545587    0.851394
    136          1           0       20.684849    3.664457    1.190104
    137          1           0       -7.330831    1.786353    0.059840
    138          1           0       -7.212833   -0.412272   -0.187301
 ---------------------------------------------------------------------

 SCF Done:  E(RB3LYP) =  -2733.02070044     A.U. after   18 cycles

 Excitation energies and oscillator strengths:

 Excited State   1:      Singlet-A      2.0555 eV  603.18 nm  f=0.1301  <S**2>=0.000
     235 -> 237        0.10430
     235 -> 238       -0.31979
     236 -> 237        0.60581
     236 -> 238        0.12641
 This state for optimization and/or second-order correction.
 Total Energy, E(TD-HF/TD-DFT) =  -2732.94516219
 Copying the excited state density for this state as the 1-particle RhoCI density.

 The electronic state is 1-A.
 Alpha  occ. eigenvalues --  -19.18114 -19.17789 -19.13328 -19.12078 -19.11849
 Alpha  occ. eigenvalues --  -14.36855 -14.35380 -14.31781 -14.29900 -10.32480
 Alpha  occ. eigenvalues --  -10.31375 -10.28434 -10.26884 -10.26147 -10.24655
 Alpha  occ. eigenvalues --  -10.23640 -10.23046 -10.22960 -10.22831 -10.22664
 Alpha  occ. eigenvalues --  -10.22647 -10.22334 -10.21549 -10.21483 -10.21450
 Alpha  occ. eigenvalues --  -10.21447 -10.21266 -10.21012 -10.20826 -10.20791
 Alpha  occ. eigenvalues --  -10.20763 -10.20639 -10.20482 -10.20415 -10.20336
 Alpha  occ. eigenvalues --  -10.20332 -10.20204 -10.20203 -10.20189 -10.20102
 Alpha  occ. eigenvalues --  -10.20038 -10.19815 -10.19582 -10.19572 -10.19500
 Alpha  occ. eigenvalues --  -10.19451 -10.19359 -10.19323 -10.19299 -10.19273
 Alpha  occ. eigenvalues --  -10.19268 -10.19203 -10.19053 -10.19031 -10.18933
 Alpha  occ. eigenvalues --  -10.18690 -10.18662 -10.18413 -10.18301 -10.18297
 Alpha  occ. eigenvalues --  -10.17952 -10.17571 -10.16817 -10.16777  -1.09573
 Alpha  occ. eigenvalues --   -1.09406  -1.01557  -1.00821  -1.00385  -0.98173
 Alpha  occ. eigenvalues --   -0.96957  -0.95346  -0.93771  -0.84199  -0.82866
 Alpha  occ. eigenvalues --   -0.82413  -0.82182  -0.82084  -0.81738  -0.80940
 Alpha  occ. eigenvalues --   -0.80094  -0.79503  -0.79315  -0.79030  -0.78247
 Alpha  occ. eigenvalues --   -0.76873  -0.76027  -0.75309  -0.74892  -0.73866
 Alpha  occ. eigenvalues --   -0.73262  -0.72887  -0.71966  -0.71410  -0.70690
 Alpha  occ. eigenvalues --   -0.70300  -0.68495  -0.68292  -0.67921  -0.67584
 Alpha  occ. eigenvalues --   -0.66880  -0.66715  -0.66184  -0.65887  -0.65033
 Alpha  occ. eigenvalues --   -0.64251  -0.62624  -0.62159  -0.61493  -0.61235
 Alpha  occ. eigenvalues --   -0.60906  -0.59391  -0.58581  -0.57853  -0.57618
 Alpha  occ. eigenvalues --   -0.57312  -0.56389  -0.55935  -0.55285  -0.54986
 Alpha  occ. eigenvalues --   -0.54933  -0.54339  -0.53486  -0.53433  -0.52988
 Alpha  occ. eigenvalues --   -0.52578  -0.51908  -0.51755  -0.51161  -0.50666
 Alpha  occ. eigenvalues --   -0.49746  -0.49460  -0.49090  -0.48873  -0.48166
 Alpha  occ. eigenvalues --   -0.47634  -0.47566  -0.47456  -0.47232  -0.47191
 Alpha  occ. eigenvalues --   -0.46728  -0.46262  -0.46041  -0.45817  -0.45467
 Alpha  occ. eigenvalues --   -0.45394  -0.45139  -0.44922  -0.44862  -0.44439
 Alpha  occ. eigenvalues --   -0.44234  -0.43922  -0.43636  -0.43597  -0.43476
 Alpha  occ. eigenvalues --   -0.43198  -0.43025  -0.42541  -0.42420  -0.42247
 Alpha  occ. eigenvalues --   -0.42053  -0.41451  -0.41436  -0.41326  -0.41266
 Alpha  occ. eigenvalues --   -0.41077  -0.40830  -0.40690  -0.40647  -0.40476
 Alpha  occ. eigenvalues --   -0.40144  -0.39895  -0.39810  -0.39680  -0.39507
 Alpha  occ. eigenvalues --   -0.39301  -0.39038  -0.38927  -0.38663  -0.38304
 Alpha  occ. eigenvalues --   -0.38168  -0.37923  -0.37524  -0.37189  -0.37013
 Alpha  occ. eigenvalues --   -0.37012  -0.36969  -0.36858  -0.36614  -0.36438
 Alpha  occ. eigenvalues --   -0.36372  -0.36304  -0.35975  -0.35947  -0.35852
 Alpha  occ. eigenvalues --   -0.35824  -0.35525  -0.35250  -0.34855  -0.34821
 Alpha  occ. eigenvalues --   -0.34751  -0.34589  -0.34331  -0.34058  -0.33906
 Alpha  occ. eigenvalues --   -0.33472  -0.33001  -0.32858  -0.32579  -0.32370
 Alpha  occ. eigenvalues --   -0.31961  -0.31887  -0.31652  -0.31380  -0.31126
 Alpha  occ. eigenvalues --   -0.30928  -0.30731  -0.30340  -0.30126  -0.30029
 Alpha  occ. eigenvalues --   -0.29748  -0.29552  -0.29076  -0.29043  -0.28055
 Alpha  occ. eigenvalues --   -0.27669  -0.26791  -0.26686  -0.26432  -0.25623
 Alpha  occ. eigenvalues --   -0.24602  -0.23731  -0.23267  -0.22807  -0.19794
 Alpha  occ. eigenvalues --   -0.18574
 Alpha virt. eigenvalues --   -0.09727  -0.08089  -0.04555  -0.01795  -0.00617
 Alpha virt. eigenvalues --   -0.00318  -0.00038   0.01089   0.02339   0.02425
 Alpha virt. eigenvalues --    0.03548   0.03833   0.04028   0.04208   0.04719

 Mulliken charges:
               1
     1  C   -0.048245
     2  C   -0.047735
     3  C   -0.038280
     4  C   -0.097618
     5  N   -0.106453
     6  C   -0.087770
     7  C   -0.061064
     8  C    0.074533
     9  C   -0.085898
    10  C    0.046748
    11  C   -0.037505
    12  C    0.051063
    13  C    0.176642
    14  O   -0.231632
    15  O   -0.313377
    16  N   -0.129429
    17  C    0.147200
    18  C   -0.103444
    19  C    0.067777
    20  C    0.061602
    21  C    0.059759
    22  C   -0.016974
    23  C   -0.032915
    24  N   -0.203533
    25  C    0.004291
    26  C   -0.131440
    27  C   -0.070411
    28  C    0.032653
    29  C    0.130515
    30  C   -0.002950
    31  C   -0.063851
    32  N    0.018619
    33  C    0.132605
    34  C   -0.184099
    35  C    0.080565
    36  C    0.012133
    37  C    0.122091
    38  C    0.021003
    39  O   -0.184506
    40  C   -0.015756
    41  C    0.251483
    42  O   -0.226080
    43  O   -0.302494
    44  C    0.117143
    45  C    0.269252
    46  C   -0.165087
    47  C   -0.134519
    48  C    0.038465
    49  C    0.065522
    50  C   -0.049178
    51  C    0.033777
    52  C   -0.059297
    53  C   -0.060089
    54  C    0.132272
    55  C    0.095703
    56  C   -0.013705
    57  C   -0.121668
    58  C    0.004111
    59  C    0.035296
    60  C    0.073227
    61  C    0.063747
    62  C   -0.089463
    63  C   -0.046278
    64  C    0.003145
    65  H   -0.068686
    66  H   -0.027596
    67  H   -0.011131
    68  H    0.050067
    69  H   -0.076510
    70  H    0.024061
    71  H    0.001049
    72  H    0.037822
    73  H    0.033450
    74  H    0.033771
    75  H    0.039199
    76  H    0.048121
    77  H    0.048650
    78  H    0.025562
    79  H    0.029711
    80  H   -0.056641
    81  H    0.003471
    82  H    0.033491
    83  H    0.008730
    84  H    0.029809
    85  H   -0.014447
    86  H    0.011212
    87  H    0.012362
    88  H    0.041936
    89  H    0.044296
    90  H    0.045214
    91  H    0.032409
    92  H    0.037071
    93  H    0.004563
    94  H    0.088061
    95  H    0.079940
    96  H    0.050384
    97  H    0.066094
    98  H    0.047030
    99  H    0.029492
   100  H    0.018529
   101  H    0.010266
   102  H    0.008892
   103  H    0.035985
   104  H    0.019461
   105  H   -0.000520
   106  H    0.040698
   107  H    0.019770
   108  H   -0.008483
   109  H    0.017844
   110  H    0.018013
   111  H    0.029258
   112  H    0.028323
   113  H    0.009175
   114  H   -0.016284
   115  H   -0.105583
   116  H   -0.015574
   117  H   -0.045064
   118  H   -0.006822
   119  H   -0.010372
   120  H    0.002907
   121  H    0.004923
   122  H    0.021972
   123  H    0.031652
   124  H   -0.036108
   125  H   -0.032217
   126  H    0.031327
   127  H   -0.015382
   128  H    0.003419
   129  H   -0.011963
   130  H    0.001316
   131  H    0.022003
   132  H    0.001310
   133  H    0.024495
   134  H    0.013720
   135  H    0.016428
   136  H   -0.007144
   137  H    0.215721
   138  H    0.021893
 Sum of Mulliken charges =  -0.00000

 Dipole moment (field-independent basis, Debye):
    X=              2.6097    Y=              3.2696    Z=              1.4297  Tot=              4.4210
 Quadrupole moment (field-independent basis, Debye-Ang):
   XX=           -366.7398   YY=           -383.7451   ZZ=           -393.8619
   XY=            -20.5595   XZ=              7.2929   YZ=             -4.8752

 Normal termination of Gaussian 16 at Thu Aug 15 10:33:04 2019.
