 Gaussian 16, Revision A.03,
 Gaussian 16:  ES64L-G16RevA.03 25-Dec-2016

 --------------------------
 # td=(NStates=1) B3LYP/SVP
 --------------------------

 --
 TD
 --
 Symbolic Z-matrix:
 Charge =  0 Multiplicity = 1

                         Standard orientation:
 ---------------------------------------------------------------------
 Center     Atomic      Atomic             Coordinates (Angstroms)
 Number     Number       Type             X           Y           Z
 ---------------------------------------------------------------------
      1          6           0       -5.118978   -1.876316    0.417260
      2          6           0       -4.715655    2.825001    1.272667
      3          6           0       -9.212664    3.420598   -0.208975
      4          6           0       -9.940904   -1.334186   -0.958156
      5          7           0       -5.199780    0.468063    0.719225
      6          6           0       -4.516349   -0.752257    0.834243
      7          6           0       -3.041008   -0.553480    1.243259
      8          6           0       -3.103265    0.903209    1.788427
      9          6           0       -4.352188    1.423403    1.221179
     10          6           0       -2.988500    0.841696    3.397738
     11          6           0       -2.044005   -0.781228   -0.000452
     12          6           0       -0.617528   -0.688694    0.542492
     13          6           0        0.428891   -1.126059   -0.611529
     14          8           0        0.089128   -1.581033   -1.663965
     15          8           0        1.654755   -0.864288   -0.188115
     16          7           0       -7.044103    2.774417    0.445030
     17          6           0       -5.896494    3.439768    0.989685
     18          6           0       -6.213048    4.878664    1.095480
     19          6           0       -7.391497    4.995795    0.511251
     20          6           0       -8.050359    3.742347    0.161628
     21          6           0       -5.261665    5.833754    1.486682
     22          6           0       -8.088876    6.332585    0.379266
     23          6           0       -9.099522    6.787253   -0.479350
     24          7           0       -9.223026    0.947050   -0.455889
     25          6           0       -9.868957    2.178418   -0.548146
     26          6           0      -11.310175    1.942893   -1.018848
     27          6           0      -11.406996    0.591821   -1.198532
     28          6           0      -10.196353    0.046353   -0.848993
     29          6           0      -12.240571    3.015698   -1.261268
     30          6           0      -12.650955   -0.094792   -1.714356
     31          6           0      -12.584452   -0.540582   -3.189807
     32          7           0       -7.538248   -1.186630   -0.191041
     33          6           0       -8.668696   -2.017058   -0.582855
     34          6           0       -8.250862   -3.479321   -0.553226
     35          6           0       -6.909426   -3.412504   -0.158103
     36          6           0       -6.499760   -2.102990   -0.019612
     37          6           0       -9.231994   -4.595291   -0.876409
     38          6           0       -5.721284   -4.307944   -0.037557
     39          8           0       -5.684096   -5.509564    0.085647
     40          6           0       -4.548143   -3.359874    0.389116
     41          6           0       -3.950133   -3.685192    1.716988
     42          8           0       -4.141628   -3.223983    2.793625
     43          8           0       -3.397004   -4.982943    1.556955
     44          6           0       -2.617458   -5.444024    2.689724
     45          6           0        2.684809   -1.332940   -1.132652
     46          6           0        4.020401   -0.962633   -0.508931
     47          6           0        4.997663   -0.210161   -1.088028
     48          6           0        4.911622    0.334413   -2.404580
     49          6           0        6.296605    0.012270   -0.248372
     50          6           0        7.537036   -0.599801   -0.920197
     51          6           0        8.774154   -0.318637   -0.080950
     52          6           0       10.138703   -0.785754   -0.677120
     53          6           0       10.014699   -2.353712   -0.717423
     54          6           0       11.294693   -0.349623    0.159427
     55          6           0       12.745471   -0.601398   -0.580469
     56          6           0       13.934096   -0.092504    0.274338
     57          6           0       15.277679   -0.143830   -0.390018
     58          6           0       15.852771   -1.556017   -0.766538
     59          6           0       16.256408    0.728542    0.392855
     60          6           0       17.706155    0.893522   -0.149112
     61          6           0       18.618181    1.770090    0.592248
     62          6           0       20.112014    1.803436    0.071628
     63          6           0       20.185559    2.291968   -1.344660
     64          6           0       20.981715    2.604821    1.036584
     65          1           0       -3.813980    3.428323    1.828409
     66          1           0       -9.882933    4.139669   -0.408166
     67          1           0      -10.725096   -2.149979   -1.300332
     68          1           0       -2.908326   -1.366518    2.192357
     69          1           0       -2.159736    1.384211    1.315312
     70          1           0       -2.051144    0.466906    3.718523
     71          1           0       -3.117306    1.844534    3.755246
     72          1           0       -3.960343    0.194472    3.759231
     73          1           0       -2.206136   -1.841246   -0.331053
     74          1           0       -2.242095   -0.086137   -0.840605
     75          1           0       -0.337864    0.351494    0.823146
     76          1           0       -0.363532   -1.289990    1.434168
     77          1           0       -4.344351    6.108194    0.597781
     78          1           0       -5.551041    7.054301    1.543459
     79          1           0       -4.600889    5.525875    2.480011
     80          1           0       -7.561773    6.885622    1.086493
     81          1           0       -9.514669    6.205049   -1.204716
     82          1           0       -9.620516    7.789492   -0.132851
     83          1           0      -12.471266    3.608951   -0.430513
     84          1           0      -12.130282    3.641609   -1.962646
     85          1           0      -13.242688    2.650545   -1.249410
     86          1           0      -12.720768   -0.968255   -1.213051
     87          1           0      -13.499628    0.453811   -1.748201
     88          1           0      -12.121379    0.429229   -3.790857
     89          1           0      -11.707668   -1.474980   -3.270793
     90          1           0      -13.586754   -0.807271   -3.657349
     91          1           0      -10.325410   -4.189277   -0.425532
     92          1           0       -9.143197   -4.489383   -2.159649
     93          1           0       -9.102340   -5.654951   -0.422128
     94          1           0       -3.651200   -3.427998   -0.416594
     95          1           0       -1.794565   -6.058720    2.237296
     96          1           0       -2.287666   -4.452977    3.278319
     97          1           0       -3.137404   -6.293803    3.449899
     98          1           0        2.545135   -2.447491   -1.236925
     99          1           0        2.476306   -0.988098   -2.099488
    100          1           0        4.205599   -1.279115    0.385350
    101          1           0        4.709011    1.492846   -2.043533
    102          1           0        5.876703    0.087678   -3.193692
    103          1           0        3.994424    0.376509   -2.853037
    104          1           0        6.338904    1.282804   -0.065283
    105          1           0        5.954141   -0.673417    0.711548
    106          1           0        7.191793   -1.747113   -0.777618
    107          1           0        7.552405   -0.271100   -1.885756
    108          1           0        8.926207    0.718663    0.044621
    109          1           0        8.598555   -0.605003    0.983153
    110          1           0       10.302451   -0.657072   -1.848257
    111          1           0        9.270781   -2.656059   -1.311764
    112          1           0       10.895783   -2.691025   -1.153415
    113          1           0       10.022457   -2.864294    0.314753
    114          1           0       11.400718    0.680864    0.618922
    115          1           0       11.485896   -1.097644    0.971246
    116          1           0       12.545010   -1.576792   -0.940955
    117          1           0       12.754657   -0.133165   -1.518142
    118          1           0       13.609513    1.011525    0.583329
    119          1           0       13.919498   -0.777246    1.192024
    120          1           0       15.404781    0.403105   -1.356943
    121          1           0       14.867886   -2.300942   -1.162576
    122          1           0       16.756098   -1.451879   -1.395760
    123          1           0       16.010290   -2.074735    0.301908
    124          1           0       15.639375    1.698183    0.474145
    125          1           0       16.166773    0.275195    1.391291
    126          1           0       18.138504   -0.146868   -0.254562
    127          1           0       17.818159    1.089289   -1.040230
    128          1           0       18.178223    2.870999    0.440220
    129          1           0       18.572818    1.752426    1.621207
    130          1           0       20.384125    0.729115   -0.089171
    131          1           0       19.688264    3.248436   -1.379946
    132          1           0       21.214180    2.386326   -1.757428
    133          1           0       19.631478    1.686181   -2.098891
    134          1           0       20.834380    2.390892    2.154032
    135          1           0       21.966146    2.564661    0.897282
    136          1           0       20.694202    3.657594    1.008583
    137          1           0       -7.073420    1.791735    0.236804
    138          1           0       -7.481017   -0.169678   -0.030366
 ---------------------------------------------------------------------

 SCF Done:  E(RB3LYP) =  -2732.91754171     A.U. after   17 cycles

 Excitation energies and oscillator strengths:

 Excited State   1:      Singlet-A      2.1252 eV  583.40 nm  f=0.1431  <S**2>=0.000
     235 -> 238        0.32866
     236 -> 237        0.61953
 This state for optimization and/or second-order correction.
 Total Energy, E(TD-HF/TD-DFT) =  -2732.83944162
 Copying the excited state density for this state as the 1-particle RhoCI density.

 The electronic state is 1-A.
 Alpha  occ. eigenvalues --  -19.18348 -19.16010 -19.13720 -19.12755 -19.12193
 Alpha  occ. eigenvalues --  -14.36845 -14.35780 -14.32563 -14.29884 -10.31592
 Alpha  occ. eigenvalues --  -10.31375 -10.28103 -10.25495 -10.24960 -10.24581
 Alpha  occ. eigenvalues --  -10.24373 -10.24027 -10.23615 -10.23491 -10.23271
 Alpha  occ. eigenvalues --  -10.22801 -10.22704 -10.22287 -10.22048 -10.22038
 Alpha  occ. eigenvalues --  -10.21987 -10.21841 -10.21220 -10.21097 -10.20941
 Alpha  occ. eigenvalues --  -10.20888 -10.20850 -10.20844 -10.20768 -10.20669
 Alpha  occ. eigenvalues --  -10.20615 -10.20606 -10.20535 -10.20506 -10.20407
 Alpha  occ. eigenvalues --  -10.20195 -10.20163 -10.20089 -10.20039 -10.19963
 Alpha  occ. eigenvalues --  -10.19588 -10.19236 -10.19001 -10.18875 -10.18773
 Alpha  occ. eigenvalues --  -10.18573 -10.18416 -10.18301 -10.17834 -10.17782
 Alpha  occ. eigenvalues --  -10.17733 -10.17653 -10.17632 -10.17549 -10.17452
 Alpha  occ. eigenvalues --  -10.17271 -10.16718 -10.16713 -10.16373  -1.10185
 Alpha  occ. eigenvalues --   -1.08426  -1.02854  -1.01624  -1.00070  -0.96116
 Alpha  occ. eigenvalues --   -0.95425  -0.93170  -0.92285  -0.83565  -0.83200
 Alpha  occ. eigenvalues --   -0.83071  -0.82256  -0.81463  -0.81322  -0.80123
 Alpha  occ. eigenvalues --   -0.79934  -0.79703  -0.79452  -0.78067  -0.77232
 Alpha  occ. eigenvalues --   -0.76603  -0.75694  -0.75191  -0.75005  -0.74871
 Alpha  occ. eigenvalues --   -0.73703  -0.72486  -0.72272  -0.72192  -0.70410
 Alpha  occ. eigenvalues --   -0.69939  -0.69188  -0.68467  -0.68353  -0.67390
 Alpha  occ. eigenvalues --   -0.66979  -0.66443  -0.66197  -0.65539  -0.64982
 Alpha  occ. eigenvalues --   -0.63964  -0.63144  -0.62386  -0.61535  -0.60958
 Alpha  occ. eigenvalues --   -0.60035  -0.59596  -0.58748  -0.57836  -0.57247
 Alpha  occ. eigenvalues --   -0.56256  -0.56235  -0.55769  -0.55736  -0.55393
 Alpha  occ. eigenvalues --   -0.55008  -0.54017  -0.53942  -0.53500  -0.53027
 Alpha  occ. eigenvalues --   -0.52566  -0.51267  -0.51172  -0.50331  -0.50043
 Alpha  occ. eigenvalues --   -0.49629  -0.49295  -0.48719  -0.48302  -0.48018
 Alpha  occ. eigenvalues --   -0.47841  -0.47436  -0.47415  -0.47244  -0.47000
 Alpha  occ. eigenvalues --   -0.46782  -0.46756  -0.46299  -0.45680  -0.45647
 Alpha  occ. eigenvalues --   -0.45495  -0.45405  -0.45221  -0.44776  -0.44586
 Alpha  occ. eigenvalues --   -0.44437  -0.44378  -0.44302  -0.44102  -0.43943
 Alpha  occ. eigenvalues --   -0.43725  -0.43466  -0.43388  -0.43168  -0.42152
 Alpha  occ. eigenvalues --   -0.42085  -0.41851  -0.41818  -0.41549  -0.41512
 Alpha  occ. eigenvalues --   -0.41419  -0.41061  -0.40780  -0.40652  -0.40288
 Alpha  occ. eigenvalues --   -0.39890  -0.39830  -0.39776  -0.39167  -0.38935
 Alpha  occ. eigenvalues --   -0.38852  -0.38749  -0.38698  -0.38289  -0.38222
 Alpha  occ. eigenvalues --   -0.38166  -0.38036  -0.37702  -0.37620  -0.37491
 Alpha  occ. eigenvalues --   -0.37367  -0.37085  -0.36957  -0.36857  -0.36617
 Alpha  occ. eigenvalues --   -0.36100  -0.36017  -0.35908  -0.35614  -0.35471
 Alpha  occ. eigenvalues --   -0.35078  -0.34958  -0.34851  -0.34581  -0.34527
 Alpha  occ. eigenvalues --   -0.34479  -0.34305  -0.34117  -0.34102  -0.33842
 Alpha  occ. eigenvalues --   -0.33444  -0.33351  -0.33200  -0.32906  -0.32465
 Alpha  occ. eigenvalues --   -0.32412  -0.31996  -0.31895  -0.31604  -0.31479
 Alpha  occ. eigenvalues --   -0.31294  -0.31008  -0.30324  -0.30032  -0.29722
 Alpha  occ. eigenvalues --   -0.29268  -0.29009  -0.28473  -0.28263  -0.28110
 Alpha  occ. eigenvalues --   -0.27541  -0.27359  -0.26779  -0.25994  -0.25653
 Alpha  occ. eigenvalues --   -0.25008  -0.24535  -0.24111  -0.22579  -0.19895
 Alpha  occ. eigenvalues --   -0.18870
 Alpha virt. eigenvalues --   -0.09720  -0.08081  -0.04682  -0.02923  -0.00899
 Alpha virt. eigenvalues --   -0.00810  -0.00038   0.01276   0.01774   0.03033
 Alpha virt. eigenvalues --    0.03069   0.03125   0.03726   0.03765   0.04531

 Mulliken charges:
               1
     1  C    0.070131
     2  C   -0.114626
     3  C   -0.035945
     4  C   -0.119005
     5  N   -0.221885
     6  C   -0.079798
     7  C   -0.151074
     8  C   -0.042542
     9  C   -0.010478
    10  C    0.064466
    11  C    0.100973
    12  C   -0.008420
    13  C    0.159987
    14  O   -0.225070
    15  O   -0.296277
    16  N   -0.155544
    17  C    0.165462
    18  C    0.014467
    19  C   -0.003381
    20  C    0.230970
    21  C   -0.129205
    22  C   -0.005385
    23  C    0.004031
    24  N   -0.263344
    25  C   -0.017733
    26  C   -0.137927
    27  C   -0.111280
    28  C    0.133234
    29  C    0.266024
    30  C    0.245000
    31  C   -0.135487
    32  N   -0.101234
    33  C    0.028523
    34  C   -0.093316
    35  C   -0.035530
    36  C    0.078312
    37  C   -0.052423
    38  C    0.122524
    39  O   -0.147761
    40  C   -0.109132
    41  C    0.218916
    42  O   -0.181733
    43  O   -0.335115
    44  C    0.093938
    45  C    0.290504
    46  C    0.011593
    47  C   -0.178000
    48  C    0.076783
    49  C   -0.031672
    50  C    0.041312
    51  C    0.108355
    52  C   -0.109791
    53  C    0.085545
    54  C    0.011267
    55  C    0.027524
    56  C    0.038660
    57  C   -0.082964
    58  C   -0.049055
    59  C    0.032132
    60  C    0.194431
    61  C    0.035288
    62  C   -0.092972
    63  C    0.020150
    64  C    0.101982
    65  H    0.010398
    66  H   -0.117127
    67  H    0.018688
    68  H    0.064519
    69  H    0.011850
    70  H    0.019326
    71  H    0.000657
    72  H    0.057485
    73  H    0.017325
    74  H    0.026231
    75  H    0.024772
    76  H    0.028467
    77  H    0.057404
    78  H    0.056798
    79  H    0.063265
    80  H   -0.033242
    81  H    0.007873
    82  H    0.051288
    83  H   -0.026088
    84  H   -0.037801
    85  H   -0.033036
    86  H   -0.033516
    87  H   -0.039579
    88  H    0.030898
    89  H    0.031047
    90  H    0.037552
    91  H    0.060703
    92  H    0.080474
    93  H    0.075395
    94  H    0.089818
    95  H    0.037361
    96  H    0.058369
    97  H    0.047991
    98  H    0.022964
    99  H   -0.002088
   100  H   -0.088096
   101  H    0.022038
   102  H    0.075809
   103  H   -0.029928
   104  H    0.030536
   105  H    0.023563
   106  H    0.029268
   107  H   -0.023038
   108  H   -0.032523
   109  H   -0.008071
   110  H    0.009237
   111  H   -0.024424
   112  H   -0.029569
   113  H    0.008922
   114  H    0.005503
   115  H   -0.002605
   116  H   -0.033429
   117  H   -0.035581
   118  H    0.020848
   119  H    0.008307
   120  H   -0.014805
   121  H    0.033307
   122  H    0.043618
   123  H    0.013258
   124  H   -0.005190
   125  H   -0.019907
   126  H   -0.026502
   127  H   -0.124604
   128  H   -0.018995
   129  H   -0.038203
   130  H   -0.006554
   131  H   -0.010492
   132  H    0.010000
   133  H    0.011270
   134  H    0.004703
   135  H   -0.026792
   136  H   -0.007604
   137  H    0.127159
   138  H    0.155747
 Sum of Mulliken charges =  -0.00000

 Dipole moment (field-independent basis, Debye):
    X=              3.1502    Y=              4.7991    Z=             -0.1562  Tot=              5.7428
 Quadrupole moment (field-independent basis, Debye-Ang):
   XX=           -343.5069   YY=           -388.6534   ZZ=           -396.7428
   XY=            -23.2009   XZ=              3.0453   YZ=              2.3286

 Normal termination of Gaussian 16 at Sun Sep  1 04:29:49 2019.
