 Gaussian 16, Revision A.03,
 Gaussian 16:  ES64L-G16RevA.03 25-Dec-2016

 --------------------------
 # td=(NStates=1) B3LYP/SVP
 --------------------------

 --
 TD
 --
 Symbolic Z-matrix:
 Charge =  0 Multiplicity = 1

                         Standard orientation:
 ---------------------------------------------------------------------
 Center     Atomic      Atomic             Coordinates (Angstroms)
 Number     Number       Type             X           Y           Z
 ---------------------------------------------------------------------
      1          6           0       -5.141172   -1.914501    0.367730
      2          6           0       -4.741577    2.796633    1.339081
      3          6           0       -9.334554    3.358366   -0.122641
      4          6           0       -9.883539   -1.396568   -0.829029
      5          7           0       -5.199000    0.402994    0.687810
      6          6           0       -4.482528   -0.719845    0.752019
      7          6           0       -3.038880   -0.527425    1.096979
      8          6           0       -3.121394    0.868055    1.691450
      9          6           0       -4.500082    1.397270    1.248593
     10          6           0       -2.949799    0.851861    3.280653
     11          6           0       -1.917314   -0.770829    0.106530
     12          6           0       -0.549811   -0.780351    0.517216
     13          6           0        0.381626   -1.090453   -0.657018
     14          8           0        0.034650   -1.596976   -1.718927
     15          8           0        1.644424   -0.837255   -0.273379
     16          7           0       -7.009022    2.759382    0.512413
     17          6           0       -5.912439    3.427871    0.973368
     18          6           0       -6.226729    4.790630    1.041428
     19          6           0       -7.495278    4.899775    0.664552
     20          6           0       -8.044771    3.672466    0.192642
     21          6           0       -5.165954    5.797897    1.451407
     22          6           0       -8.253314    6.189428    0.505791
     23          6           0       -9.084443    6.535282   -0.527189
     24          7           0       -9.221175    0.959718   -0.418394
     25          6           0       -9.979652    2.127243   -0.424357
     26          6           0      -11.310389    1.838969   -0.795040
     27          6           0      -11.426544    0.499706   -0.990476
     28          6           0      -10.145977   -0.018328   -0.784331
     29          6           0      -12.355775    2.970917   -0.973273
     30          6           0      -12.635943   -0.139122   -1.642729
     31          6           0      -12.479237   -0.335665   -3.211302
     32          7           0       -7.514041   -1.290628   -0.162397
     33          6           0       -8.624471   -1.926655   -0.579170
     34          6           0       -8.134170   -3.394081   -0.657080
     35          6           0       -6.880403   -3.466094   -0.349397
     36          6           0       -6.528140   -2.069342   -0.002743
     37          6           0       -9.116534   -4.508689   -0.993909
     38          6           0       -5.704623   -4.313429   -0.116902
     39          8           0       -5.563948   -5.520442   -0.271530
     40          6           0       -4.451056   -3.340227    0.336095
     41          6           0       -3.904054   -3.843693    1.724103
     42          8           0       -4.250735   -3.442437    2.845718
     43          8           0       -3.051015   -4.843590    1.526510
     44          6           0       -2.635878   -5.608703    2.663269
     45          6           0        2.684910   -1.186926   -1.348275
     46          6           0        3.912158   -0.799819   -0.680643
     47          6           0        4.932082   -0.079705   -1.234434
     48          6           0        4.817791    0.774757   -2.484592
     49          6           0        6.184462    0.238687   -0.463098
     50          6           0        7.562071   -0.403641   -0.953912
     51          6           0        8.777642   -0.039436   -0.122600
     52          6           0       10.082104   -0.719363   -0.694860
     53          6           0       10.049490   -2.268394   -0.793568
     54          6           0       11.318823   -0.152494    0.131328
     55          6           0       12.616830   -0.402866   -0.486266
     56          6           0       13.795616    0.198469    0.290039
     57          6           0       15.215844   -0.277165   -0.099069
     58          6           0       15.546095   -1.817373    0.316447
     59          6           0       16.297183    0.786504    0.491412
     60          6           0       17.740324    0.582110   -0.267590
     61          6           0       18.705872    1.701694    0.365380
     62          6           0       20.143057    1.679240   -0.021344
     63          6           0       20.253527    1.946499   -1.507359
     64          6           0       20.935750    2.691816    0.881430
     65          1           0       -3.999136    3.374817    2.025559
     66          1           0      -10.005185    4.317624   -0.059767
     67          1           0      -10.731494   -2.101944   -1.301542
     68          1           0       -2.720572   -1.191946    1.904067
     69          1           0       -2.433608    1.461666    1.225840
     70          1           0       -1.946992    0.570962    3.733721
     71          1           0       -2.888550    1.860954    3.813149
     72          1           0       -3.696912    0.175275    3.649331
     73          1           0       -2.138658   -1.905590   -0.148116
     74          1           0       -2.258864   -0.199401   -0.901883
     75          1           0       -0.402974    0.352317    1.000261
     76          1           0       -0.302331   -1.516274    1.474571
     77          1           0       -4.169789    5.452504    0.914901
     78          1           0       -5.391250    6.879497    1.256690
     79          1           0       -4.796685    5.671759    2.548834
     80          1           0       -7.803118    7.041761    1.115978
     81          1           0       -9.355029    5.646768   -1.281384
     82          1           0       -9.439016    7.569824   -0.633646
     83          1           0      -12.580771    3.618614   -0.146267
     84          1           0      -11.890704    3.804837   -1.671708
     85          1           0      -13.426266    2.681762   -1.204206
     86          1           0      -12.842406   -1.097613   -1.074879
     87          1           0      -13.538282    0.508325   -1.414644
     88          1           0      -12.638759    0.554502   -3.713705
     89          1           0      -11.441334   -0.783282   -3.645203
     90          1           0      -13.369185   -0.680433   -3.542100
     91          1           0      -10.248647   -4.016890   -0.531962
     92          1           0       -9.012797   -4.338528   -2.201501
     93          1           0       -8.726548   -5.481131   -0.258799
     94          1           0       -3.666037   -3.556302   -0.516183
     95          1           0       -1.806315   -6.234521    2.388500
     96          1           0       -2.408583   -4.942434    3.523657
     97          1           0       -3.452564   -6.299717    2.905466
     98          1           0        2.502336   -2.320113   -1.269784
     99          1           0        2.335632   -0.812999   -2.108960
    100          1           0        4.258709   -1.272585    0.156657
    101          1           0        4.660476    1.978825   -2.007752
    102          1           0        5.757450    0.656636   -3.321694
    103          1           0        3.908630    0.471063   -3.188519
    104          1           0        6.507161    1.326278   -0.348601
    105          1           0        6.146146   -0.287268    0.614531
    106          1           0        7.359795   -1.514712   -1.074098
    107          1           0        7.699151   -0.147190   -1.995595
    108          1           0        8.886026    1.035347    0.149494
    109          1           0        8.866171   -0.500319    0.886457
    110          1           0       10.193308   -0.398719   -1.882977
    111          1           0        9.363101   -2.400213   -1.575114
    112          1           0       10.967026   -2.818444   -1.046225
    113          1           0        9.816357   -2.793508    0.220647
    114          1           0       11.292263    0.912072    0.229203
    115          1           0       11.215206   -0.733959    1.245215
    116          1           0       12.712338   -1.443298   -0.660355
    117          1           0       12.972072    0.117157   -1.526347
    118          1           0       13.541583    1.297017    0.291575
    119          1           0       13.684995    0.068746    1.586608
    120          1           0       15.454517   -0.149842   -1.323483
    121          1           0       14.935272   -2.598550   -0.170649
    122          1           0       16.647379   -2.094508    0.119634
    123          1           0       15.488470   -1.953695    1.434528
    124          1           0       16.022416    1.916765    0.294886
    125          1           0       16.270281    0.398911    1.498589
    126          1           0       18.280886   -0.497004    0.242426
    127          1           0       17.873408    0.496967   -1.385122
    128          1           0       18.335368    2.806155    0.277854
    129          1           0       18.687448    1.304164    1.533957
    130          1           0       20.639022    0.740694    0.071371
    131          1           0       19.693081    2.864101   -1.783299
    132          1           0       21.250201    2.236922   -1.942123
    133          1           0       19.911910    1.059248   -2.242653
    134          1           0       20.650893    2.324171    2.020336
    135          1           0       22.041842    2.570933    0.912764
    136          1           0       20.634553    3.697399    0.868136
    137          1           0       -7.121785    1.746786    0.189821
    138          1           0       -7.497067   -0.247615   -0.116010
 ---------------------------------------------------------------------

 SCF Done:  E(RB3LYP) =  -2732.98979257     A.U. after   17 cycles

 Excitation energies and oscillator strengths:

 Excited State   1:      Singlet-A      2.1329 eV  581.30 nm  f=0.1027  <S**2>=0.000
     235 -> 238       -0.35956
     236 -> 237        0.59742
 This state for optimization and/or second-order correction.
 Total Energy, E(TD-HF/TD-DFT) =  -2732.91141036
 Copying the excited state density for this state as the 1-particle RhoCI density.

 The electronic state is 1-A.
 Alpha  occ. eigenvalues --  -19.18190 -19.17205 -19.13032 -19.12603 -19.12063
 Alpha  occ. eigenvalues --  -14.38217 -14.36050 -14.32059 -14.29422 -10.32017
 Alpha  occ. eigenvalues --  -10.31626 -10.29023 -10.24509 -10.24501 -10.23978
 Alpha  occ. eigenvalues --  -10.23851 -10.23605 -10.23491 -10.23010 -10.22992
 Alpha  occ. eigenvalues --  -10.22809 -10.22801 -10.22504 -10.22412 -10.21775
 Alpha  occ. eigenvalues --  -10.21593 -10.21556 -10.21455 -10.21258 -10.21167
 Alpha  occ. eigenvalues --  -10.21010 -10.20944 -10.20768 -10.20674 -10.20596
 Alpha  occ. eigenvalues --  -10.20425 -10.20235 -10.20232 -10.20198 -10.20169
 Alpha  occ. eigenvalues --  -10.20117 -10.20031 -10.19868 -10.19803 -10.19534
 Alpha  occ. eigenvalues --  -10.19457 -10.19446 -10.19431 -10.19430 -10.19397
 Alpha  occ. eigenvalues --  -10.19338 -10.19274 -10.19261 -10.19166 -10.19149
 Alpha  occ. eigenvalues --  -10.18974 -10.18712 -10.18668 -10.18634 -10.18549
 Alpha  occ. eigenvalues --  -10.18376 -10.17956 -10.17823 -10.17049  -1.09509
 Alpha  occ. eigenvalues --   -1.08140  -1.02677  -1.01728  -0.99685  -0.99158
 Alpha  occ. eigenvalues --   -0.97513  -0.95396  -0.92472  -0.83627  -0.82971
 Alpha  occ. eigenvalues --   -0.81976  -0.81543  -0.81378  -0.81321  -0.80484
 Alpha  occ. eigenvalues --   -0.80277  -0.78991  -0.78760  -0.78215  -0.77419
 Alpha  occ. eigenvalues --   -0.76486  -0.75695  -0.74917  -0.74720  -0.73649
 Alpha  occ. eigenvalues --   -0.73389  -0.72570  -0.72134  -0.70809  -0.69876
 Alpha  occ. eigenvalues --   -0.69553  -0.69332  -0.68180  -0.67479  -0.67092
 Alpha  occ. eigenvalues --   -0.67047  -0.66642  -0.66056  -0.65077  -0.64945
 Alpha  occ. eigenvalues --   -0.64337  -0.63206  -0.62683  -0.62330  -0.60943
 Alpha  occ. eigenvalues --   -0.60506  -0.58972  -0.58806  -0.57678  -0.57439
 Alpha  occ. eigenvalues --   -0.56537  -0.56360  -0.55925  -0.55506  -0.55305
 Alpha  occ. eigenvalues --   -0.54926  -0.54735  -0.53574  -0.52906  -0.52657
 Alpha  occ. eigenvalues --   -0.52207  -0.51927  -0.50842  -0.50146  -0.49943
 Alpha  occ. eigenvalues --   -0.49830  -0.49091  -0.48765  -0.48594  -0.48060
 Alpha  occ. eigenvalues --   -0.47809  -0.47671  -0.47424  -0.46861  -0.46784
 Alpha  occ. eigenvalues --   -0.46488  -0.46338  -0.46097  -0.45841  -0.45410
 Alpha  occ. eigenvalues --   -0.45334  -0.45167  -0.44983  -0.44483  -0.44176
 Alpha  occ. eigenvalues --   -0.44143  -0.43767  -0.43420  -0.43128  -0.42884
 Alpha  occ. eigenvalues --   -0.42690  -0.42388  -0.42323  -0.42239  -0.41855
 Alpha  occ. eigenvalues --   -0.41679  -0.41490  -0.41284  -0.41206  -0.41038
 Alpha  occ. eigenvalues --   -0.41012  -0.40737  -0.40557  -0.40145  -0.40016
 Alpha  occ. eigenvalues --   -0.39668  -0.39382  -0.39236  -0.39142  -0.39080
 Alpha  occ. eigenvalues --   -0.38941  -0.38690  -0.38386  -0.38300  -0.38079
 Alpha  occ. eigenvalues --   -0.37898  -0.37822  -0.37718  -0.37533  -0.37404
 Alpha  occ. eigenvalues --   -0.37322  -0.36768  -0.36724  -0.36554  -0.36416
 Alpha  occ. eigenvalues --   -0.36293  -0.36232  -0.35876  -0.35531  -0.35493
 Alpha  occ. eigenvalues --   -0.35276  -0.35034  -0.34840  -0.34557  -0.34455
 Alpha  occ. eigenvalues --   -0.34255  -0.34240  -0.34028  -0.33774  -0.33562
 Alpha  occ. eigenvalues --   -0.32997  -0.32920  -0.32667  -0.32435  -0.32369
 Alpha  occ. eigenvalues --   -0.32313  -0.31816  -0.31475  -0.31222  -0.30760
 Alpha  occ. eigenvalues --   -0.30627  -0.30530  -0.30423  -0.30295  -0.30005
 Alpha  occ. eigenvalues --   -0.29639  -0.28766  -0.28444  -0.28410  -0.27790
 Alpha  occ. eigenvalues --   -0.27580  -0.27420  -0.27313  -0.26846  -0.25903
 Alpha  occ. eigenvalues --   -0.25201  -0.25136  -0.24033  -0.21951  -0.19670
 Alpha  occ. eigenvalues --   -0.18698
 Alpha virt. eigenvalues --   -0.09293  -0.07945  -0.04617  -0.02628  -0.01971
 Alpha virt. eigenvalues --   -0.00694  -0.00378   0.00563   0.02115   0.02450
 Alpha virt. eigenvalues --    0.03056   0.03085   0.03906   0.04008   0.04532

 Mulliken charges:
               1
     1  C    0.022328
     2  C   -0.147230
     3  C   -0.088286
     4  C   -0.138461
     5  N   -0.158945
     6  C   -0.063273
     7  C    0.028432
     8  C    0.003073
     9  C    0.005289
    10  C    0.027618
    11  C    0.003336
    12  C   -0.056487
    13  C    0.208628
    14  O   -0.252634
    15  O   -0.349380
    16  N   -0.127158
    17  C    0.143721
    18  C   -0.076365
    19  C   -0.000427
    20  C    0.061021
    21  C    0.044601
    22  C   -0.059876
    23  C   -0.060757
    24  N   -0.301653
    25  C    0.053100
    26  C   -0.054188
    27  C   -0.121540
    28  C    0.055482
    29  C    0.059279
    30  C    0.032117
    31  C    0.081494
    32  N    0.110859
    33  C    0.060807
    34  C   -0.218634
    35  C    0.097469
    36  C   -0.024723
    37  C   -0.070985
    38  C    0.077902
    39  O   -0.170485
    40  C   -0.119226
    41  C    0.225063
    42  O   -0.257683
    43  O   -0.285473
    44  C    0.188645
    45  C    0.429460
    46  C   -0.007885
    47  C   -0.102564
    48  C   -0.084476
    49  C    0.010719
    50  C    0.006457
    51  C    0.068712
    52  C   -0.158514
    53  C    0.032935
    54  C    0.043614
    55  C    0.044721
    56  C   -0.033294
    57  C   -0.105897
    58  C   -0.004639
    59  C    0.025424
    60  C   -0.064777
    61  C   -0.056058
    62  C   -0.005934
    63  C   -0.025436
    64  C    0.010069
    65  H    0.011387
    66  H    0.016740
    67  H    0.039424
    68  H   -0.019343
    69  H   -0.040601
    70  H    0.008573
    71  H    0.009556
    72  H    0.036000
    73  H    0.018440
    74  H    0.034263
    75  H    0.045972
    76  H    0.066187
    77  H    0.036442
    78  H    0.033807
    79  H    0.035423
    80  H    0.009972
    81  H    0.064301
    82  H    0.035729
    83  H    0.001584
    84  H    0.021439
    85  H    0.012190
    86  H    0.007181
    87  H    0.002016
    88  H   -0.025502
    89  H    0.048914
    90  H   -0.028965
    91  H    0.064643
    92  H    0.089650
    93  H    0.097990
    94  H    0.091179
    95  H    0.026158
    96  H    0.044175
    97  H    0.032655
    98  H    0.034381
    99  H   -0.077816
   100  H   -0.040302
   101  H    0.069127
   102  H    0.057113
   103  H    0.038136
   104  H    0.019506
   105  H    0.014772
   106  H    0.005433
   107  H   -0.016286
   108  H    0.001763
   109  H   -0.012045
   110  H    0.000803
   111  H    0.009297
   112  H    0.014534
   113  H    0.012282
   114  H   -0.016934
   115  H    0.021117
   116  H   -0.028022
   117  H    0.014341
   118  H    0.000210
   119  H   -0.015041
   120  H    0.010443
   121  H    0.027134
   122  H    0.020046
   123  H    0.013310
   124  H    0.035331
   125  H    0.012247
   126  H    0.014772
   127  H    0.032425
   128  H    0.018684
   129  H    0.016215
   130  H   -0.018692
   131  H   -0.007454
   132  H    0.001605
   133  H    0.026823
   134  H    0.003012
   135  H    0.016056
   136  H    0.002695
   137  H    0.173984
   138  H    0.158389
 Sum of Mulliken charges =  -0.00000

 Dipole moment (field-independent basis, Debye):
    X=              3.9856    Y=              3.0234    Z=             -0.0198  Tot=              5.0026
 Quadrupole moment (field-independent basis, Debye-Ang):
   XX=           -363.1757   YY=           -380.9824   ZZ=           -397.6311
   XY=            -22.4528   XZ=              8.6902   YZ=             -4.3831

 Normal termination of Gaussian 16 at Thu Aug 29 15:22:57 2019.
