 Gaussian 16, Revision A.03,
 Gaussian 16:  ES64L-G16RevA.03 25-Dec-2016

 --------------------------
 # td=(NStates=1) B3LYP/SVP
 --------------------------

 --
 TD
 --
 Symbolic Z-matrix:
 Charge =  0 Multiplicity = 1

                         Standard orientation:
 ---------------------------------------------------------------------
 Center     Atomic      Atomic             Coordinates (Angstroms)
 Number     Number       Type             X           Y           Z
 ---------------------------------------------------------------------
      1          6           0       -5.097305   -1.931278    0.509674
      2          6           0       -4.749002    2.715124    1.588407
      3          6           0       -9.218887    3.378611   -0.274972
      4          6           0       -9.787551   -1.382811   -1.031006
      5          7           0       -5.199876    0.323430    0.943865
      6          6           0       -4.415874   -0.774973    0.898619
      7          6           0       -3.103246   -0.634284    1.452001
      8          6           0       -3.155691    0.828302    2.055728
      9          6           0       -4.458336    1.394930    1.484593
     10          6           0       -2.954784    0.821437    3.509070
     11          6           0       -2.066917   -0.772295    0.330129
     12          6           0       -0.590999   -0.843275    0.733909
     13          6           0        0.389533   -0.880959   -0.537111
     14          8           0        0.061064   -1.106790   -1.617382
     15          8           0        1.620172   -0.776071   -0.043163
     16          7           0       -7.044808    2.701443    0.622980
     17          6           0       -5.931257    3.352194    1.186060
     18          6           0       -6.247576    4.772745    1.299154
     19          6           0       -7.489757    4.940600    0.538519
     20          6           0       -7.934069    3.577731    0.211437
     21          6           0       -5.253122    5.837222    1.752876
     22          6           0       -8.124107    6.143459    0.310289
     23          6           0       -8.960797    6.455727   -0.710164
     24          7           0       -9.242205    0.891872   -0.518445
     25          6           0       -9.858739    2.098554   -0.558211
     26          6           0      -11.229390    1.944839   -1.090134
     27          6           0      -11.375065    0.492946   -1.352688
     28          6           0      -10.114268   -0.061591   -0.951083
     29          6           0      -12.101065    2.934572   -1.345980
     30          6           0      -12.493822   -0.102928   -1.808914
     31          6           0      -12.621816   -0.444060   -3.306314
     32          7           0       -7.455222   -1.204457   -0.109896
     33          6           0       -8.571730   -2.038394   -0.660988
     34          6           0       -8.147404   -3.397247   -0.810193
     35          6           0       -6.767374   -3.464998   -0.324694
     36          6           0       -6.433866   -2.063641    0.032590
     37          6           0       -8.933597   -4.495534   -1.411296
     38          6           0       -5.679985   -4.334498   -0.127149
     39          8           0       -5.483962   -5.498910   -0.275990
     40          6           0       -4.460819   -3.331632    0.334192
     41          6           0       -4.029222   -3.855573    1.699966
     42          8           0       -4.228787   -3.415070    2.758153
     43          8           0       -3.177681   -4.828076    1.461883
     44          6           0       -2.735899   -5.685813    2.603834
     45          6           0        2.661181   -0.733391   -1.116959
     46          6           0        4.025279   -0.611483   -0.557817
     47          6           0        4.969790    0.189319   -0.933928
     48          6           0        4.905458    1.011241   -2.162891
     49          6           0        6.260820    0.297884   -0.274205
     50          6           0        7.465793   -0.411785   -0.994898
     51          6           0        8.745911   -0.188142   -0.141135
     52          6           0       10.057566   -0.856556   -0.615421
     53          6           0       10.028349   -2.358659   -0.563034
     54          6           0       11.236113   -0.347055    0.164487
     55          6           0       12.624843   -0.695470   -0.460332
     56          6           0       13.824873   -0.073586    0.163631
     57          6           0       15.234512   -0.318319   -0.460655
     58          6           0       15.689300   -1.842811   -0.299597
     59          6           0       16.149973    0.642272    0.228215
     60          6           0       17.593835    0.637700   -0.245492
     61          6           0       18.453695    1.752655    0.428737
     62          6           0       19.919056    1.734739   -0.156889
     63          6           0       20.118255    2.232370   -1.582075
     64          6           0       20.837778    2.491595    0.851369
     65          1           0       -3.997114    3.283574    2.073317
     66          1           0       -9.841810    4.317723   -0.366835
     67          1           0      -10.475797   -2.090941   -1.603603
     68          1           0       -2.800790   -1.506113    2.088829
     69          1           0       -2.245090    1.351274    1.519934
     70          1           0       -2.200247    0.152989    3.998684
     71          1           0       -2.943124    1.862488    3.991601
     72          1           0       -3.938140    0.369745    3.783455
     73          1           0       -2.375492   -1.421141   -0.396166
     74          1           0       -2.322397    0.180838   -0.365258
     75          1           0       -0.334561    0.010546    1.614292
     76          1           0       -0.375964   -1.776257    1.352882
     77          1           0       -4.638339    6.329657    0.549939
     78          1           0       -5.940335    6.629790    2.235524
     79          1           0       -4.516655    5.395771    2.549126
     80          1           0       -7.959331    6.905766    1.174494
     81          1           0       -8.961920    5.897699   -1.621603
     82          1           0       -9.449975    7.523595   -0.522431
     83          1           0      -12.449493    3.433281   -0.485634
     84          1           0      -11.705545    3.995994   -1.988446
     85          1           0      -13.035029    2.510913   -1.736783
     86          1           0      -12.364088   -1.107881   -1.387116
     87          1           0      -13.374572    0.394893   -1.490689
     88          1           0      -12.846305    0.432668   -3.979200
     89          1           0      -11.594224   -0.681908   -3.757880
     90          1           0      -13.312882   -1.374421   -3.538980
     91          1           0       -9.753046   -4.684275   -0.814150
     92          1           0       -9.392819   -4.207315   -2.449607
     93          1           0       -8.410975   -5.523752   -1.664378
     94          1           0       -3.447952   -3.477791   -0.155046
     95          1           0       -2.182794   -6.320845    2.174045
     96          1           0       -2.130970   -4.991556    3.427481
     97          1           0       -3.513925   -6.225919    3.091678
     98          1           0        2.518579   -1.863414   -1.875082
     99          1           0        2.403037    0.018148   -1.971351
    100          1           0        4.099681   -1.085594    0.327450
    101          1           0        5.436510    2.092295   -2.116615
    102          1           0        5.408861    0.520773   -2.966491
    103          1           0        3.902089    1.357015   -2.358610
    104          1           0        6.589704    1.308778    0.150921
    105          1           0        6.094504   -0.463289    0.755135
    106          1           0        7.395778   -1.416736   -0.870390
    107          1           0        7.455252    0.099440   -1.967446
    108          1           0        8.878970    0.971348    0.194484
    109          1           0        8.446178   -0.557019    0.811350
    110          1           0       10.253996   -0.528769   -1.729426
    111          1           0        9.142160   -2.775177   -1.140049
    112          1           0       10.974072   -2.838445   -1.075885
    113          1           0        9.997393   -2.823062    0.404072
    114          1           0       10.983433    0.865438   -0.008971
    115          1           0       10.988598   -0.600987    1.210337
    116          1           0       12.691016   -1.913778   -0.403313
    117          1           0       12.551942   -0.243791   -1.588096
    118          1           0       13.690164    1.082489    0.170555
    119          1           0       14.144675   -0.257145    1.277720
    120          1           0       15.340691    0.009128   -1.456844
    121          1           0       14.794117   -2.504787   -0.784520
    122          1           0       16.564371   -1.943199   -0.808155
    123          1           0       16.049904   -2.122676    0.929640
    124          1           0       15.828055    1.662841    0.098646
    125          1           0       16.156671    0.565281    1.351276
    126          1           0       17.913340   -0.333462   -0.171944
    127          1           0       17.690411    0.908372   -1.456773
    128          1           0       17.805521    2.774182    0.542195
    129          1           0       18.717116    1.323096    1.491283
    130          1           0       20.094770    0.606441    0.006302
    131          1           0       19.742181    3.178073   -1.806760
    132          1           0       21.253856    2.080375   -1.707330
    133          1           0       19.750288    1.426516   -2.352710
    134          1           0       20.585068    2.119640    2.018318
    135          1           0       21.933078    2.190659    0.617346
    136          1           0       20.875193    3.623176    0.615475
    137          1           0       -7.168828    1.713549    0.345753
    138          1           0       -7.463818   -0.275871    0.151919
 ---------------------------------------------------------------------

 SCF Done:  E(RB3LYP) =  -2732.98630356     A.U. after   17 cycles

 Excitation energies and oscillator strengths:

 Excited State   1:      Singlet-A      1.9770 eV  627.14 nm  f=0.1475  <S**2>=0.000
     234 -> 237        0.14418
     235 -> 237       -0.32465
     235 -> 238        0.22750
     236 -> 237        0.52270
     236 -> 238        0.20924
 This state for optimization and/or second-order correction.
 Total Energy, E(TD-HF/TD-DFT) =  -2732.91365149
 Copying the excited state density for this state as the 1-particle RhoCI density.

 The electronic state is 1-A.
 Alpha  occ. eigenvalues --  -19.18627 -19.16431 -19.13417 -19.11474 -19.11018
 Alpha  occ. eigenvalues --  -14.37672 -14.36838 -14.32079 -14.29269 -10.31700
 Alpha  occ. eigenvalues --  -10.29370 -10.27466 -10.27073 -10.24770 -10.24360
 Alpha  occ. eigenvalues --  -10.24283 -10.24012 -10.23862 -10.23717 -10.22897
 Alpha  occ. eigenvalues --  -10.22761 -10.22205 -10.21811 -10.21516 -10.21391
 Alpha  occ. eigenvalues --  -10.20933 -10.20923 -10.20902 -10.20750 -10.20699
 Alpha  occ. eigenvalues --  -10.20639 -10.20546 -10.20513 -10.20454 -10.20399
 Alpha  occ. eigenvalues --  -10.20163 -10.20077 -10.19953 -10.19756 -10.19744
 Alpha  occ. eigenvalues --  -10.19628 -10.19626 -10.19569 -10.19508 -10.19464
 Alpha  occ. eigenvalues --  -10.19458 -10.19455 -10.19358 -10.19211 -10.19138
 Alpha  occ. eigenvalues --  -10.19065 -10.18987 -10.18931 -10.18886 -10.18811
 Alpha  occ. eigenvalues --  -10.18769 -10.18560 -10.18470 -10.18216 -10.18008
 Alpha  occ. eigenvalues --  -10.17936 -10.17864 -10.17775 -10.17157  -1.11158
 Alpha  occ. eigenvalues --   -1.09699  -1.03217  -1.03177  -1.00639  -0.98985
 Alpha  occ. eigenvalues --   -0.96409  -0.93725  -0.92706  -0.84136  -0.83200
 Alpha  occ. eigenvalues --   -0.82402  -0.82105  -0.81861  -0.81285  -0.81236
 Alpha  occ. eigenvalues --   -0.80825  -0.80263  -0.79400  -0.79227  -0.77535
 Alpha  occ. eigenvalues --   -0.77226  -0.75755  -0.75554  -0.74897  -0.74613
 Alpha  occ. eigenvalues --   -0.73833  -0.73406  -0.72330  -0.71224  -0.70521
 Alpha  occ. eigenvalues --   -0.69834  -0.68784  -0.68653  -0.68000  -0.67138
 Alpha  occ. eigenvalues --   -0.66961  -0.66770  -0.66432  -0.65848  -0.65034
 Alpha  occ. eigenvalues --   -0.63644  -0.63290  -0.62230  -0.61941  -0.61595
 Alpha  occ. eigenvalues --   -0.60563  -0.58805  -0.58287  -0.57756  -0.56753
 Alpha  occ. eigenvalues --   -0.56039  -0.55867  -0.55630  -0.55426  -0.55197
 Alpha  occ. eigenvalues --   -0.54612  -0.54280  -0.53605  -0.53491  -0.53275
 Alpha  occ. eigenvalues --   -0.53064  -0.51862  -0.51263  -0.51137  -0.49590
 Alpha  occ. eigenvalues --   -0.49208  -0.48979  -0.48808  -0.48610  -0.48484
 Alpha  occ. eigenvalues --   -0.47840  -0.47816  -0.47586  -0.47274  -0.46876
 Alpha  occ. eigenvalues --   -0.46714  -0.46619  -0.46391  -0.46260  -0.45698
 Alpha  occ. eigenvalues --   -0.45609  -0.45354  -0.44936  -0.44792  -0.44680
 Alpha  occ. eigenvalues --   -0.44391  -0.44190  -0.44003  -0.43985  -0.43380
 Alpha  occ. eigenvalues --   -0.43300  -0.43139  -0.42947  -0.42710  -0.42444
 Alpha  occ. eigenvalues --   -0.42409  -0.42056  -0.41880  -0.41634  -0.41474
 Alpha  occ. eigenvalues --   -0.41203  -0.40811  -0.40449  -0.40251  -0.40208
 Alpha  occ. eigenvalues --   -0.40098  -0.39658  -0.39557  -0.39424  -0.39247
 Alpha  occ. eigenvalues --   -0.39148  -0.39000  -0.38738  -0.38601  -0.38464
 Alpha  occ. eigenvalues --   -0.38308  -0.38228  -0.38096  -0.38013  -0.37818
 Alpha  occ. eigenvalues --   -0.37655  -0.37444  -0.37146  -0.36918  -0.36524
 Alpha  occ. eigenvalues --   -0.36493  -0.36165  -0.36120  -0.35826  -0.35464
 Alpha  occ. eigenvalues --   -0.35410  -0.35157  -0.35031  -0.34823  -0.34408
 Alpha  occ. eigenvalues --   -0.34331  -0.34066  -0.33969  -0.33754  -0.33704
 Alpha  occ. eigenvalues --   -0.33007  -0.32756  -0.32414  -0.32019  -0.31915
 Alpha  occ. eigenvalues --   -0.31763  -0.31693  -0.31582  -0.31497  -0.31212
 Alpha  occ. eigenvalues --   -0.31117  -0.30851  -0.30829  -0.30431  -0.29864
 Alpha  occ. eigenvalues --   -0.29715  -0.29467  -0.28943  -0.28670  -0.28025
 Alpha  occ. eigenvalues --   -0.27195  -0.26930  -0.26290  -0.25689  -0.25625
 Alpha  occ. eigenvalues --   -0.25231  -0.24004  -0.23505  -0.20408  -0.19737
 Alpha  occ. eigenvalues --   -0.18864
 Alpha virt. eigenvalues --   -0.10755  -0.08195  -0.04696  -0.02426  -0.00818
 Alpha virt. eigenvalues --   -0.00381   0.00926   0.01395   0.02455   0.02712
 Alpha virt. eigenvalues --    0.03444   0.03669   0.03726   0.04222   0.04392

 Mulliken charges:
               1
     1  C    0.091482
     2  C   -0.048646
     3  C   -0.123047
     4  C   -0.136462
     5  N   -0.223614
     6  C   -0.050787
     7  C   -0.029306
     8  C   -0.007146
     9  C    0.008360
    10  C    0.053506
    11  C    0.020282
    12  C   -0.024232
    13  C    0.185616
    14  O   -0.158851
    15  O   -0.299226
    16  N   -0.027620
    17  C    0.156348
    18  C   -0.132813
    19  C    0.030131
    20  C    0.092161
    21  C   -0.026425
    22  C   -0.115006
    23  C   -0.038086
    24  N   -0.236838
    25  C    0.053977
    26  C   -0.088097
    27  C   -0.047047
    28  C    0.125848
    29  C    0.046887
    30  C    0.066992
    31  C   -0.040978
    32  N   -0.027231
    33  C    0.090715
    34  C   -0.087378
    35  C    0.003027
    36  C    0.058165
    37  C    0.066140
    38  C    0.050225
    39  O   -0.139858
    40  C   -0.197017
    41  C    0.171292
    42  O   -0.186984
    43  O   -0.315346
    44  C    0.239879
    45  C    0.135600
    46  C    0.011462
    47  C   -0.083005
    48  C    0.052012
    49  C   -0.063349
    50  C    0.127247
    51  C   -0.028322
    52  C   -0.035760
    53  C    0.000903
    54  C   -0.029271
    55  C    0.036256
    56  C    0.000513
    57  C   -0.022159
    58  C   -0.018124
    59  C    0.018189
    60  C    0.009703
    61  C   -0.022035
    62  C   -0.118747
    63  C    0.045468
    64  C   -0.036246
    65  H   -0.047722
    66  H    0.007067
    67  H   -0.000418
    68  H    0.021814
    69  H    0.005254
    70  H    0.030187
    71  H    0.015316
    72  H    0.017096
    73  H   -0.017064
    74  H   -0.002798
    75  H    0.046098
    76  H    0.037722
    77  H    0.069551
    78  H    0.048335
    79  H    0.057708
    80  H    0.025301
    81  H    0.037083
    82  H    0.047092
    83  H   -0.001916
    84  H    0.030030
    85  H   -0.005027
    86  H   -0.009490
    87  H   -0.001357
    88  H    0.013429
    89  H    0.008635
    90  H    0.031355
    91  H    0.011411
    92  H    0.037222
    93  H    0.060924
    94  H    0.060366
    95  H   -0.025056
    96  H    0.050221
    97  H    0.031032
    98  H    0.046004
    99  H    0.045687
   100  H   -0.053227
   101  H    0.015308
   102  H    0.035760
   103  H    0.012039
   104  H    0.031586
   105  H   -0.006006
   106  H   -0.020839
   107  H    0.006729
   108  H   -0.003350
   109  H   -0.029183
   110  H   -0.005165
   111  H    0.012992
   112  H    0.022566
   113  H   -0.001210
   114  H    0.007747
   115  H    0.000590
   116  H    0.030349
   117  H    0.019147
   118  H   -0.005673
   119  H    0.000722
   120  H   -0.029113
   121  H    0.040744
   122  H   -0.000123
   123  H    0.026802
   124  H   -0.026214
   125  H   -0.015432
   126  H   -0.031061
   127  H   -0.004759
   128  H    0.022663
   129  H   -0.001697
   130  H    0.005253
   131  H    0.015177
   132  H    0.013270
   133  H    0.020723
   134  H    0.036917
   135  H    0.012096
   136  H    0.024607
   137  H    0.160396
   138  H    0.094452
 Sum of Mulliken charges =  -0.00000

 Dipole moment (field-independent basis, Debye):
    X=              2.5096    Y=              3.7200    Z=              0.2870  Tot=              4.4966
 Quadrupole moment (field-independent basis, Debye-Ang):
   XX=           -350.0948   YY=           -378.2514   ZZ=           -395.5566
   XY=            -21.2389   XZ=             -0.1161   YZ=             -1.7549

 Normal termination of Gaussian 16 at Sat Aug 10 22:12:04 2019.
