 Gaussian 16, Revision A.03,
 Gaussian 16:  ES64L-G16RevA.03 25-Dec-2016

 --------------------------
 # td=(NStates=1) B3LYP/SVP
 --------------------------

 --
 TD
 --
 Symbolic Z-matrix:
 Charge =  0 Multiplicity = 1

                         Standard orientation:
 ---------------------------------------------------------------------
 Center     Atomic      Atomic             Coordinates (Angstroms)
 Number     Number       Type             X           Y           Z
 ---------------------------------------------------------------------
      1          6           0       -5.223447   -1.970453    0.383203
      2          6           0       -4.695559    2.733225    1.438197
      3          6           0       -9.148553    3.383050   -0.240676
      4          6           0       -9.846597   -1.305486   -1.012413
      5          7           0       -5.121305    0.408283    0.885546
      6          6           0       -4.547168   -0.713013    0.911947
      7          6           0       -3.038652   -0.601650    1.209729
      8          6           0       -2.948810    0.861846    1.839114
      9          6           0       -4.361474    1.356661    1.458990
     10          6           0       -2.695230    0.864264    3.332503
     11          6           0       -2.096067   -0.876536    0.047647
     12          6           0       -0.670339   -0.976493    0.531028
     13          6           0        0.383962   -1.224430   -0.633270
     14          8           0        0.195277   -1.610721   -1.737281
     15          8           0        1.615063   -1.007379   -0.143179
     16          7           0       -6.985426    2.746027    0.484034
     17          6           0       -5.832048    3.402475    0.952735
     18          6           0       -6.005131    4.790911    0.982135
     19          6           0       -7.301618    5.112288    0.577621
     20          6           0       -7.864941    3.711975    0.224630
     21          6           0       -5.000107    5.746110    1.689430
     22          6           0       -7.874084    6.347813    0.383966
     23          6           0       -8.901044    6.724244   -0.357156
     24          7           0       -9.119905    0.972917   -0.556711
     25          6           0       -9.769689    2.146333   -0.540454
     26          6           0      -11.189721    2.005268   -0.854185
     27          6           0      -11.341088    0.724242   -1.157333
     28          6           0      -10.056380    0.052582   -0.955546
     29          6           0      -12.161113    3.181712   -0.966540
     30          6           0      -12.508521   -0.034453   -1.795742
     31          6           0      -12.545966   -0.323138   -3.307167
     32          7           0       -7.517044   -1.246037   -0.204674
     33          6           0       -8.643876   -1.922295   -0.631001
     34          6           0       -8.242417   -3.286495   -0.736545
     35          6           0       -6.870662   -3.420470   -0.291659
     36          6           0       -6.489713   -2.058357    0.025774
     37          6           0       -9.069569   -4.439371   -1.009246
     38          6           0       -5.802218   -4.262258    0.035759
     39          8           0       -5.832969   -5.518353   -0.001007
     40          6           0       -4.533549   -3.390071    0.377356
     41          6           0       -4.048099   -3.890766    1.711694
     42          8           0       -4.301791   -3.543522    2.838654
     43          8           0       -3.137196   -4.935960    1.491227
     44          6           0       -2.794144   -5.644350    2.684158
     45          6           0        2.640410   -1.132014   -1.120012
     46          6           0        4.000116   -0.688315   -0.570916
     47          6           0        5.002407    0.003483   -1.200331
     48          6           0        4.878244    0.522670   -2.590357
     49          6           0        6.284398    0.239367   -0.333338
     50          6           0        7.450684   -0.495383   -0.963346
     51          6           0        8.616742   -0.146591   -0.251151
     52          6           0        9.952320   -0.813322   -0.709766
     53          6           0        9.947056   -2.297857   -0.790630
     54          6           0       11.221801   -0.375640    0.125352
     55          6           0       12.632577   -0.764236   -0.450662
     56          6           0       13.759485   -0.078424    0.279228
     57          6           0       15.170513   -0.265291   -0.313930
     58          6           0       15.548416   -1.691061   -0.301948
     59          6           0       16.189195    0.750837    0.413245
     60          6           0       17.526678    0.857725   -0.201987
     61          6           0       18.455433    1.791141    0.488502
     62          6           0       19.893170    1.753968    0.063897
     63          6           0       20.050083    2.381890   -1.339510
     64          6           0       20.823364    2.435781    1.007410
     65          1           0       -3.985894    3.374721    1.992771
     66          1           0       -9.981928    4.085756   -0.290103
     67          1           0      -10.740918   -1.731438   -1.513526
     68          1           0       -2.785960   -1.397240    1.956853
     69          1           0       -2.180662    1.380956    1.429932
     70          1           0       -1.640088    0.430422    3.667856
     71          1           0       -3.007319    1.963570    3.589845
     72          1           0       -3.527550    0.431037    3.906285
     73          1           0       -2.351730   -1.851834   -0.391540
     74          1           0       -2.019164   -0.173610   -0.834419
     75          1           0       -0.251100   -0.064852    1.122425
     76          1           0       -0.496561   -1.869187    0.986520
     77          1           0       -4.098755    5.610339    1.184777
     78          1           0       -5.490845    6.742723    1.637047
     79          1           0       -4.741082    5.412246    2.770905
     80          1           0       -7.426134    7.299168    0.875034
     81          1           0       -9.480861    6.147358   -1.100514
     82          1           0       -9.359571    7.697174   -0.128772
     83          1           0      -12.578782    3.521178    0.034197
     84          1           0      -11.678489    3.903986   -1.558066
     85          1           0      -13.242256    2.900096   -1.319830
     86          1           0      -12.631476   -0.824715   -1.159516
     87          1           0      -13.471544    0.520792   -1.638586
     88          1           0      -12.374243    0.675778   -3.930504
     89          1           0      -11.702151   -1.031665   -3.636335
     90          1           0      -13.458158   -0.764252   -3.589253
     91          1           0      -10.049036   -4.566248   -0.346468
     92          1           0       -9.527109   -4.442242   -2.081618
     93          1           0       -8.380731   -5.272900   -0.964705
     94          1           0       -4.087566   -3.663511   -0.419100
     95          1           0       -2.160810   -6.270836    2.247648
     96          1           0       -2.271918   -5.083327    3.349435
     97          1           0       -3.440818   -6.216686    3.340936
     98          1           0        2.987162   -2.237249   -1.284761
     99          1           0        2.291889   -0.670528   -1.914178
    100          1           0        4.232648   -1.209857    0.507587
    101          1           0        4.960437    1.556860   -2.616491
    102          1           0        5.429444   -0.221700   -3.419778
    103          1           0        3.784539    0.760448   -2.865219
    104          1           0        6.489975    1.366889   -0.450180
    105          1           0        6.174576   -0.117236    0.720116
    106          1           0        7.185168   -1.482085   -0.601509
    107          1           0        7.534770   -0.232393   -1.982957
    108          1           0        8.711669    0.926110   -0.218614
    109          1           0        8.382565   -0.498053    0.705260
    110          1           0       10.081276   -0.311163   -1.760274
    111          1           0        9.025229   -2.477234   -1.415991
    112          1           0       10.912997   -2.846526   -1.131823
    113          1           0        9.849556   -2.843802    0.148028
    114          1           0       11.292805    0.709587    0.023104
    115          1           0       11.413061   -0.760087    1.113689
    116          1           0       12.788074   -1.846805   -0.447643
    117          1           0       12.736204   -0.435074   -1.516387
    118          1           0       13.404971    0.895158    0.471810
    119          1           0       13.752026   -0.493544    1.298227
    120          1           0       15.016192    0.011417   -1.333491
    121          1           0       15.027840   -2.387777   -1.087504
    122          1           0       16.798741   -1.672620   -0.786008
    123          1           0       15.962934   -1.949122    0.537774
    124          1           0       15.708580    1.641783    0.306478
    125          1           0       16.386533    0.590089    1.521559
    126          1           0       17.860127   -0.056741   -0.329648
    127          1           0       17.569463    1.165488   -1.299394
    128          1           0       17.975437    2.839750    0.339831
    129          1           0       18.631396    1.592413    1.623768
    130          1           0       20.325554    0.692061    0.068835
    131          1           0       19.741168    3.635344   -1.243441
    132          1           0       20.987619    2.307256   -1.901780
    133          1           0       19.434584    2.055765   -2.010916
    134          1           0       20.764033    1.711966    2.014424
    135          1           0       21.700165    2.379538    0.630061
    136          1           0       20.672307    3.446206    1.264043
    137          1           0       -6.835180    1.849537    0.262029
    138          1           0       -7.485415   -0.259527   -0.263519
 ---------------------------------------------------------------------

 SCF Done:  E(RB3LYP) =  -2733.01742828     A.U. after   17 cycles

 Excitation energies and oscillator strengths:

 Excited State   1:      Singlet-A      1.9859 eV  624.34 nm  f=0.2395  <S**2>=0.000
     235 -> 237       -0.21318
     235 -> 238        0.25762
     236 -> 237        0.60133
     236 -> 238        0.16131
 This state for optimization and/or second-order correction.
 Total Energy, E(TD-HF/TD-DFT) =  -2732.94444945
 Copying the excited state density for this state as the 1-particle RhoCI density.

 The electronic state is 1-A.
 Alpha  occ. eigenvalues --  -19.17645 -19.16796 -19.13075 -19.12741 -19.11553
 Alpha  occ. eigenvalues --  -14.37547 -14.36755 -14.32712 -14.29556 -10.31885
 Alpha  occ. eigenvalues --  -10.31334 -10.27528 -10.25242 -10.24272 -10.23978
 Alpha  occ. eigenvalues --  -10.23718 -10.23580 -10.23361 -10.22734 -10.21871
 Alpha  occ. eigenvalues --  -10.21631 -10.21311 -10.21277 -10.21195 -10.20903
 Alpha  occ. eigenvalues --  -10.20868 -10.20843 -10.20786 -10.20777 -10.20522
 Alpha  occ. eigenvalues --  -10.20504 -10.20404 -10.20259 -10.20246 -10.20234
 Alpha  occ. eigenvalues --  -10.20169 -10.20130 -10.20056 -10.19994 -10.19908
 Alpha  occ. eigenvalues --  -10.19780 -10.19711 -10.19709 -10.19631 -10.19598
 Alpha  occ. eigenvalues --  -10.19523 -10.19074 -10.19037 -10.18932 -10.18887
 Alpha  occ. eigenvalues --  -10.18605 -10.18601 -10.18396 -10.18218 -10.18047
 Alpha  occ. eigenvalues --  -10.17761 -10.17687 -10.17546 -10.17398 -10.16959
 Alpha  occ. eigenvalues --  -10.16671 -10.16638 -10.16575 -10.16227  -1.10786
 Alpha  occ. eigenvalues --   -1.08233  -1.01754  -1.00443  -1.00052  -0.99696
 Alpha  occ. eigenvalues --   -0.99177  -0.97194  -0.94052  -0.85895  -0.83696
 Alpha  occ. eigenvalues --   -0.83434  -0.82527  -0.81797  -0.81510  -0.81047
 Alpha  occ. eigenvalues --   -0.80651  -0.80179  -0.79635  -0.79442  -0.78370
 Alpha  occ. eigenvalues --   -0.77818  -0.76824  -0.76440  -0.75886  -0.74948
 Alpha  occ. eigenvalues --   -0.74196  -0.73811  -0.72854  -0.72282  -0.71127
 Alpha  occ. eigenvalues --   -0.70506  -0.70159  -0.69315  -0.68448  -0.68440
 Alpha  occ. eigenvalues --   -0.68099  -0.67253  -0.66540  -0.66413  -0.65590
 Alpha  occ. eigenvalues --   -0.65002  -0.64057  -0.63532  -0.62500  -0.62244
 Alpha  occ. eigenvalues --   -0.61208  -0.59096  -0.58449  -0.58373  -0.57928
 Alpha  occ. eigenvalues --   -0.57171  -0.56980  -0.56529  -0.56405  -0.56303
 Alpha  occ. eigenvalues --   -0.55428  -0.55065  -0.55037  -0.54928  -0.53476
 Alpha  occ. eigenvalues --   -0.53197  -0.52984  -0.52287  -0.51896  -0.51294
 Alpha  occ. eigenvalues --   -0.51134  -0.50290  -0.50019  -0.48742  -0.48246
 Alpha  occ. eigenvalues --   -0.48196  -0.48078  -0.47739  -0.47588  -0.47313
 Alpha  occ. eigenvalues --   -0.47185  -0.46898  -0.46844  -0.46468  -0.46258
 Alpha  occ. eigenvalues --   -0.45786  -0.45748  -0.45599  -0.45291  -0.45002
 Alpha  occ. eigenvalues --   -0.44797  -0.44606  -0.44524  -0.44092  -0.44003
 Alpha  occ. eigenvalues --   -0.43936  -0.43685  -0.43426  -0.43306  -0.43088
 Alpha  occ. eigenvalues --   -0.42812  -0.42648  -0.42350  -0.42162  -0.41856
 Alpha  occ. eigenvalues --   -0.41577  -0.41415  -0.41043  -0.40731  -0.40458
 Alpha  occ. eigenvalues --   -0.40130  -0.39833  -0.39636  -0.39535  -0.39374
 Alpha  occ. eigenvalues --   -0.39180  -0.39147  -0.39062  -0.38916  -0.38578
 Alpha  occ. eigenvalues --   -0.38569  -0.38397  -0.38062  -0.37933  -0.37861
 Alpha  occ. eigenvalues --   -0.37694  -0.37517  -0.37126  -0.36948  -0.36848
 Alpha  occ. eigenvalues --   -0.36799  -0.36405  -0.36272  -0.36125  -0.35912
 Alpha  occ. eigenvalues --   -0.35807  -0.35611  -0.35381  -0.35167  -0.34980
 Alpha  occ. eigenvalues --   -0.34542  -0.34276  -0.34052  -0.34003  -0.33785
 Alpha  occ. eigenvalues --   -0.33374  -0.33349  -0.33086  -0.32717  -0.32510
 Alpha  occ. eigenvalues --   -0.32302  -0.32217  -0.32106  -0.31672  -0.31574
 Alpha  occ. eigenvalues --   -0.31486  -0.31029  -0.30790  -0.30524  -0.29897
 Alpha  occ. eigenvalues --   -0.29848  -0.29137  -0.28991  -0.28365  -0.28235
 Alpha  occ. eigenvalues --   -0.28025  -0.27368  -0.27038  -0.26706  -0.25669
 Alpha  occ. eigenvalues --   -0.24656  -0.24268  -0.23926  -0.23688  -0.20353
 Alpha  occ. eigenvalues --   -0.18767
 Alpha virt. eigenvalues --   -0.10838  -0.08182  -0.05221  -0.02195  -0.00458
 Alpha virt. eigenvalues --    0.00206   0.00823   0.01455   0.02309   0.03704
 Alpha virt. eigenvalues --    0.03856   0.04049   0.04194   0.04819   0.04960

 Mulliken charges:
               1
     1  C   -0.126120
     2  C   -0.072273
     3  C   -0.062332
     4  C   -0.083506
     5  N   -0.090365
     6  C   -0.052565
     7  C   -0.036373
     8  C    0.015203
     9  C   -0.037438
    10  C    0.044004
    11  C    0.066617
    12  C    0.037826
    13  C    0.126756
    14  O   -0.207535
    15  O   -0.304530
    16  N    0.046252
    17  C    0.085307
    18  C   -0.163372
    19  C    0.134805
    20  C    0.113807
    21  C    0.123628
    22  C   -0.105986
    23  C   -0.068957
    24  N   -0.222168
    25  C   -0.047131
    26  C   -0.109703
    27  C   -0.087626
    28  C   -0.008346
    29  C    0.086182
    30  C    0.094280
    31  C    0.002921
    32  N    0.021143
    33  C    0.152721
    34  C   -0.125768
    35  C    0.063268
    36  C    0.117564
    37  C    0.043177
    38  C   -0.064411
    39  O   -0.222154
    40  C    0.148227
    41  C    0.235187
    42  O   -0.209745
    43  O   -0.342902
    44  C    0.284247
    45  C    0.323857
    46  C   -0.154562
    47  C   -0.154593
    48  C    0.067511
    49  C    0.031069
    50  C    0.079166
    51  C    0.082735
    52  C   -0.034334
    53  C    0.007264
    54  C    0.045427
    55  C   -0.018297
    56  C    0.052242
    57  C   -0.041928
    58  C    0.063593
    59  C    0.093405
    60  C    0.121303
    61  C    0.011942
    62  C   -0.118587
    63  C    0.048634
    64  C    0.127954
    65  H   -0.023684
    66  H   -0.041344
    67  H   -0.008693
    68  H    0.003532
    69  H   -0.031373
    70  H    0.052598
    71  H   -0.001890
    72  H    0.011205
    73  H    0.008928
    74  H    0.017232
    75  H    0.049062
    76  H    0.000373
    77  H    0.010943
    78  H    0.026363
    79  H    0.045031
    80  H    0.019002
    81  H    0.027012
    82  H    0.023296
    83  H    0.026996
    84  H    0.031722
    85  H    0.012786
    86  H   -0.018695
    87  H   -0.017308
    88  H    0.031006
    89  H    0.016603
    90  H    0.012562
    91  H    0.050569
    92  H    0.025699
    93  H    0.037833
    94  H   -0.026881
    95  H   -0.018774
    96  H   -0.021403
    97  H    0.022822
    98  H    0.040635
    99  H   -0.035884
   100  H    0.022113
   101  H   -0.007524
   102  H    0.077698
   103  H   -0.000151
   104  H   -0.000307
   105  H    0.008977
   106  H   -0.009815
   107  H   -0.019409
   108  H   -0.027591
   109  H   -0.048387
   110  H   -0.010006
   111  H    0.016484
   112  H    0.023868
   113  H   -0.005492
   114  H   -0.013072
   115  H   -0.007182
   116  H   -0.006161
   117  H   -0.021774
   118  H   -0.038144
   119  H   -0.033633
   120  H   -0.029216
   121  H    0.056760
   122  H   -0.022875
   123  H   -0.044687
   124  H   -0.041846
   125  H    0.001287
   126  H   -0.084052
   127  H   -0.020884
   128  H    0.002309
   129  H   -0.009263
   130  H    0.001286
   131  H    0.005099
   132  H    0.002123
   133  H   -0.049453
   134  H    0.008278
   135  H   -0.051190
   136  H   -0.007938
   137  H    0.085111
   138  H    0.115165
 Sum of Mulliken charges =  -0.00000

 Dipole moment (field-independent basis, Debye):
    X=              0.6569    Y=              5.4252    Z=             -0.2420  Tot=              5.4702
 Quadrupole moment (field-independent basis, Debye-Ang):
   XX=           -347.7048   YY=           -390.7028   ZZ=           -396.1536
   XY=            -35.8981   XZ=              8.7693   YZ=             -1.1453

 Normal termination of Gaussian 16 at Wed Aug 14 01:02:08 2019.
