 Gaussian 16, Revision A.03,
 Gaussian 16:  ES64L-G16RevA.03 25-Dec-2016

 --------------------------
 # td=(NStates=1) B3LYP/SVP
 --------------------------

 --
 TD
 --
 Symbolic Z-matrix:
 Charge =  0 Multiplicity = 1

                         Standard orientation:
 ---------------------------------------------------------------------
 Center     Atomic      Atomic             Coordinates (Angstroms)
 Number     Number       Type             X           Y           Z
 ---------------------------------------------------------------------
      1          6           0       -5.116868   -1.854255    0.373360
      2          6           0       -4.615311    2.705978    1.595634
      3          6           0       -9.062332    3.393144   -0.241760
      4          6           0       -9.762230   -1.329324   -1.040815
      5          7           0       -5.203680    0.517982    0.903389
      6          6           0       -4.496239   -0.730180    0.762513
      7          6           0       -3.031468   -0.535236    1.183813
      8          6           0       -2.923785    0.844085    1.818457
      9          6           0       -4.263821    1.410488    1.385854
     10          6           0       -2.878895    0.837304    3.421233
     11          6           0       -1.990956   -0.892216    0.110991
     12          6           0       -0.589969   -1.185173    0.633630
     13          6           0        0.382061   -1.354289   -0.425831
     14          8           0        0.057970   -1.739405   -1.582739
     15          8           0        1.686813   -1.044051   -0.035652
     16          7           0       -6.943736    2.754455    0.660709
     17          6           0       -5.851845    3.326507    1.069392
     18          6           0       -5.950809    4.652347    1.130846
     19          6           0       -7.258506    4.976338    0.543485
     20          6           0       -7.937008    3.771357    0.371841
     21          6           0       -5.023137    5.802364    1.693513
     22          6           0       -7.827326    6.300248    0.360630
     23          6           0       -8.875709    6.666059   -0.442655
     24          7           0       -9.150820    1.001059   -0.526720
     25          6           0       -9.785999    2.155860   -0.591372
     26          6           0      -11.065081    2.134636   -1.173951
     27          6           0      -11.294267    0.792602   -1.418721
     28          6           0      -10.118154    0.041564   -0.918054
     29          6           0      -12.107297    3.204627   -1.177521
     30          6           0      -12.620926    0.124737   -1.797797
     31          6           0      -12.579682   -0.342695   -3.264094
     32          7           0       -7.469408   -1.165120   -0.216445
     33          6           0       -8.579723   -1.881806   -0.822092
     34          6           0       -8.256196   -3.330299   -0.843447
     35          6           0       -6.902151   -3.327064   -0.385538
     36          6           0       -6.502749   -1.997133   -0.017614
     37          6           0       -9.050086   -4.506885   -1.272782
     38          6           0       -5.778648   -4.219150   -0.177681
     39          8           0       -5.699508   -5.409295   -0.310303
     40          6           0       -4.683941   -3.418055    0.452779
     41          6           0       -4.225385   -3.904113    1.758123
     42          8           0       -4.365864   -3.464333    2.843426
     43          8           0       -3.448711   -5.084999    1.650853
     44          6           0       -2.887873   -5.540999    2.806172
     45          6           0        2.691132   -1.223162   -1.086383
     46          6           0        3.924950   -0.863809   -0.400187
     47          6           0        4.910726   -0.136818   -0.898967
     48          6           0        4.733629    0.751000   -2.271376
     49          6           0        6.194120    0.067657   -0.190499
     50          6           0        7.427122   -0.500192   -0.838578
     51          6           0        8.785648   -0.106614   -0.087148
     52          6           0       10.037436   -0.791844   -0.642301
     53          6           0        9.913063   -2.406935   -0.537810
     54          6           0       11.243636   -0.245651    0.062324
     55          6           0       12.496266   -0.787701   -0.442900
     56          6           0       13.709880    0.066429    0.248253
     57          6           0       15.156674   -0.179092   -0.409967
     58          6           0       15.538468   -1.659411   -0.520877
     59          6           0       16.224001    0.627448    0.386776
     60          6           0       17.564331    0.797451   -0.249377
     61          6           0       18.523272    1.729315    0.452461
     62          6           0       19.992466    1.783841   -0.134496
     63          6           0       20.017561    2.321481   -1.561473
     64          6           0       20.931538    2.490829    0.844173
     65          1           0       -3.984025    3.319763    1.971913
     66          1           0       -9.725281    4.374301   -0.562819
     67          1           0      -10.541748   -2.237227   -1.433546
     68          1           0       -2.834438   -1.308248    1.876675
     69          1           0       -2.088683    1.462062    1.431443
     70          1           0       -1.903970    0.576712    3.828590
     71          1           0       -2.968805    1.910623    3.753172
     72          1           0       -3.793048    0.580517    4.150556
     73          1           0       -2.299278   -1.826269   -0.412222
     74          1           0       -2.023923   -0.041900   -0.605453
     75          1           0       -0.286778   -0.331400    1.237085
     76          1           0       -0.470665   -2.120467    1.275495
     77          1           0       -4.190867    5.941384    0.974112
     78          1           0       -5.272778    6.878488    1.673803
     79          1           0       -4.661218    5.568767    2.581716
     80          1           0       -7.401906    7.033152    1.146824
     81          1           0       -9.081060    5.865516   -1.218562
     82          1           0       -9.229079    7.708366   -0.472352
     83          1           0      -11.857277    3.809458   -0.078658
     84          1           0      -11.878569    3.746103   -2.246038
     85          1           0      -13.095383    2.731770   -1.237002
     86          1           0      -12.874386   -0.686746   -0.932189
     87          1           0      -13.460748    1.004081   -1.952724
     88          1           0      -12.466781    0.574474   -3.945075
     89          1           0      -11.458865   -0.908769   -3.161750
     90          1           0      -13.335213   -0.942361   -3.663333
     91          1           0      -10.085256   -4.826978   -0.771324
     92          1           0       -9.183141   -4.287778   -2.355969
     93          1           0       -8.468882   -5.465828   -1.064447
     94          1           0       -3.923442   -3.578585   -0.435937
     95          1           0       -2.360951   -6.265453    2.501804
     96          1           0       -2.294099   -4.699076    3.349901
     97          1           0       -3.747997   -5.734714    3.517488
     98          1           0        2.585836   -2.402979   -1.500949
     99          1           0        2.395144   -0.449457   -2.007328
    100          1           0        4.125296   -1.394751    0.507446
    101          1           0        5.205076    1.691011   -2.095722
    102          1           0        5.051328    0.192769   -3.156246
    103          1           0        3.522812    0.954508   -2.589397
    104          1           0        6.329278    1.154984   -0.066017
    105          1           0        6.115305   -0.118090    0.938571
    106          1           0        7.410297   -1.648543   -1.108732
    107          1           0        7.667003    0.036488   -1.851772
    108          1           0        8.977195    0.955468   -0.177954
    109          1           0        8.654864   -0.357816    0.997470
    110          1           0       10.178984   -0.793169   -1.738512
    111          1           0        8.997959   -2.580922   -1.377168
    112          1           0       10.722914   -2.993575   -1.023119
    113          1           0        9.590888   -2.723098    0.530657
    114          1           0       11.125342    0.850612   -0.062350
    115          1           0       11.072851   -0.471222    1.244445
    116          1           0       12.819026   -1.874926   -0.312670
    117          1           0       12.749754   -0.505367   -1.500663
    118          1           0       13.649837    1.192558    0.372460
    119          1           0       13.895663   -0.419609    1.357840
    120          1           0       15.184922    0.233441   -1.480392
    121          1           0       14.994783   -2.228894   -1.255883
    122          1           0       16.638478   -1.831428   -0.833370
    123          1           0       15.502513   -2.138919    0.449120
    124          1           0       15.839122    1.615020    0.525443
    125          1           0       16.510387    0.078992    1.420827
    126          1           0       18.014343   -0.216415   -0.649490
    127          1           0       17.377577    1.299384   -1.127140
    128          1           0       18.054078    2.822863    0.335950
    129          1           0       19.007763    1.426949    1.476486
    130          1           0       20.321883    0.794288   -0.290294
    131          1           0       19.583457    3.421417   -1.604855
    132          1           0       21.180830    2.338440   -1.858790
    133          1           0       19.512574    1.970471   -2.384572
    134          1           0       20.946059    1.950757    1.856517
    135          1           0       21.967217    2.303916    0.426122
    136          1           0       20.717688    3.616101    0.950139
    137          1           0       -6.858864    1.728646    0.597721
    138          1           0       -7.582683   -0.279201   -0.019342
 ---------------------------------------------------------------------

 SCF Done:  E(RB3LYP) =  -2733.01319923     A.U. after   17 cycles

 Excitation energies and oscillator strengths:

 Excited State   1:      Singlet-A      2.0636 eV  600.83 nm  f=0.0706  <S**2>=0.000
     235 -> 237        0.56930
     236 -> 238       -0.39702
 This state for optimization and/or second-order correction.
 Total Energy, E(TD-HF/TD-DFT) =  -2732.93736479
 Copying the excited state density for this state as the 1-particle RhoCI density.

 The electronic state is 1-A.
 Alpha  occ. eigenvalues --  -19.17707 -19.15254 -19.13154 -19.12304 -19.11736
 Alpha  occ. eigenvalues --  -14.37090 -14.35732 -14.32295 -14.29981 -10.31518
 Alpha  occ. eigenvalues --  -10.31492 -10.27384 -10.26417 -10.24345 -10.23732
 Alpha  occ. eigenvalues --  -10.23495 -10.23378 -10.23373 -10.22835 -10.22347
 Alpha  occ. eigenvalues --  -10.22248 -10.22135 -10.22076 -10.21789 -10.21647
 Alpha  occ. eigenvalues --  -10.21484 -10.21386 -10.21385 -10.21371 -10.21266
 Alpha  occ. eigenvalues --  -10.21225 -10.20813 -10.20739 -10.20712 -10.20556
 Alpha  occ. eigenvalues --  -10.20456 -10.20438 -10.20400 -10.20241 -10.20231
 Alpha  occ. eigenvalues --  -10.19933 -10.19932 -10.19844 -10.19826 -10.19642
 Alpha  occ. eigenvalues --  -10.19578 -10.19550 -10.19514 -10.19441 -10.19421
 Alpha  occ. eigenvalues --  -10.19253 -10.19238 -10.19088 -10.19012 -10.19006
 Alpha  occ. eigenvalues --  -10.18687 -10.18656 -10.18358 -10.18295 -10.18033
 Alpha  occ. eigenvalues --  -10.17981 -10.17793 -10.17538 -10.17244  -1.09594
 Alpha  occ. eigenvalues --   -1.06890  -1.03544  -1.01084  -0.99736  -0.98846
 Alpha  occ. eigenvalues --   -0.98505  -0.93586  -0.92360  -0.84858  -0.82516
 Alpha  occ. eigenvalues --   -0.82311  -0.82007  -0.81702  -0.81371  -0.81045
 Alpha  occ. eigenvalues --   -0.80364  -0.79399  -0.79085  -0.78928  -0.77806
 Alpha  occ. eigenvalues --   -0.77168  -0.76203  -0.75638  -0.74777  -0.74522
 Alpha  occ. eigenvalues --   -0.73690  -0.72852  -0.72617  -0.71536  -0.71089
 Alpha  occ. eigenvalues --   -0.70076  -0.69481  -0.69133  -0.67301  -0.67177
 Alpha  occ. eigenvalues --   -0.66814  -0.66622  -0.66234  -0.65833  -0.65181
 Alpha  occ. eigenvalues --   -0.64554  -0.63987  -0.63177  -0.61775  -0.61025
 Alpha  occ. eigenvalues --   -0.60530  -0.59145  -0.58347  -0.57778  -0.56714
 Alpha  occ. eigenvalues --   -0.56541  -0.56490  -0.55682  -0.54944  -0.54859
 Alpha  occ. eigenvalues --   -0.54702  -0.54378  -0.53922  -0.53570  -0.53173
 Alpha  occ. eigenvalues --   -0.53014  -0.52484  -0.51201  -0.50829  -0.50436
 Alpha  occ. eigenvalues --   -0.49374  -0.49052  -0.48543  -0.48357  -0.47999
 Alpha  occ. eigenvalues --   -0.47705  -0.47629  -0.47359  -0.47155  -0.46924
 Alpha  occ. eigenvalues --   -0.46489  -0.46245  -0.45983  -0.45830  -0.45668
 Alpha  occ. eigenvalues --   -0.45592  -0.45254  -0.45097  -0.44920  -0.44868
 Alpha  occ. eigenvalues --   -0.44441  -0.44254  -0.44181  -0.43850  -0.43621
 Alpha  occ. eigenvalues --   -0.43526  -0.43447  -0.43239  -0.43037  -0.42760
 Alpha  occ. eigenvalues --   -0.42611  -0.42134  -0.42106  -0.41998  -0.41691
 Alpha  occ. eigenvalues --   -0.41579  -0.41343  -0.40969  -0.40822  -0.40531
 Alpha  occ. eigenvalues --   -0.40070  -0.39906  -0.39768  -0.39603  -0.39556
 Alpha  occ. eigenvalues --   -0.39286  -0.39009  -0.38437  -0.38289  -0.38204
 Alpha  occ. eigenvalues --   -0.38145  -0.37846  -0.37747  -0.37499  -0.37227
 Alpha  occ. eigenvalues --   -0.37077  -0.36712  -0.36664  -0.36059  -0.36038
 Alpha  occ. eigenvalues --   -0.35945  -0.35883  -0.35534  -0.35428  -0.35254
 Alpha  occ. eigenvalues --   -0.35190  -0.35117  -0.34869  -0.34799  -0.34543
 Alpha  occ. eigenvalues --   -0.34400  -0.34268  -0.34033  -0.33896  -0.33761
 Alpha  occ. eigenvalues --   -0.33312  -0.33185  -0.33015  -0.32698  -0.32441
 Alpha  occ. eigenvalues --   -0.32115  -0.32067  -0.31351  -0.30957  -0.30919
 Alpha  occ. eigenvalues --   -0.30628  -0.30155  -0.30032  -0.29943  -0.29757
 Alpha  occ. eigenvalues --   -0.29069  -0.28465  -0.28299  -0.28218  -0.28116
 Alpha  occ. eigenvalues --   -0.27884  -0.27616  -0.27051  -0.26798  -0.26389
 Alpha  occ. eigenvalues --   -0.25347  -0.25129  -0.23536  -0.22417  -0.20049
 Alpha  occ. eigenvalues --   -0.19402
 Alpha virt. eigenvalues --   -0.10759  -0.08581  -0.04046  -0.01735  -0.01226
 Alpha virt. eigenvalues --   -0.00621  -0.00081   0.01015   0.01557   0.03176
 Alpha virt. eigenvalues --    0.03915   0.04087   0.04155   0.04267   0.04434

 Mulliken charges:
               1
     1  C    0.008141
     2  C   -0.005925
     3  C   -0.083014
     4  C   -0.091308
     5  N   -0.278044
     6  C   -0.058559
     7  C    0.079313
     8  C    0.009242
     9  C    0.046741
    10  C    0.018355
    11  C    0.023681
    12  C    0.073505
    13  C    0.183751
    14  O   -0.280407
    15  O   -0.343200
    16  N   -0.041923
    17  C    0.044455
    18  C   -0.139771
    19  C    0.011584
    20  C    0.109985
    21  C    0.148946
    22  C   -0.076562
    23  C   -0.032491
    24  N   -0.231948
    25  C    0.019815
    26  C   -0.133556
    27  C   -0.083810
    28  C    0.066823
    29  C    0.019697
    30  C   -0.020830
    31  C   -0.025099
    32  N    0.087839
    33  C    0.037395
    34  C   -0.077924
    35  C   -0.033646
    36  C    0.055717
    37  C    0.004594
    38  C    0.010175
    39  O   -0.151062
    40  C   -0.048714
    41  C    0.239619
    42  O   -0.176598
    43  O   -0.327787
    44  C    0.240082
    45  C    0.178636
    46  C   -0.047271
    47  C   -0.101058
    48  C    0.005167
    49  C    0.085097
    50  C   -0.035813
    51  C    0.047860
    52  C   -0.102073
    53  C   -0.068659
    54  C    0.070895
    55  C    0.036278
    56  C   -0.057928
    57  C   -0.089905
    58  C    0.029276
    59  C    0.041489
    60  C    0.052736
    61  C   -0.013472
    62  C   -0.074985
    63  C   -0.011227
    64  C    0.007013
    65  H   -0.137317
    66  H    0.017576
    67  H    0.041217
    68  H   -0.027066
    69  H    0.006719
    70  H    0.016613
    71  H   -0.007588
    72  H    0.052978
    73  H    0.020151
    74  H    0.008635
    75  H    0.012849
    76  H    0.053841
    77  H    0.015141
    78  H    0.012697
    79  H   -0.001404
    80  H    0.019638
    81  H    0.053514
    82  H    0.035924
    83  H    0.068414
    84  H    0.048053
    85  H    0.023717
    86  H    0.049122
    87  H    0.012447
    88  H    0.026384
    89  H    0.022698
    90  H    0.011754
    91  H    0.059063
    92  H    0.054031
    93  H    0.060053
    94  H    0.089765
    95  H   -0.026014
    96  H    0.008899
    97  H    0.017173
    98  H    0.065003
    99  H    0.049060
   100  H   -0.020876
   101  H    0.022530
   102  H    0.038892
   103  H    0.030815
   104  H   -0.012184
   105  H   -0.001236
   106  H    0.030452
   107  H    0.007518
   108  H   -0.008329
   109  H   -0.000431
   110  H   -0.011718
   111  H    0.018048
   112  H    0.026734
   113  H    0.031478
   114  H   -0.005756
   115  H    0.007864
   116  H    0.032758
   117  H    0.001500
   118  H    0.013389
   119  H    0.007982
   120  H   -0.008117
   121  H    0.007802
   122  H    0.003503
   123  H   -0.001884
   124  H   -0.022486
   125  H    0.006139
   126  H    0.001707
   127  H   -0.047374
   128  H    0.011967
   129  H    0.006422
   130  H   -0.016883
   131  H   -0.004841
   132  H    0.010434
   133  H   -0.001147
   134  H    0.024431
   135  H    0.011478
   136  H    0.031718
   137  H    0.147578
   138  H    0.047059
 Sum of Mulliken charges =  -0.00000

 Dipole moment (field-independent basis, Debye):
    X=              2.2277    Y=              4.4860    Z=              0.1991  Tot=              5.0126
 Quadrupole moment (field-independent basis, Debye-Ang):
   XX=           -351.9223   YY=           -386.1479   ZZ=           -396.7848
   XY=            -18.4432   XZ=              3.2989   YZ=              1.4654

 Normal termination of Gaussian 16 at Fri Aug 16 07:47:55 2019.
