 Gaussian 16, Revision A.03,
 Gaussian 16:  ES64L-G16RevA.03 25-Dec-2016

 --------------------------
 # td=(NStates=1) B3LYP/SVP
 --------------------------

 --
 TD
 --
 Symbolic Z-matrix:
 Charge =  0 Multiplicity = 1

                         Standard orientation:
 ---------------------------------------------------------------------
 Center     Atomic      Atomic             Coordinates (Angstroms)
 Number     Number       Type             X           Y           Z
 ---------------------------------------------------------------------
      1          6           0       -5.132868   -1.977512    0.331042
      2          6           0       -4.629914    2.649320    1.445980
      3          6           0       -9.141269    3.403277   -0.186551
      4          6           0       -9.779052   -1.259479   -0.995872
      5          7           0       -5.095825    0.378235    0.770712
      6          6           0       -4.499217   -0.787272    0.822210
      7          6           0       -3.076732   -0.800288    1.350684
      8          6           0       -3.084820    0.735238    1.941032
      9          6           0       -4.390928    1.276131    1.397017
     10          6           0       -2.980344    0.577369    3.419095
     11          6           0       -2.111918   -0.865622    0.169236
     12          6           0       -0.605734   -0.849830    0.544535
     13          6           0        0.389958   -1.157786   -0.542371
     14          8           0        0.089610   -1.539550   -1.660530
     15          8           0        1.640281   -0.907719   -0.257140
     16          7           0       -6.993626    2.720017    0.574358
     17          6           0       -5.854279    3.349174    1.039748
     18          6           0       -5.932206    4.736602    1.053514
     19          6           0       -7.196460    5.017287    0.546880
     20          6           0       -7.851803    3.745124    0.282890
     21          6           0       -5.038470    5.762348    1.604772
     22          6           0       -7.777891    6.398769    0.514605
     23          6           0       -8.728471    6.899146   -0.324165
     24          7           0       -9.106102    1.078242   -0.459010
     25          6           0       -9.735931    2.172849   -0.581627
     26          6           0      -11.226468    2.086939   -1.074425
     27          6           0      -11.393888    0.691662   -1.151399
     28          6           0      -10.132411    0.083968   -0.877666
     29          6           0      -12.058093    3.265551   -1.305412
     30          6           0      -12.675481   -0.018539   -1.653258
     31          6           0      -12.757983   -0.252432   -3.157626
     32          7           0       -7.506320   -1.156536   -0.409532
     33          6           0       -8.585269   -1.885079   -0.651122
     34          6           0       -8.326512   -3.304374   -0.664921
     35          6           0       -6.962076   -3.346848   -0.355023
     36          6           0       -6.472431   -2.006867   -0.102153
     37          6           0       -9.237176   -4.362402   -1.176121
     38          6           0       -5.845320   -4.315763   -0.070469
     39          8           0       -5.892088   -5.516905   -0.181363
     40          6           0       -4.689891   -3.439950    0.365302
     41          6           0       -4.017473   -3.845318    1.650659
     42          8           0       -4.198472   -3.379432    2.781917
     43          8           0       -3.249316   -4.974974    1.573239
     44          6           0       -2.794396   -5.587711    2.846254
     45          6           0        2.724270   -1.139410   -1.089694
     46          6           0        3.978699   -0.750546   -0.514473
     47          6           0        4.976718   -0.137971   -1.082497
     48          6           0        4.923868    0.510133   -2.441211
     49          6           0        6.357444    0.208353   -0.294510
     50          6           0        7.493543   -0.522822   -0.844015
     51          6           0        8.756740   -0.294592   -0.020798
     52          6           0       10.090313   -1.001839   -0.628748
     53          6           0        9.931921   -2.526127   -0.635403
     54          6           0       11.338724   -0.432566    0.212647
     55          6           0       12.624545   -0.823610   -0.405503
     56          6           0       13.881458   -0.182050    0.220121
     57          6           0       15.230555   -0.089351   -0.530389
     58          6           0       15.683993   -1.513233   -0.933813
     59          6           0       16.152991    0.716402    0.308412
     60          6           0       17.650158    0.920319   -0.295426
     61          6           0       18.503983    1.673056    0.640962
     62          6           0       19.890222    1.897217   -0.011731
     63          6           0       19.923283    2.590826   -1.303875
     64          6           0       20.842190    2.429673    1.064287
     65          1           0       -3.758043    3.245902    1.645495
     66          1           0       -9.835818    4.165364   -0.204018
     67          1           0      -10.615894   -1.813590   -1.377455
     68          1           0       -2.922388   -1.406896    2.070669
     69          1           0       -2.162676    1.390079    1.593214
     70          1           0       -2.063032    0.150070    3.770888
     71          1           0       -3.041663    1.506149    3.992883
     72          1           0       -3.893997    0.045450    3.816295
     73          1           0       -2.269509   -1.772638   -0.384954
     74          1           0       -2.409899    0.023891   -0.479783
     75          1           0       -0.265289    0.010523    0.923410
     76          1           0       -0.332003   -1.552053    1.284468
     77          1           0       -4.277432    6.129385    0.588440
     78          1           0       -5.352783    6.845560    2.031135
     79          1           0       -4.253778    5.242090    2.394117
     80          1           0       -7.397489    6.962421    1.126554
     81          1           0       -9.315580    6.268920   -1.097802
     82          1           0       -9.244673    7.957310   -0.058057
     83          1           0      -11.906974    3.950003   -0.476044
     84          1           0      -11.683221    3.754797   -2.314987
     85          1           0      -13.073149    2.911008   -1.331238
     86          1           0      -12.600046   -1.009292   -1.000917
     87          1           0      -13.555178    0.465869   -1.343317
     88          1           0      -12.793899    0.611245   -3.756757
     89          1           0      -11.926288   -0.820924   -3.592483
     90          1           0      -13.915524   -0.777534   -3.398920
     91          1           0      -10.174233   -4.506966   -0.632525
     92          1           0       -9.631275   -4.241242   -2.348103
     93          1           0       -8.576006   -5.315069   -1.266887
     94          1           0       -3.748450   -3.714530   -0.255828
     95          1           0       -2.184425   -6.580875    2.578168
     96          1           0       -2.244244   -4.787298    3.352175
     97          1           0       -3.682816   -5.897780    3.315206
     98          1           0        2.601663   -2.127075   -1.172404
     99          1           0        2.245259   -0.610910   -2.187310
    100          1           0        4.150249   -1.155818    0.673786
    101          1           0        5.173522    1.555444   -2.250610
    102          1           0        5.478536    0.054690   -3.244969
    103          1           0        3.928667    0.459758   -2.769827
    104          1           0        6.339113    1.307162   -0.154062
    105          1           0        6.073197   -0.148995    0.672712
    106          1           0        7.407186   -1.600253   -0.667234
    107          1           0        7.651434   -0.421077   -1.790204
    108          1           0        8.938919    0.898936   -0.132706
    109          1           0        8.523370   -0.408521    1.031682
    110          1           0       10.150038   -0.674677   -1.513562
    111          1           0        8.872015   -2.831084   -1.076884
    112          1           0       10.774827   -3.057726   -1.403222
    113          1           0        9.754327   -2.931465    0.303606
    114          1           0       11.314731    0.652449    0.337897
    115          1           0       11.463796   -0.788900    1.234456
    116          1           0       12.820859   -1.972082   -0.592606
    117          1           0       12.717420   -0.623996   -1.545067
    118          1           0       13.627266    0.862165    0.359357
    119          1           0       13.928313   -0.596625    1.238978
    120          1           0       14.922969    0.477705   -1.452988
    121          1           0       15.122783   -2.001333   -1.829581
    122          1           0       16.889029   -1.433092   -1.232650
    123          1           0       15.759311   -2.362746   -0.101231
    124          1           0       15.647923    1.688412    0.495777
    125          1           0       16.162771    0.253217    1.353476
    126          1           0       18.002382    0.024962   -0.287076
    127          1           0       17.418394    1.336506   -1.313018
    128          1           0       18.044896    2.645167    0.928536
    129          1           0       18.517677    0.989344    1.480168
    130          1           0       20.175115    0.775111   -0.275959
    131          1           0       19.082203    3.625080   -1.355437
    132          1           0       20.864210    3.054505   -1.621786
    133          1           0       19.483483    2.136052   -2.149370
    134          1           0       20.807941    1.728033    2.020218
    135          1           0       21.848249    2.321594    0.932916
    136          1           0       20.556887    3.476627    1.437354
    137          1           0       -6.794566    1.742159    0.280078
    138          1           0       -7.280086   -0.266378   -0.426682
 ---------------------------------------------------------------------

 SCF Done:  E(RB3LYP) =  -2733.00761175     A.U. after   17 cycles

 Excitation energies and oscillator strengths:

 Excited State   1:      Singlet-A      1.9679 eV  630.04 nm  f=0.2012  <S**2>=0.000
     235 -> 237       -0.21031
     235 -> 238        0.24826
     236 -> 237        0.61279
     236 -> 238        0.13217
 This state for optimization and/or second-order correction.
 Total Energy, E(TD-HF/TD-DFT) =  -2732.93529406
 Copying the excited state density for this state as the 1-particle RhoCI density.

 The electronic state is 1-A.
 Alpha  occ. eigenvalues --  -19.16977 -19.16917 -19.12329 -19.11822 -19.10724
 Alpha  occ. eigenvalues --  -14.36951 -14.36873 -14.32474 -14.29684 -10.31839
 Alpha  occ. eigenvalues --  -10.30788 -10.28105 -10.25213 -10.25105 -10.24140
 Alpha  occ. eigenvalues --  -10.23996 -10.23690 -10.23182 -10.23139 -10.23049
 Alpha  occ. eigenvalues --  -10.22622 -10.22352 -10.21416 -10.21321 -10.21214
 Alpha  occ. eigenvalues --  -10.20980 -10.20951 -10.20943 -10.20800 -10.20462
 Alpha  occ. eigenvalues --  -10.20428 -10.20288 -10.20248 -10.20062 -10.20011
 Alpha  occ. eigenvalues --  -10.19854 -10.19828 -10.19821 -10.19744 -10.19705
 Alpha  occ. eigenvalues --  -10.19658 -10.19569 -10.19397 -10.19230 -10.19207
 Alpha  occ. eigenvalues --  -10.19169 -10.19158 -10.19142 -10.19102 -10.18986
 Alpha  occ. eigenvalues --  -10.18952 -10.18917 -10.18842 -10.18631 -10.18481
 Alpha  occ. eigenvalues --  -10.18304 -10.18258 -10.18131 -10.18105 -10.17999
 Alpha  occ. eigenvalues --  -10.17669 -10.17339 -10.17021 -10.16889  -1.11063
 Alpha  occ. eigenvalues --   -1.07805  -1.03118  -1.00212  -0.99594  -0.98583
 Alpha  occ. eigenvalues --   -0.98099  -0.96768  -0.92834  -0.85264  -0.83156
 Alpha  occ. eigenvalues --   -0.82610  -0.82282  -0.81646  -0.81282  -0.81079
 Alpha  occ. eigenvalues --   -0.80151  -0.80134  -0.79534  -0.78627  -0.78544
 Alpha  occ. eigenvalues --   -0.77450  -0.76742  -0.75876  -0.75240  -0.74912
 Alpha  occ. eigenvalues --   -0.74213  -0.73392  -0.72613  -0.72354  -0.70647
 Alpha  occ. eigenvalues --   -0.70462  -0.69631  -0.69178  -0.68234  -0.67916
 Alpha  occ. eigenvalues --   -0.67690  -0.66450  -0.66155  -0.66063  -0.65840
 Alpha  occ. eigenvalues --   -0.63396  -0.62841  -0.62386  -0.62231  -0.61866
 Alpha  occ. eigenvalues --   -0.61725  -0.59948  -0.59457  -0.58634  -0.58058
 Alpha  occ. eigenvalues --   -0.57647  -0.56668  -0.56569  -0.56125  -0.56069
 Alpha  occ. eigenvalues --   -0.55303  -0.54901  -0.54671  -0.54204  -0.53305
 Alpha  occ. eigenvalues --   -0.52635  -0.51913  -0.51675  -0.50974  -0.50333
 Alpha  occ. eigenvalues --   -0.49819  -0.49463  -0.49184  -0.48990  -0.48692
 Alpha  occ. eigenvalues --   -0.48572  -0.47603  -0.47236  -0.46856  -0.46749
 Alpha  occ. eigenvalues --   -0.46447  -0.46319  -0.46047  -0.45824  -0.45557
 Alpha  occ. eigenvalues --   -0.45490  -0.45185  -0.45019  -0.44960  -0.44928
 Alpha  occ. eigenvalues --   -0.44548  -0.44152  -0.44066  -0.44019  -0.43923
 Alpha  occ. eigenvalues --   -0.43633  -0.43305  -0.43192  -0.43144  -0.43028
 Alpha  occ. eigenvalues --   -0.42669  -0.42428  -0.42131  -0.41832  -0.41698
 Alpha  occ. eigenvalues --   -0.41526  -0.41467  -0.41096  -0.40699  -0.40548
 Alpha  occ. eigenvalues --   -0.40485  -0.40078  -0.39875  -0.39550  -0.39449
 Alpha  occ. eigenvalues --   -0.39427  -0.38997  -0.38657  -0.38565  -0.38454
 Alpha  occ. eigenvalues --   -0.38427  -0.38206  -0.38067  -0.37795  -0.37494
 Alpha  occ. eigenvalues --   -0.37412  -0.37285  -0.37251  -0.37030  -0.36827
 Alpha  occ. eigenvalues --   -0.36722  -0.36557  -0.36361  -0.36083  -0.35603
 Alpha  occ. eigenvalues --   -0.35585  -0.35334  -0.35237  -0.35212  -0.34936
 Alpha  occ. eigenvalues --   -0.34865  -0.34542  -0.34339  -0.34124  -0.34096
 Alpha  occ. eigenvalues --   -0.33931  -0.33504  -0.33437  -0.33083  -0.31921
 Alpha  occ. eigenvalues --   -0.31762  -0.31554  -0.31512  -0.30869  -0.30646
 Alpha  occ. eigenvalues --   -0.30545  -0.30426  -0.30022  -0.29826  -0.29523
 Alpha  occ. eigenvalues --   -0.29447  -0.28812  -0.28052  -0.27932  -0.27816
 Alpha  occ. eigenvalues --   -0.27074  -0.26671  -0.26656  -0.26523  -0.25989
 Alpha  occ. eigenvalues --   -0.25966  -0.25216  -0.24462  -0.22858  -0.19683
 Alpha  occ. eigenvalues --   -0.18189
 Alpha virt. eigenvalues --   -0.10175  -0.07504  -0.04516  -0.02165  -0.00998
 Alpha virt. eigenvalues --    0.00038   0.01007   0.01721   0.02350   0.03389
 Alpha virt. eigenvalues --    0.03564   0.03843   0.03851   0.04408   0.04615

 Mulliken charges:
               1
     1  C    0.051929
     2  C   -0.089872
     3  C   -0.049208
     4  C   -0.107055
     5  N   -0.104499
     6  C   -0.123702
     7  C    0.082097
     8  C   -0.128174
     9  C    0.030838
    10  C    0.087492
    11  C    0.082793
    12  C    0.160891
    13  C    0.103999
    14  O   -0.257930
    15  O   -0.280479
    16  N   -0.055451
    17  C    0.057527
    18  C   -0.047568
    19  C    0.042839
    20  C    0.106000
    21  C   -0.086487
    22  C    0.090791
    23  C   -0.075885
    24  N   -0.215704
    25  C    0.005816
    26  C   -0.160555
    27  C   -0.099350
    28  C    0.063182
    29  C    0.115655
    30  C    0.071318
    31  C    0.001237
    32  N    0.103527
    33  C    0.125773
    34  C   -0.115008
    35  C   -0.067625
    36  C    0.018691
    37  C    0.015620
    38  C    0.126574
    39  O   -0.146734
    40  C   -0.032991
    41  C    0.167712
    42  O   -0.261927
    43  O   -0.340851
    44  C    0.190018
    45  C    0.261168
    46  C   -0.064807
    47  C   -0.240160
    48  C    0.161009
    49  C    0.098755
    50  C    0.151242
    51  C   -0.068499
    52  C    0.075685
    53  C   -0.007775
    54  C    0.094014
    55  C   -0.023124
    56  C    0.005713
    57  C   -0.010506
    58  C   -0.067618
    59  C   -0.032085
    60  C    0.112198
    61  C    0.059118
    62  C   -0.096941
    63  C    0.014298
    64  C    0.064513
    65  H   -0.027116
    66  H   -0.084180
    67  H   -0.042281
    68  H   -0.073918
    69  H    0.019077
    70  H    0.007896
    71  H   -0.014073
    72  H    0.025799
    73  H    0.004822
    74  H    0.021047
    75  H   -0.028447
    76  H   -0.002077
    77  H    0.048653
    78  H    0.074231
    79  H    0.055632
    80  H   -0.128599
    81  H    0.046108
    82  H    0.046231
    83  H    0.033726
    84  H    0.050884
    85  H    0.006338
    86  H    0.019158
    87  H   -0.011113
    88  H    0.001029
    89  H    0.019188
    90  H    0.022469
    91  H    0.033016
    92  H    0.042791
    93  H    0.058920
    94  H    0.071255
    95  H    0.057851
    96  H    0.044367
    97  H    0.029897
    98  H   -0.036103
    99  H    0.060067
   100  H    0.025042
   101  H    0.013087
   102  H    0.023984
   103  H   -0.034573
   104  H    0.011136
   105  H   -0.036881
   106  H   -0.011574
   107  H   -0.062009
   108  H   -0.009280
   109  H   -0.006092
   110  H   -0.077326
   111  H    0.010584
   112  H    0.045122
   113  H   -0.004263
   114  H   -0.012433
   115  H   -0.013205
   116  H   -0.000852
   117  H   -0.030420
   118  H   -0.027175
   119  H   -0.013582
   120  H   -0.005689
   121  H    0.034035
   122  H    0.015803
   123  H    0.024503
   124  H   -0.010325
   125  H   -0.009874
   126  H   -0.055386
   127  H    0.008197
   128  H   -0.006744
   129  H   -0.014491
   130  H   -0.002257
   131  H   -0.016299
   132  H    0.017095
   133  H    0.006583
   134  H   -0.004967
   135  H   -0.019148
   136  H    0.021872
   137  H    0.169742
   138  H    0.064055
 Sum of Mulliken charges =  -0.00000

 Dipole moment (field-independent basis, Debye):
    X=              2.2832    Y=              4.2464    Z=              0.9440  Tot=              4.9129
 Quadrupole moment (field-independent basis, Debye-Ang):
   XX=           -348.0842   YY=           -385.1690   ZZ=           -394.1937
   XY=            -33.0103   XZ=             10.5377   YZ=             -4.1285

 Normal termination of Gaussian 16 at Tue Aug 20 12:28:38 2019.
