 Gaussian 16, Revision A.03,
 Gaussian 16:  ES64L-G16RevA.03 25-Dec-2016

 --------------------------
 # td=(NStates=1) B3LYP/SVP
 --------------------------

 --
 TD
 --
 Symbolic Z-matrix:
 Charge =  0 Multiplicity = 1

                         Standard orientation:
 ---------------------------------------------------------------------
 Center     Atomic      Atomic             Coordinates (Angstroms)
 Number     Number       Type             X           Y           Z
 ---------------------------------------------------------------------
      1          6           0       -5.221596   -1.958678    0.504799
      2          6           0       -4.646682    2.759088    1.433821
      3          6           0       -9.217815    3.506850   -0.310428
      4          6           0       -9.880126   -1.421618   -0.779789
      5          7           0       -5.233824    0.435709    0.766848
      6          6           0       -4.575190   -0.770924    0.901896
      7          6           0       -3.052991   -0.635553    1.301653
      8          6           0       -3.079656    0.890354    1.794956
      9          6           0       -4.420346    1.405927    1.353067
     10          6           0       -2.918588    0.857890    3.372779
     11          6           0       -2.071865   -0.877154    0.167834
     12          6           0       -0.692445   -0.804350    0.506379
     13          6           0        0.375847   -1.209909   -0.489380
     14          8           0        0.091185   -2.022723   -1.415638
     15          8           0        1.593304   -0.820595   -0.204431
     16          7           0       -6.932700    2.834390    0.389076
     17          6           0       -5.809728    3.482941    1.018332
     18          6           0       -6.093701    4.780921    1.031869
     19          6           0       -7.279379    5.097113    0.510818
     20          6           0       -7.937896    3.791846    0.197224
     21          6           0       -5.099812    5.841812    1.453984
     22          6           0       -7.848261    6.446143    0.392891
     23          6           0       -8.985870    6.813453   -0.306686
     24          7           0       -9.139965    0.953257   -0.327832
     25          6           0       -9.785453    2.210184   -0.557621
     26          6           0      -11.243475    2.014764   -1.139340
     27          6           0      -11.320010    0.749726   -1.322045
     28          6           0      -10.030791   -0.038226   -0.813955
     29          6           0      -12.084717    3.128398   -1.275846
     30          6           0      -12.587956   -0.088733   -1.746444
     31          6           0      -12.621559   -0.447733   -3.260215
     32          7           0       -7.570823   -1.229106   -0.206378
     33          6           0       -8.631330   -1.951042   -0.465814
     34          6           0       -8.265384   -3.319342   -0.623396
     35          6           0       -6.965089   -3.466815   -0.087413
     36          6           0       -6.530635   -2.078229    0.160753
     37          6           0       -9.091529   -4.536793   -1.003617
     38          6           0       -5.909074   -4.334309    0.236907
     39          8           0       -5.846748   -5.605933    0.065830
     40          6           0       -4.560689   -3.351978    0.429294
     41          6           0       -3.877052   -3.807393    1.771184
     42          8           0       -4.148993   -3.466008    2.852283
     43          8           0       -3.054532   -4.785757    1.412859
     44          6           0       -2.434681   -5.406946    2.469027
     45          6           0        2.539507   -1.221147   -1.194380
     46          6           0        3.789291   -0.625063   -0.606524
     47          6           0        4.971681   -0.116236   -1.335351
     48          6           0        4.880341    0.258364   -2.828921
     49          6           0        6.281212    0.225199   -0.531492
     50          6           0        7.448445   -0.547475   -1.082981
     51          6           0        8.714682   -0.214890   -0.244231
     52          6           0        9.998133   -0.901272   -0.714038
     53          6           0        9.995671   -2.431310   -0.523613
     54          6           0       11.222155   -0.269907    0.155304
     55          6           0       12.573049   -0.476663   -0.669276
     56          6           0       13.833177   -0.108723    0.228381
     57          6           0       15.292780   -0.215442   -0.361113
     58          6           0       15.726463   -1.684854   -0.435651
     59          6           0       16.260861    0.587445    0.370140
     60          6           0       17.624306    0.764892   -0.207768
     61          6           0       18.562495    1.679961    0.671597
     62          6           0       19.959688    1.793362    0.121064
     63          6           0       20.121504    2.544574   -1.252452
     64          6           0       20.681250    2.740215    1.080771
     65          1           0       -3.972940    3.382365    2.088457
     66          1           0       -9.968982    4.239827   -0.327895
     67          1           0      -10.620088   -2.116413   -1.205815
     68          1           0       -2.771473   -1.360975    2.169075
     69          1           0       -2.200980    1.295008    1.427445
     70          1           0       -1.836342    0.352705    3.626512
     71          1           0       -3.130748    1.915266    3.790973
     72          1           0       -3.691464    0.444456    3.849911
     73          1           0       -2.388084   -1.851622   -0.320898
     74          1           0       -2.118116   -0.292312   -0.591408
     75          1           0       -0.533550    0.189512    0.830172
     76          1           0       -0.489864   -1.401542    1.567981
     77          1           0       -4.397703    6.011646    0.663501
     78          1           0       -5.549659    6.819915    1.567058
     79          1           0       -4.585022    5.622857    2.466729
     80          1           0       -7.390525    6.933502    1.056990
     81          1           0       -9.470063    6.027467   -0.969046
     82          1           0       -9.477844    7.852231   -0.249148
     83          1           0      -12.002339    3.843227   -0.326844
     84          1           0      -11.972408    3.595353   -2.090005
     85          1           0      -13.262202    3.046527   -1.341010
     86          1           0      -12.737494   -1.041005   -1.133898
     87          1           0      -13.554668    0.398594   -1.550285
     88          1           0      -12.662708    0.415797   -4.072690
     89          1           0      -11.512893   -0.898365   -3.465429
     90          1           0      -13.500466   -1.166137   -3.287714
     91          1           0      -10.393837   -4.607610   -0.729763
     92          1           0       -8.911791   -4.572980   -2.248923
     93          1           0       -8.702090   -5.636033   -0.742796
     94          1           0       -3.648296   -3.333044   -0.355039
     95          1           0       -1.622539   -6.110927    2.043568
     96          1           0       -2.086585   -4.723200    3.158538
     97          1           0       -3.221655   -6.049272    2.994396
     98          1           0        2.489200   -2.179176   -1.507196
     99          1           0        2.314491   -0.538223   -2.228884
    100          1           0        4.061664   -0.911221    0.346823
    101          1           0        5.443446    1.121548   -3.029033
    102          1           0        5.660011   -0.404540   -3.320919
    103          1           0        3.889347    0.023352   -3.367938
    104          1           0        6.431943    1.272672   -0.354096
    105          1           0        6.022235   -0.254154    0.619616
    106          1           0        7.397389   -1.746311   -1.147163
    107          1           0        7.478495   -0.264890   -2.026579
    108          1           0        8.893561    0.876924   -0.204617
    109          1           0        8.544198   -0.670460    0.798908
    110          1           0       10.233626   -0.670668   -1.840228
    111          1           0        9.356657   -3.254859   -1.103507
    112          1           0       11.023657   -2.897612   -0.627489
    113          1           0        9.949845   -2.701340    0.622679
    114          1           0       11.088553    0.801247    0.206978
    115          1           0       11.342964   -0.947366    1.020408
    116          1           0       12.620005   -1.562040   -1.478885
    117          1           0       12.508019    0.157314   -1.583886
    118          1           0       13.648830    1.016858    0.339221
    119          1           0       13.801105   -0.800024    1.189365
    120          1           0       15.216049    0.187970   -1.372326
    121          1           0       15.024836   -2.303675   -1.083324
    122          1           0       16.652507   -1.898364   -1.133544
    123          1           0       15.923380   -2.065946    0.611340
    124          1           0       16.005259    1.674219    0.585986
    125          1           0       16.283410    0.205146    1.384869
    126          1           0       18.285623   -0.275130   -0.334404
    127          1           0       17.426282    0.978709   -1.341947
    128          1           0       18.343322    2.706438    0.882433
    129          1           0       18.512980    1.304842    1.726919
    130          1           0       20.312801    0.807497    0.074634
    131          1           0       19.796542    3.592649   -1.155842
    132          1           0       21.121298    2.594086   -1.641307
    133          1           0       19.522225    2.009750   -2.067314
    134          1           0       20.777385    2.123662    2.202626
    135          1           0       21.655614    2.728106    0.749843
    136          1           0       20.472392    3.708127    1.161980
    137          1           0       -7.028796    1.823441    0.165760
    138          1           0       -7.536486   -0.261278    0.126454
 ---------------------------------------------------------------------

 SCF Done:  E(RB3LYP) =  -2732.94347245     A.U. after   17 cycles

 Excitation energies and oscillator strengths:

 Excited State   1:      Singlet-A      1.8999 eV  652.59 nm  f=0.2722  <S**2>=0.000
     235 -> 237       -0.12814
     235 -> 238       -0.25205
     236 -> 237        0.64733
 This state for optimization and/or second-order correction.
 Total Energy, E(TD-HF/TD-DFT) =  -2732.87365278
 Copying the excited state density for this state as the 1-particle RhoCI density.

 The electronic state is 1-A.
 Alpha  occ. eigenvalues --  -19.19535 -19.17578 -19.12763 -19.11894 -19.11882
 Alpha  occ. eigenvalues --  -14.37292 -14.36532 -14.33467 -14.31861 -10.31966
 Alpha  occ. eigenvalues --  -10.30954 -10.28122 -10.25773 -10.24167 -10.23822
 Alpha  occ. eigenvalues --  -10.23639 -10.23623 -10.23454 -10.23301 -10.23236
 Alpha  occ. eigenvalues --  -10.23224 -10.23039 -10.23036 -10.22247 -10.22240
 Alpha  occ. eigenvalues --  -10.22142 -10.21199 -10.21111 -10.20954 -10.20834
 Alpha  occ. eigenvalues --  -10.20764 -10.20618 -10.20385 -10.20217 -10.20198
 Alpha  occ. eigenvalues --  -10.20186 -10.20157 -10.20151 -10.20045 -10.20002
 Alpha  occ. eigenvalues --  -10.19986 -10.19917 -10.19892 -10.19799 -10.19758
 Alpha  occ. eigenvalues --  -10.19753 -10.19609 -10.19606 -10.19556 -10.19255
 Alpha  occ. eigenvalues --  -10.19191 -10.19175 -10.18985 -10.18946 -10.18917
 Alpha  occ. eigenvalues --  -10.18878 -10.18740 -10.18636 -10.18419 -10.18147
 Alpha  occ. eigenvalues --  -10.17911 -10.17863 -10.17443 -10.17340  -1.11807
 Alpha  occ. eigenvalues --   -1.11528  -1.03308  -1.00114  -0.98698  -0.98263
 Alpha  occ. eigenvalues --   -0.96503  -0.93146  -0.90577  -0.84713  -0.82978
 Alpha  occ. eigenvalues --   -0.82606  -0.82189  -0.81724  -0.80900  -0.80473
 Alpha  occ. eigenvalues --   -0.80429  -0.79865  -0.79631  -0.78666  -0.77729
 Alpha  occ. eigenvalues --   -0.76868  -0.75741  -0.75586  -0.74733  -0.74381
 Alpha  occ. eigenvalues --   -0.73845  -0.73346  -0.71983  -0.71376  -0.70481
 Alpha  occ. eigenvalues --   -0.69515  -0.69431  -0.67951  -0.67830  -0.67461
 Alpha  occ. eigenvalues --   -0.67247  -0.66925  -0.66492  -0.65978  -0.65269
 Alpha  occ. eigenvalues --   -0.63886  -0.63468  -0.62717  -0.61705  -0.60817
 Alpha  occ. eigenvalues --   -0.59708  -0.59194  -0.58497  -0.58304  -0.57719
 Alpha  occ. eigenvalues --   -0.57495  -0.56678  -0.56366  -0.56134  -0.55867
 Alpha  occ. eigenvalues --   -0.55450  -0.55037  -0.54681  -0.54506  -0.53676
 Alpha  occ. eigenvalues --   -0.52841  -0.51982  -0.51539  -0.50980  -0.50389
 Alpha  occ. eigenvalues --   -0.50126  -0.49757  -0.49404  -0.48974  -0.48271
 Alpha  occ. eigenvalues --   -0.48208  -0.47833  -0.47762  -0.47730  -0.47362
 Alpha  occ. eigenvalues --   -0.47022  -0.46623  -0.46337  -0.46168  -0.45750
 Alpha  occ. eigenvalues --   -0.45575  -0.45415  -0.44897  -0.44664  -0.44582
 Alpha  occ. eigenvalues --   -0.44530  -0.44060  -0.43878  -0.43588  -0.43453
 Alpha  occ. eigenvalues --   -0.43230  -0.43044  -0.42980  -0.42443  -0.42396
 Alpha  occ. eigenvalues --   -0.42179  -0.41722  -0.41698  -0.41382  -0.41168
 Alpha  occ. eigenvalues --   -0.40857  -0.40684  -0.40605  -0.40467  -0.40268
 Alpha  occ. eigenvalues --   -0.39864  -0.39734  -0.39651  -0.39294  -0.39224
 Alpha  occ. eigenvalues --   -0.38995  -0.38803  -0.38601  -0.38381  -0.38248
 Alpha  occ. eigenvalues --   -0.38152  -0.37841  -0.37766  -0.37755  -0.37648
 Alpha  occ. eigenvalues --   -0.37467  -0.37250  -0.37062  -0.36795  -0.36576
 Alpha  occ. eigenvalues --   -0.36292  -0.36213  -0.36044  -0.35924  -0.35671
 Alpha  occ. eigenvalues --   -0.35586  -0.35341  -0.35108  -0.34890  -0.34858
 Alpha  occ. eigenvalues --   -0.34769  -0.34574  -0.34105  -0.33958  -0.33576
 Alpha  occ. eigenvalues --   -0.33428  -0.33086  -0.32433  -0.32211  -0.31970
 Alpha  occ. eigenvalues --   -0.31776  -0.31718  -0.31654  -0.31467  -0.30848
 Alpha  occ. eigenvalues --   -0.30805  -0.30583  -0.30537  -0.30231  -0.29818
 Alpha  occ. eigenvalues --   -0.29548  -0.29404  -0.28871  -0.28437  -0.28195
 Alpha  occ. eigenvalues --   -0.27861  -0.27381  -0.26872  -0.26524  -0.26076
 Alpha  occ. eigenvalues --   -0.24593  -0.24360  -0.23964  -0.23115  -0.20251
 Alpha  occ. eigenvalues --   -0.18688
 Alpha virt. eigenvalues --   -0.11080  -0.07663  -0.05755  -0.02378  -0.02156
 Alpha virt. eigenvalues --   -0.01378   0.00278   0.01141   0.01418   0.03588
 Alpha virt. eigenvalues --    0.03647   0.03991   0.04155   0.04257   0.04642

 Mulliken charges:
               1
     1  C    0.007038
     2  C   -0.087018
     3  C   -0.042504
     4  C   -0.089645
     5  N   -0.213517
     6  C   -0.029515
     7  C   -0.087870
     8  C   -0.008587
     9  C    0.077898
    10  C    0.057196
    11  C    0.164367
    12  C    0.036495
    13  C    0.176427
    14  O   -0.294348
    15  O   -0.249999
    16  N   -0.149817
    17  C    0.107920
    18  C   -0.104234
    19  C   -0.000927
    20  C    0.118372
    21  C    0.102578
    22  C    0.069463
    23  C   -0.051877
    24  N   -0.310995
    25  C    0.014226
    26  C   -0.054217
    27  C   -0.072955
    28  C    0.095721
    29  C    0.108354
    30  C    0.022414
    31  C   -0.073415
    32  N    0.012946
    33  C    0.087125
    34  C   -0.103643
    35  C    0.091736
    36  C    0.039682
    37  C   -0.085933
    38  C    0.085717
    39  O   -0.245609
    40  C   -0.142279
    41  C    0.159996
    42  O   -0.177617
    43  O   -0.254403
    44  C    0.177745
    45  C    0.257115
    46  C   -0.049001
    47  C   -0.179175
    48  C    0.100335
    49  C    0.014634
    50  C    0.058084
    51  C    0.043855
    52  C   -0.101419
    53  C   -0.041765
    54  C    0.075514
    55  C   -0.102619
    56  C    0.016521
    57  C   -0.008430
    58  C   -0.011540
    59  C    0.052949
    60  C   -0.029983
    61  C    0.063039
    62  C   -0.069379
    63  C    0.015966
    64  C    0.075139
    65  H   -0.002290
    66  H   -0.045598
    67  H   -0.000243
    68  H    0.035695
    69  H   -0.021922
    70  H    0.043294
    71  H   -0.000812
    72  H   -0.015404
    73  H   -0.000346
    74  H   -0.066193
    75  H   -0.006018
    76  H    0.036273
    77  H    0.024330
    78  H   -0.005877
    79  H    0.035873
    80  H   -0.095653
    81  H    0.044331
    82  H    0.046704
    83  H    0.048137
    84  H   -0.035796
    85  H    0.013306
    86  H    0.016629
    87  H   -0.004874
    88  H    0.037627
    89  H    0.030100
    90  H    0.032401
    91  H    0.060178
    92  H    0.054951
    93  H    0.077621
    94  H    0.104213
    95  H    0.043253
    96  H    0.003093
    97  H    0.028504
    98  H    0.020740
    99  H    0.034181
   100  H   -0.027657
   101  H   -0.006054
   102  H    0.011746
   103  H    0.040923
   104  H    0.020462
   105  H    0.014299
   106  H    0.024151
   107  H   -0.055185
   108  H   -0.006132
   109  H    0.006751
   110  H    0.004711
   111  H    0.041408
   112  H    0.003178
   113  H    0.004760
   114  H    0.009196
   115  H    0.015244
   116  H    0.009220
   117  H   -0.006054
   118  H    0.012360
   119  H    0.019675
   120  H   -0.031302
   121  H    0.012506
   122  H    0.015228
   123  H    0.021539
   124  H   -0.008913
   125  H   -0.029009
   126  H    0.002049
   127  H    0.008762
   128  H   -0.030489
   129  H   -0.007268
   130  H   -0.023384
   131  H    0.003280
   132  H    0.004077
   133  H    0.011641
   134  H    0.006453
   135  H   -0.030885
   136  H   -0.014612
   137  H    0.154374
   138  H    0.166206
 Sum of Mulliken charges =  -0.00000

 Dipole moment (field-independent basis, Debye):
    X=              3.0638    Y=              5.8576    Z=             -0.2945  Tot=              6.6171
 Quadrupole moment (field-independent basis, Debye-Ang):
   XX=           -335.1980   YY=           -391.1862   ZZ=           -396.1807
   XY=            -24.7609   XZ=              2.0083   YZ=             -1.1304

 Normal termination of Gaussian 16 at Thu Aug 15 19:31:53 2019.
