 Gaussian 16, Revision A.03,
 Gaussian 16:  ES64L-G16RevA.03 25-Dec-2016

 --------------------------
 # td=(NStates=1) B3LYP/SVP
 --------------------------

 --
 TD
 --
 Symbolic Z-matrix:
 Charge =  0 Multiplicity = 1

                         Standard orientation:
 ---------------------------------------------------------------------
 Center     Atomic      Atomic             Coordinates (Angstroms)
 Number     Number       Type             X           Y           Z
 ---------------------------------------------------------------------
      1          6           0       -5.065567   -1.939527    0.480598
      2          6           0       -4.798259    2.776018    1.342954
      3          6           0       -9.279598    3.203387   -0.511938
      4          6           0       -9.871680   -1.565246   -0.938127
      5          7           0       -5.219808    0.426805    0.831061
      6          6           0       -4.476950   -0.779205    0.950212
      7          6           0       -3.148992   -0.505430    1.355304
      8          6           0       -3.183494    0.950049    1.987297
      9          6           0       -4.496304    1.473135    1.413108
     10          6           0       -3.029803    0.910363    3.502193
     11          6           0       -2.091250   -0.670897    0.241390
     12          6           0       -0.566691   -0.725376    0.696342
     13          6           0        0.431572   -0.949156   -0.565962
     14          8           0        0.085318   -1.481862   -1.616750
     15          8           0        1.645708   -0.403157   -0.263850
     16          7           0       -6.967695    2.690919    0.324680
     17          6           0       -6.042616    3.432006    0.978589
     18          6           0       -6.363562    4.761360    1.175173
     19          6           0       -7.654559    4.953777    0.460054
     20          6           0       -8.068779    3.574561    0.072239
     21          6           0       -5.497577    5.872479    1.615746
     22          6           0       -8.276563    6.110016    0.313735
     23          6           0       -9.167000    6.484106   -0.682421
     24          7           0       -9.194308    0.808423   -0.614519
     25          6           0       -9.895776    1.914593   -0.601836
     26          6           0      -11.330593    1.852798   -1.019702
     27          6           0      -11.471699    0.505548   -1.151193
     28          6           0      -10.139015   -0.139254   -0.860016
     29          6           0      -12.269433    2.966519   -1.162137
     30          6           0      -12.750895   -0.297006   -1.608478
     31          6           0      -12.793548   -0.385806   -3.175302
     32          7           0       -7.523969   -1.349136   -0.230184
     33          6           0       -8.640345   -2.192987   -0.501586
     34          6           0       -8.175602   -3.509708   -0.497101
     35          6           0       -6.807507   -3.467392   -0.171828
     36          6           0       -6.366458   -2.126217   -0.006969
     37          6           0       -9.048949   -4.719579   -0.924021
     38          6           0       -5.592033   -4.405952    0.102550
     39          8           0       -5.482207   -5.591929   -0.128387
     40          6           0       -4.433553   -3.333925    0.424348
     41          6           0       -3.791472   -3.713719    1.749026
     42          8           0       -4.103436   -3.244909    2.865619
     43          8           0       -2.978896   -4.741850    1.651135
     44          6           0       -2.326761   -5.284719    2.771365
     45          6           0        2.674743   -0.719528   -1.287527
     46          6           0        4.008502   -0.570824   -0.622391
     47          6           0        4.955392    0.204540   -0.940046
     48          6           0        4.989402    1.032543   -2.262678
     49          6           0        6.257771    0.269066   -0.303495
     50          6           0        7.409076   -0.330495   -1.051387
     51          6           0        8.781287   -0.284810   -0.194012
     52          6           0       10.086261   -0.690705   -1.001741
     53          6           0       10.009066   -2.275037   -1.441497
     54          6           0       11.271098   -0.462948   -0.093400
     55          6           0       12.709369   -0.629946   -0.740203
     56          6           0       13.895784    0.009489    0.194206
     57          6           0       15.297383   -0.341295   -0.340967
     58          6           0       15.621241   -1.783958   -0.669438
     59          6           0       16.330812    0.390945    0.565710
     60          6           0       17.716932    0.539866   -0.103339
     61          6           0       18.658893    1.540552    0.699863
     62          6           0       20.101527    1.684418    0.174317
     63          6           0       20.185606    2.394129   -1.149202
     64          6           0       20.957401    2.450003    1.240952
     65          1           0       -4.118383    3.429980    2.004317
     66          1           0      -10.157713    3.926935   -0.672541
     67          1           0      -10.610697   -2.358830   -1.229970
     68          1           0       -2.820422   -1.153918    2.117623
     69          1           0       -2.281368    1.862923    1.725013
     70          1           0       -2.067730    0.655102    3.777858
     71          1           0       -3.119495    1.949177    3.958585
     72          1           0       -3.889191    0.183881    3.802165
     73          1           0       -2.213263   -1.652474   -0.496830
     74          1           0       -2.162831    0.186028   -0.549460
     75          1           0       -0.234898    0.176608    1.003158
     76          1           0       -0.438175   -1.665957    1.412998
     77          1           0       -4.834668    6.032457    0.625953
     78          1           0       -6.097036    6.733966    1.964186
     79          1           0       -4.694289    5.517958    2.643032
     80          1           0       -8.244054    6.951610    1.154271
     81          1           0       -9.161773    5.686595   -1.521634
     82          1           0       -9.835616    7.499734   -0.547152
     83          1           0      -12.424221    3.514750   -0.196007
     84          1           0      -11.958829    3.630685   -1.988235
     85          1           0      -13.326943    2.526934   -1.064526
     86          1           0      -12.803100   -1.332168   -1.196192
     87          1           0      -13.519815    0.301489   -1.367703
     88          1           0      -12.927866    0.629546   -3.497217
     89          1           0      -11.760968   -0.934246   -3.456282
     90          1           0      -13.711029   -0.858217   -3.569627
     91          1           0       -9.912628   -4.895503   -0.193654
     92          1           0       -9.529285   -4.768929   -1.813769
     93          1           0       -8.495202   -5.774307   -0.951644
     94          1           0       -3.893673   -3.688950   -0.346143
     95          1           0       -1.887561   -6.302403    2.439672
     96          1           0       -1.413033   -4.410039    3.107761
     97          1           0       -3.095660   -5.453551    3.412397
     98          1           0        2.651679   -1.732025   -1.732516
     99          1           0        2.411734   -0.189147   -2.210613
    100          1           0        4.119318   -1.011428    0.308083
    101          1           0        5.771292    1.921647   -1.995555
    102          1           0        5.272662    0.423183   -3.328619
    103          1           0        3.913609    1.410047   -2.511976
    104          1           0        6.425107    1.454453   -0.073484
    105          1           0        6.233048   -0.219006    0.671003
    106          1           0        7.149476   -1.461474   -1.465336
    107          1           0        7.686303    0.185528   -1.987452
    108          1           0        8.769155    0.724473    0.103977
    109          1           0        8.767938   -1.001172    0.772212
    110          1           0       10.451744   -0.177066   -2.030470
    111          1           0        9.151124   -2.239154   -2.228532
    112          1           0       10.852954   -2.598206   -1.845425
    113          1           0        9.992149   -2.850784   -0.505408
    114          1           0       11.241536    0.577904    0.384334
    115          1           0       11.381456   -1.124841    0.850257
    116          1           0       12.968174   -1.664186   -0.996538
    117          1           0       12.901479   -0.222066   -1.873362
    118          1           0       13.749828    1.053860    0.119748
    119          1           0       13.878351   -0.360289    1.335016
    120          1           0       15.267119    0.214756   -1.277943
    121          1           0       14.852357   -2.288185   -1.335891
    122          1           0       16.616235   -1.822267   -1.281579
    123          1           0       15.726792   -2.215729    0.213298
    124          1           0       15.927012    1.408253    0.949506
    125          1           0       16.360676   -0.120139    1.451496
    126          1           0       18.344211   -0.373727   -0.376860
    127          1           0       17.551433    0.994800   -1.053042
    128          1           0       18.036244    2.482232    0.859903
    129          1           0       19.079062    1.145882    1.691651
    130          1           0       20.404586    0.692484    0.137319
    131          1           0       19.982100    3.437629   -0.835002
    132          1           0       21.161395    2.606596   -1.474164
    133          1           0       19.632756    1.738212   -1.919625
    134          1           0       21.206965    2.309440    2.264998
    135          1           0       22.056879    2.749487    0.957141
    136          1           0       20.668859    3.524918    1.177737
    137          1           0       -7.000882    1.687476   -0.047723
    138          1           0       -7.581350   -0.282359   -0.154358
 ---------------------------------------------------------------------

 SCF Done:  E(RB3LYP) =  -2732.99785486     A.U. after   17 cycles

 Excitation energies and oscillator strengths:

 Excited State   1:      Singlet-A      1.9447 eV  637.55 nm  f=0.1936  <S**2>=0.000
     235 -> 237       -0.37316
     235 -> 238        0.22797
     236 -> 237        0.51132
     236 -> 238        0.20949
 This state for optimization and/or second-order correction.
 Total Energy, E(TD-HF/TD-DFT) =  -2732.92638873
 Copying the excited state density for this state as the 1-particle RhoCI density.

 The electronic state is 1-A.
 Alpha  occ. eigenvalues --  -19.19015 -19.17889 -19.13426 -19.13155 -19.11348
 Alpha  occ. eigenvalues --  -14.37339 -14.36078 -14.31913 -14.30773 -10.32218
 Alpha  occ. eigenvalues --  -10.31609 -10.29097 -10.26222 -10.25350 -10.24493
 Alpha  occ. eigenvalues --  -10.23968 -10.23351 -10.23257 -10.23085 -10.22792
 Alpha  occ. eigenvalues --  -10.22504 -10.22007 -10.21696 -10.21647 -10.21617
 Alpha  occ. eigenvalues --  -10.21593 -10.21473 -10.21440 -10.21207 -10.21183
 Alpha  occ. eigenvalues --  -10.21010 -10.20954 -10.20811 -10.20799 -10.20603
 Alpha  occ. eigenvalues --  -10.20586 -10.20537 -10.20293 -10.20205 -10.20127
 Alpha  occ. eigenvalues --  -10.19858 -10.19788 -10.19635 -10.19621 -10.19389
 Alpha  occ. eigenvalues --  -10.19370 -10.19295 -10.19046 -10.18982 -10.18949
 Alpha  occ. eigenvalues --  -10.18945 -10.18912 -10.18886 -10.18886 -10.18804
 Alpha  occ. eigenvalues --  -10.18538 -10.18528 -10.18132 -10.18079 -10.18034
 Alpha  occ. eigenvalues --  -10.17914 -10.17745 -10.17695 -10.17544  -1.10415
 Alpha  occ. eigenvalues --   -1.08469  -1.03335  -1.00340  -0.98570  -0.97186
 Alpha  occ. eigenvalues --   -0.95836  -0.94864  -0.92374  -0.84279  -0.83775
 Alpha  occ. eigenvalues --   -0.82743  -0.81398  -0.80461  -0.80267  -0.80052
 Alpha  occ. eigenvalues --   -0.79616  -0.79409  -0.78847  -0.78105  -0.77159
 Alpha  occ. eigenvalues --   -0.77007  -0.76017  -0.75111  -0.74591  -0.74068
 Alpha  occ. eigenvalues --   -0.73520  -0.72578  -0.71800  -0.70749  -0.69870
 Alpha  occ. eigenvalues --   -0.69733  -0.69255  -0.68904  -0.67926  -0.67693
 Alpha  occ. eigenvalues --   -0.67496  -0.66978  -0.66509  -0.66019  -0.65663
 Alpha  occ. eigenvalues --   -0.63893  -0.62526  -0.62119  -0.61253  -0.61154
 Alpha  occ. eigenvalues --   -0.60123  -0.59382  -0.57990  -0.57229  -0.57066
 Alpha  occ. eigenvalues --   -0.56685  -0.56096  -0.55781  -0.55617  -0.55213
 Alpha  occ. eigenvalues --   -0.54884  -0.54380  -0.54243  -0.53093  -0.52718
 Alpha  occ. eigenvalues --   -0.52528  -0.51778  -0.51049  -0.50549  -0.50158
 Alpha  occ. eigenvalues --   -0.49389  -0.49113  -0.48727  -0.48240  -0.47992
 Alpha  occ. eigenvalues --   -0.47567  -0.47509  -0.47381  -0.47037  -0.46838
 Alpha  occ. eigenvalues --   -0.46524  -0.46519  -0.46316  -0.46029  -0.45458
 Alpha  occ. eigenvalues --   -0.45240  -0.45066  -0.44739  -0.44548  -0.44334
 Alpha  occ. eigenvalues --   -0.44235  -0.44188  -0.43935  -0.43409  -0.43342
 Alpha  occ. eigenvalues --   -0.43086  -0.42771  -0.42647  -0.42334  -0.42151
 Alpha  occ. eigenvalues --   -0.41995  -0.41882  -0.41603  -0.41365  -0.41222
 Alpha  occ. eigenvalues --   -0.41101  -0.40972  -0.40715  -0.40568  -0.40513
 Alpha  occ. eigenvalues --   -0.40006  -0.39589  -0.39556  -0.39292  -0.39058
 Alpha  occ. eigenvalues --   -0.38750  -0.38480  -0.38277  -0.38189  -0.38014
 Alpha  occ. eigenvalues --   -0.37897  -0.37784  -0.37634  -0.37352  -0.37190
 Alpha  occ. eigenvalues --   -0.37126  -0.36987  -0.36878  -0.36757  -0.36643
 Alpha  occ. eigenvalues --   -0.36268  -0.36110  -0.36093  -0.35767  -0.35664
 Alpha  occ. eigenvalues --   -0.35411  -0.35309  -0.34964  -0.34798  -0.34707
 Alpha  occ. eigenvalues --   -0.34246  -0.34027  -0.33922  -0.33595  -0.33321
 Alpha  occ. eigenvalues --   -0.32857  -0.32784  -0.32538  -0.32339  -0.32285
 Alpha  occ. eigenvalues --   -0.32171  -0.31813  -0.31734  -0.31665  -0.31411
 Alpha  occ. eigenvalues --   -0.31018  -0.30893  -0.30533  -0.30193  -0.30047
 Alpha  occ. eigenvalues --   -0.29740  -0.29567  -0.28309  -0.28031  -0.27961
 Alpha  occ. eigenvalues --   -0.27632  -0.27078  -0.26781  -0.26176  -0.25996
 Alpha  occ. eigenvalues --   -0.25362  -0.24937  -0.23846  -0.22930  -0.19729
 Alpha  occ. eigenvalues --   -0.18879
 Alpha virt. eigenvalues --   -0.10988  -0.07948  -0.04510  -0.02326  -0.00997
 Alpha virt. eigenvalues --   -0.00350   0.00324   0.00571   0.01698   0.02566
 Alpha virt. eigenvalues --    0.03322   0.03648   0.03695   0.04238   0.04373

 Mulliken charges:
               1
     1  C    0.079524
     2  C   -0.089099
     3  C   -0.110200
     4  C   -0.065838
     5  N   -0.261529
     6  C   -0.039086
     7  C    0.119214
     8  C   -0.164074
     9  C    0.092798
    10  C    0.077965
    11  C   -0.071274
    12  C    0.060998
    13  C    0.173816
    14  O   -0.243619
    15  O   -0.318075
    16  N   -0.104450
    17  C    0.114146
    18  C   -0.119976
    19  C    0.134722
    20  C    0.143842
    21  C   -0.019021
    22  C   -0.194857
    23  C   -0.090551
    24  N   -0.193022
    25  C   -0.009992
    26  C   -0.148119
    27  C   -0.127332
    28  C    0.077137
    29  C    0.099463
    30  C    0.138336
    31  C   -0.025062
    32  N   -0.158096
    33  C    0.059570
    34  C   -0.104335
    35  C   -0.065236
    36  C    0.115868
    37  C    0.057012
    38  C    0.098246
    39  O   -0.154119
    40  C    0.005210
    41  C    0.180173
    42  O   -0.275966
    43  O   -0.262107
    44  C    0.156910
    45  C    0.270436
    46  C   -0.024187
    47  C   -0.106061
    48  C   -0.057842
    49  C    0.061498
    50  C   -0.023529
    51  C    0.040308
    52  C   -0.118117
    53  C    0.062520
    54  C    0.026152
    55  C   -0.047432
    56  C    0.007522
    57  C   -0.090245
    58  C    0.079433
    59  C    0.064019
    60  C    0.042488
    61  C   -0.031027
    62  C   -0.018474
    63  C    0.068340
    64  C   -0.019453
    65  H   -0.015046
    66  H   -0.006159
    67  H   -0.000505
    68  H   -0.024542
    69  H    0.020982
    70  H   -0.000180
    71  H    0.007625
    72  H    0.049759
    73  H    0.055579
    74  H    0.020110
    75  H   -0.001900
    76  H    0.055291
    77  H    0.076426
    78  H    0.040774
    79  H    0.048935
    80  H    0.029073
    81  H    0.051238
    82  H    0.062617
    83  H    0.027633
    84  H    0.053583
    85  H    0.013656
    86  H    0.012313
    87  H   -0.047235
    88  H    0.003139
    89  H    0.042254
    90  H    0.014092
    91  H    0.024397
    92  H    0.000969
    93  H    0.044665
    94  H    0.004952
    95  H    0.053856
    96  H    0.055413
    97  H    0.018796
    98  H    0.028857
    99  H    0.011795
   100  H   -0.047030
   101  H    0.036516
   102  H    0.056452
   103  H    0.036166
   104  H    0.020091
   105  H   -0.015045
   106  H    0.024747
   107  H    0.004912
   108  H   -0.008895
   109  H    0.023505
   110  H    0.019228
   111  H    0.035258
   112  H   -0.031343
   113  H    0.002866
   114  H    0.000143
   115  H    0.003614
   116  H   -0.004337
   117  H   -0.004920
   118  H   -0.002212
   119  H    0.005609
   120  H   -0.028209
   121  H    0.022932
   122  H    0.018110
   123  H   -0.026919
   124  H   -0.003012
   125  H   -0.038048
   126  H    0.003538
   127  H   -0.016102
   128  H    0.002353
   129  H    0.008372
   130  H   -0.025601
   131  H   -0.006741
   132  H   -0.018731
   133  H    0.034205
   134  H    0.003731
   135  H   -0.014192
   136  H   -0.013554
   137  H    0.185685
   138  H    0.167373
 Sum of Mulliken charges =  -0.00000

 Dipole moment (field-independent basis, Debye):
    X=              1.7945    Y=              3.9635    Z=              0.3759  Tot=              4.3670
 Quadrupole moment (field-independent basis, Debye-Ang):
   XX=           -328.6514   YY=           -380.5875   ZZ=           -398.6530
   XY=            -30.5140   XZ=              8.5799   YZ=              1.1734

 Normal termination of Gaussian 16 at Mon Aug 26 11:10:50 2019.
