 Gaussian 16, Revision A.03,
 Gaussian 16:  ES64L-G16RevA.03 25-Dec-2016

 --------------------------
 # td=(NStates=1) B3LYP/SVP
 --------------------------

 --
 TD
 --
 Symbolic Z-matrix:
 Charge =  0 Multiplicity = 1

                         Standard orientation:
 ---------------------------------------------------------------------
 Center     Atomic      Atomic             Coordinates (Angstroms)
 Number     Number       Type             X           Y           Z
 ---------------------------------------------------------------------
      1          6           0       -5.262778   -1.973873    0.420361
      2          6           0       -4.811863    2.689775    1.372648
      3          6           0       -9.312395    3.428441   -0.147853
      4          6           0       -9.873959   -1.345663   -1.037801
      5          7           0       -5.100914    0.392056    0.657280
      6          6           0       -4.452779   -0.716528    0.739240
      7          6           0       -3.001663   -0.696354    1.145493
      8          6           0       -3.098048    0.717201    1.848760
      9          6           0       -4.396349    1.419974    1.178028
     10          6           0       -3.054152    0.722189    3.370058
     11          6           0       -1.996734   -0.687509    0.084738
     12          6           0       -0.545123   -0.690552    0.450567
     13          6           0        0.398340   -0.878871   -0.718791
     14          8           0        0.017866   -1.339394   -1.705707
     15          8           0        1.701966   -0.673232   -0.397242
     16          7           0       -7.042852    2.766473    0.385969
     17          6           0       -5.860963    3.317313    1.027162
     18          6           0       -6.128911    4.844778    1.035211
     19          6           0       -7.346570    5.085491    0.522084
     20          6           0       -7.971371    3.734711    0.165784
     21          6           0       -5.116955    5.767864    1.525629
     22          6           0       -7.961494    6.320785    0.334973
     23          6           0       -8.977625    6.660716   -0.425196
     24          7           0       -9.206808    0.937885   -0.415211
     25          6           0       -9.915759    2.156245   -0.414102
     26          6           0      -11.196086    1.927140   -0.877104
     27          6           0      -11.373941    0.563491   -1.079288
     28          6           0      -10.094843   -0.032621   -0.809754
     29          6           0      -12.341966    3.040691   -0.878954
     30          6           0      -12.584256   -0.151793   -1.604324
     31          6           0      -12.711546   -0.373924   -3.078553
     32          7           0       -7.503480   -1.317188   -0.361421
     33          6           0       -8.684206   -2.061339   -0.721714
     34          6           0       -8.196284   -3.460110   -0.837332
     35          6           0       -6.954874   -3.497457   -0.430073
     36          6           0       -6.539119   -2.127541   -0.060141
     37          6           0       -9.105109   -4.621624   -1.069616
     38          6           0       -5.805145   -4.285320    0.013691
     39          8           0       -5.720297   -5.528793   -0.040359
     40          6           0       -4.661692   -3.347043    0.477981
     41          6           0       -3.999605   -3.791181    1.774219
     42          8           0       -4.167678   -3.320468    2.894800
     43          8           0       -3.131929   -4.890334    1.577875
     44          6           0       -2.589191   -5.554437    2.674099
     45          6           0        2.665215   -0.934501   -1.329796
     46          6           0        3.948558   -0.618351   -0.709954
     47          6           0        5.027861    0.203527   -1.190977
     48          6           0        4.869287    0.784514   -2.623551
     49          6           0        6.346828    0.272153   -0.355351
     50          6           0        7.495922   -0.557617   -0.907547
     51          6           0        8.776052   -0.401503   -0.062435
     52          6           0       10.018386   -0.923743   -0.588624
     53          6           0        9.965678   -2.519366   -0.502658
     54          6           0       11.296993   -0.353027    0.174972
     55          6           0       12.709982   -0.714264   -0.383795
     56          6           0       13.810979   -0.058698    0.314399
     57          6           0       15.164410   -0.135644   -0.413788
     58          6           0       15.681198   -1.619249   -0.640542
     59          6           0       16.297430    0.655569    0.351422
     60          6           0       17.625067    0.710461   -0.231450
     61          6           0       18.545377    1.704093    0.545442
     62          6           0       20.009748    1.581867    0.086074
     63          6           0       20.177989    2.345289   -1.257016
     64          6           0       20.906878    2.509902    1.137820
     65          1           0       -3.978819    3.375026    2.107220
     66          1           0      -10.110901    4.331721    0.034612
     67          1           0      -10.801575   -1.766402   -1.146810
     68          1           0       -2.820140   -1.616978    1.863875
     69          1           0       -2.396033    1.467810    1.534725
     70          1           0       -2.004688    0.602548    4.028472
     71          1           0       -3.302772    1.821013    3.690080
     72          1           0       -3.838439   -0.030249    3.692106
     73          1           0       -1.951940   -1.757521   -0.459774
     74          1           0       -2.104629   -0.038250   -0.582102
     75          1           0       -0.210291    0.054142    0.877598
     76          1           0       -0.233438   -1.332664    1.148515
     77          1           0       -4.357222    6.089562    0.669506
     78          1           0       -5.546634    6.762622    1.851708
     79          1           0       -4.560020    5.265508    2.477832
     80          1           0       -7.470906    7.041433    1.071943
     81          1           0       -9.507861    5.951841   -1.164510
     82          1           0       -9.505243    7.714620   -0.434920
     83          1           0      -12.179801    3.721562    0.151394
     84          1           0      -12.114592    3.445625   -1.785991
     85          1           0      -13.350503    2.630276   -0.988400
     86          1           0      -12.590555   -1.056491   -0.852622
     87          1           0      -13.459526    0.392990   -1.001122
     88          1           0      -12.497586    0.558110   -3.433405
     89          1           0      -11.760884   -0.925369   -3.157301
     90          1           0      -13.678261   -0.854154   -3.215778
     91          1           0       -9.936160   -4.815363   -0.284116
     92          1           0       -9.556170   -4.595728   -2.179186
     93          1           0       -8.346866   -5.595620   -1.159013
     94          1           0       -3.684099   -3.485592   -0.066931
     95          1           0       -2.048501   -6.341577    2.303018
     96          1           0       -1.832736   -5.132089    3.389389
     97          1           0       -3.370026   -5.987912    3.226995
     98          1           0        2.596234   -2.020063   -1.824318
     99          1           0        2.761094   -0.140589   -2.252485
    100          1           0        4.413713   -1.361526    0.041673
    101          1           0        4.988911    1.747808   -2.448873
    102          1           0        5.803050    0.546657   -3.263543
    103          1           0        3.887247    0.548620   -3.065592
    104          1           0        6.897402    1.351864   -0.392024
    105          1           0        6.050545   -0.079967    0.701930
    106          1           0        7.403748   -1.732565   -0.826824
    107          1           0        7.759139   -0.259636   -2.048510
    108          1           0        8.958074    0.831178    0.164086
    109          1           0        8.677258   -0.946251    0.929786
    110          1           0       10.026963   -0.638311   -1.501014
    111          1           0        9.247818   -2.728574   -1.313217
    112          1           0       10.909127   -3.277720   -0.827535
    113          1           0        9.513506   -2.948458    0.534474
    114          1           0       11.144908    0.831450    0.335842
    115          1           0       11.272368   -0.908654    1.237626
    116          1           0       12.610802   -1.751309   -0.316933
    117          1           0       12.871365   -0.467144   -1.396677
    118          1           0       13.706999    1.037556    0.714581
    119          1           0       13.971028   -0.446860    1.362219
    120          1           0       15.127744    0.573737   -1.254627
    121          1           0       14.813670   -2.251226   -1.002333
    122          1           0       16.632527   -1.675763   -1.345364
    123          1           0       15.978125   -1.914802    0.416658
    124          1           0       15.868932    1.571781    0.219312
    125          1           0       16.312813    0.329057    1.413619
    126          1           0       17.890170   -0.266513   -0.484190
    127          1           0       17.709097    1.233611   -1.237557
    128          1           0       18.010131    2.696909    0.605792
    129          1           0       18.627568    1.350851    1.676780
    130          1           0       20.559492    0.469298    0.075429
    131          1           0       20.291331    3.456290   -1.123343
    132          1           0       21.282677    2.018073   -1.652772
    133          1           0       19.528278    1.922324   -1.971903
    134          1           0       20.919171    2.092823    2.111628
    135          1           0       21.880573    2.715206    0.833127
    136          1           0       20.296630    3.443412    0.995470
    137          1           0       -7.140340    1.703776    0.349772
    138          1           0       -7.462087   -0.194509   -0.175074
 ---------------------------------------------------------------------

 SCF Done:  E(RB3LYP) =  -2732.87752967     A.U. after   18 cycles

 Excitation energies and oscillator strengths:

 Excited State   1:      Singlet-A      2.0467 eV  605.79 nm  f=0.0976  <S**2>=0.000
     235 -> 237       -0.21256
     235 -> 238       -0.33764
     236 -> 237        0.54142
     236 -> 238       -0.20900
 This state for optimization and/or second-order correction.
 Total Energy, E(TD-HF/TD-DFT) =  -2732.80231612
 Copying the excited state density for this state as the 1-particle RhoCI density.

 The electronic state is 1-A.
 Alpha  occ. eigenvalues --  -19.18077 -19.17425 -19.13184 -19.12852 -19.11982
 Alpha  occ. eigenvalues --  -14.37973 -14.37300 -14.33036 -14.29027 -10.32452
 Alpha  occ. eigenvalues --  -10.31153 -10.28325 -10.26019 -10.24818 -10.24431
 Alpha  occ. eigenvalues --  -10.24278 -10.24194 -10.23392 -10.22953 -10.22924
 Alpha  occ. eigenvalues --  -10.22400 -10.22106 -10.21984 -10.21882 -10.21772
 Alpha  occ. eigenvalues --  -10.21637 -10.21476 -10.21432 -10.21124 -10.21051
 Alpha  occ. eigenvalues --  -10.20964 -10.20937 -10.20913 -10.20897 -10.20837
 Alpha  occ. eigenvalues --  -10.20819 -10.20788 -10.20771 -10.20697 -10.20561
 Alpha  occ. eigenvalues --  -10.20260 -10.19904 -10.19886 -10.19772 -10.19463
 Alpha  occ. eigenvalues --  -10.19457 -10.19454 -10.19281 -10.19279 -10.19248
 Alpha  occ. eigenvalues --  -10.19144 -10.18743 -10.18702 -10.18569 -10.18511
 Alpha  occ. eigenvalues --  -10.18504 -10.18012 -10.17842 -10.17476 -10.17344
 Alpha  occ. eigenvalues --  -10.17332 -10.17270 -10.17183 -10.16411  -1.11812
 Alpha  occ. eigenvalues --   -1.08003  -1.04099  -1.00903  -1.00238  -0.98392
 Alpha  occ. eigenvalues --   -0.97020  -0.96174  -0.92231  -0.84903  -0.83422
 Alpha  occ. eigenvalues --   -0.83278  -0.82893  -0.82333  -0.81936  -0.81116
 Alpha  occ. eigenvalues --   -0.80739  -0.80103  -0.79453  -0.78892  -0.78268
 Alpha  occ. eigenvalues --   -0.77375  -0.76868  -0.75702  -0.75487  -0.74391
 Alpha  occ. eigenvalues --   -0.74000  -0.73556  -0.72727  -0.71844  -0.70718
 Alpha  occ. eigenvalues --   -0.70337  -0.69657  -0.68746  -0.67757  -0.67414
 Alpha  occ. eigenvalues --   -0.66621  -0.66225  -0.65910  -0.65501  -0.65224
 Alpha  occ. eigenvalues --   -0.64805  -0.63403  -0.62871  -0.62565  -0.61690
 Alpha  occ. eigenvalues --   -0.61384  -0.59287  -0.58954  -0.58416  -0.57510
 Alpha  occ. eigenvalues --   -0.57068  -0.56394  -0.56040  -0.55521  -0.55139
 Alpha  occ. eigenvalues --   -0.54881  -0.54593  -0.53871  -0.53726  -0.53460
 Alpha  occ. eigenvalues --   -0.52247  -0.51535  -0.51382  -0.51078  -0.50767
 Alpha  occ. eigenvalues --   -0.49856  -0.49740  -0.49188  -0.48747  -0.48519
 Alpha  occ. eigenvalues --   -0.48171  -0.47881  -0.47737  -0.47385  -0.47238
 Alpha  occ. eigenvalues --   -0.47059  -0.46730  -0.46610  -0.46146  -0.46100
 Alpha  occ. eigenvalues --   -0.45888  -0.45658  -0.45243  -0.45182  -0.45028
 Alpha  occ. eigenvalues --   -0.44777  -0.44416  -0.44075  -0.43786  -0.43583
 Alpha  occ. eigenvalues --   -0.43365  -0.43087  -0.42935  -0.42899  -0.42779
 Alpha  occ. eigenvalues --   -0.42562  -0.42012  -0.41940  -0.41887  -0.41749
 Alpha  occ. eigenvalues --   -0.41499  -0.41160  -0.40824  -0.40667  -0.40522
 Alpha  occ. eigenvalues --   -0.40404  -0.40169  -0.39896  -0.39803  -0.39728
 Alpha  occ. eigenvalues --   -0.39194  -0.39151  -0.39106  -0.38773  -0.38587
 Alpha  occ. eigenvalues --   -0.38300  -0.38115  -0.37836  -0.37592  -0.37489
 Alpha  occ. eigenvalues --   -0.37370  -0.37350  -0.37128  -0.36819  -0.36685
 Alpha  occ. eigenvalues --   -0.36467  -0.36361  -0.36148  -0.36119  -0.35974
 Alpha  occ. eigenvalues --   -0.35823  -0.35247  -0.34938  -0.34879  -0.34606
 Alpha  occ. eigenvalues --   -0.34539  -0.34290  -0.33979  -0.33679  -0.33532
 Alpha  occ. eigenvalues --   -0.33434  -0.33268  -0.32910  -0.32762  -0.32636
 Alpha  occ. eigenvalues --   -0.32362  -0.32072  -0.31885  -0.31639  -0.31239
 Alpha  occ. eigenvalues --   -0.30887  -0.30534  -0.30389  -0.30052  -0.29457
 Alpha  occ. eigenvalues --   -0.29196  -0.29125  -0.28859  -0.28607  -0.27989
 Alpha  occ. eigenvalues --   -0.27781  -0.27514  -0.27161  -0.25800  -0.25554
 Alpha  occ. eigenvalues --   -0.24863  -0.24564  -0.23459  -0.21760  -0.20035
 Alpha  occ. eigenvalues --   -0.18701
 Alpha virt. eigenvalues --   -0.09851  -0.08850  -0.04724  -0.02362  -0.02202
 Alpha virt. eigenvalues --   -0.01367   0.00460   0.00548   0.01159   0.01541
 Alpha virt. eigenvalues --    0.03341   0.04187   0.04290   0.04341   0.04468

 Mulliken charges:
               1
     1  C    0.080990
     2  C   -0.110297
     3  C   -0.129228
     4  C   -0.040247
     5  N   -0.113104
     6  C   -0.066090
     7  C   -0.017815
     8  C   -0.034606
     9  C   -0.051043
    10  C   -0.000727
    11  C    0.137616
    12  C    0.237295
    13  C    0.103783
    14  O   -0.168886
    15  O   -0.278320
    16  N   -0.125226
    17  C    0.134658
    18  C   -0.082743
    19  C    0.065335
    20  C    0.096528
    21  C   -0.000865
    22  C   -0.040078
    23  C   -0.099061
    24  N   -0.300051
    25  C    0.055842
    26  C   -0.145113
    27  C   -0.134710
    28  C    0.046755
    29  C    0.097932
    30  C   -0.069563
    31  C    0.192749
    32  N   -0.089467
    33  C    0.115521
    34  C   -0.153295
    35  C    0.095840
    36  C   -0.042828
    37  C   -0.038768
    38  C    0.108322
    39  O   -0.196837
    40  C   -0.045572
    41  C    0.190832
    42  O   -0.227787
    43  O   -0.330116
    44  C    0.242501
    45  C    0.205558
    46  C   -0.111301
    47  C   -0.180060
    48  C    0.122875
    49  C    0.044849
    50  C   -0.037604
    51  C   -0.065670
    52  C    0.092822
    53  C   -0.093327
    54  C   -0.065938
    55  C    0.159684
    56  C    0.000155
    57  C   -0.094567
    58  C   -0.011867
    59  C    0.054550
    60  C    0.070687
    61  C   -0.005057
    62  C   -0.168599
    63  C    0.020961
    64  C    0.047621
    65  H    0.035271
    66  H    0.034982
    67  H   -0.051889
    68  H    0.041747
    69  H   -0.018929
    70  H    0.042366
    71  H    0.009393
    72  H    0.049461
    73  H    0.031577
    74  H   -0.075991
    75  H   -0.099588
    76  H   -0.031912
    77  H    0.059231
    78  H    0.025596
    79  H    0.053719
    80  H    0.001956
    81  H    0.049772
    82  H    0.044449
    83  H    0.059692
    84  H   -0.000035
    85  H    0.006269
    86  H    0.007543
    87  H   -0.001392
    88  H   -0.014882
    89  H   -0.002327
    90  H    0.036955
    91  H    0.068802
    92  H    0.042254
    93  H    0.062059
    94  H    0.058249
    95  H   -0.008967
    96  H    0.018500
    97  H    0.004559
    98  H    0.046139
    99  H    0.015427
   100  H    0.005715
   101  H   -0.020049
   102  H    0.031731
   103  H    0.024124
   104  H    0.024892
   105  H    0.031457
   106  H    0.020037
   107  H    0.019900
   108  H    0.004701
   109  H    0.001824
   110  H   -0.078301
   111  H    0.018086
   112  H    0.043193
   113  H    0.037219
   114  H    0.010919
   115  H    0.006680
   116  H   -0.013539
   117  H   -0.023635
   118  H   -0.007442
   119  H   -0.028280
   120  H   -0.015297
   121  H    0.022294
   122  H    0.042243
   123  H    0.017916
   124  H   -0.048591
   125  H   -0.005244
   126  H   -0.033268
   127  H   -0.020107
   128  H    0.015965
   129  H   -0.000191
   130  H    0.036818
   131  H    0.026929
   132  H    0.004560
   133  H    0.006488
   134  H    0.005392
   135  H   -0.009781
   136  H    0.007102
   137  H    0.173178
   138  H    0.208475
 Sum of Mulliken charges =  -0.00000

 Dipole moment (field-independent basis, Debye):
    X=              2.6196    Y=              4.6570    Z=              0.3654  Tot=              5.3557
 Quadrupole moment (field-independent basis, Debye-Ang):
   XX=           -368.5171   YY=           -385.0667   ZZ=           -398.8861
   XY=            -27.1472   XZ=             -0.7164   YZ=             -0.4885

 Normal termination of Gaussian 16 at Mon Aug 12 03:17:41 2019.
