 Gaussian 16, Revision A.03,
 Gaussian 16:  ES64L-G16RevA.03 25-Dec-2016

 --------------------------
 # td=(NStates=1) B3LYP/SVP
 --------------------------

 --
 TD
 --
 Symbolic Z-matrix:
 Charge =  0 Multiplicity = 1

                         Standard orientation:
 ---------------------------------------------------------------------
 Center     Atomic      Atomic             Coordinates (Angstroms)
 Number     Number       Type             X           Y           Z
 ---------------------------------------------------------------------
      1          6           0       -5.035470   -1.888328    0.443629
      2          6           0       -4.779888    2.779324    1.328216
      3          6           0       -9.349600    3.397124   -0.222582
      4          6           0       -9.829825   -1.488344   -1.064431
      5          7           0       -5.193297    0.500761    0.694686
      6          6           0       -4.500920   -0.630380    0.834405
      7          6           0       -3.140460   -0.465928    1.217222
      8          6           0       -3.016844    0.941245    1.743932
      9          6           0       -4.410655    1.455728    1.297816
     10          6           0       -2.965393    1.025341    3.276075
     11          6           0       -2.135713   -0.787414    0.208716
     12          6           0       -0.621316   -0.963496    0.597458
     13          6           0        0.336755   -1.106734   -0.456881
     14          8           0        0.090311   -1.689083   -1.552146
     15          8           0        1.599597   -0.526243   -0.198729
     16          7           0       -7.109513    2.795318    0.360656
     17          6           0       -6.007066    3.388693    0.930768
     18          6           0       -6.357339    4.883029    1.004069
     19          6           0       -7.615789    5.051972    0.483494
     20          6           0       -8.057070    3.813177    0.161822
     21          6           0       -5.369884    5.831982    1.525564
     22          6           0       -8.348512    6.271145    0.484085
     23          6           0       -9.291620    6.526998   -0.528007
     24          7           0       -9.017700    0.862578   -0.703030
     25          6           0       -9.824946    2.085219   -0.598718
     26          6           0      -11.233372    1.844856   -0.994429
     27          6           0      -11.399031    0.488160   -1.097324
     28          6           0       -9.929736   -0.170894   -0.995549
     29          6           0      -12.397425    2.850168   -0.926119
     30          6           0      -12.609592   -0.362441   -1.639854
     31          6           0      -12.616657   -0.637005   -3.157849
     32          7           0       -7.509374   -1.279158   -0.267084
     33          6           0       -8.587416   -2.073993   -0.700039
     34          6           0       -8.133853   -3.507238   -0.633587
     35          6           0       -6.709266   -3.474085   -0.258390
     36          6           0       -6.449618   -2.142917    0.082293
     37          6           0       -8.969479   -4.665079   -0.960114
     38          6           0       -5.735136   -4.448107    0.132006
     39          8           0       -5.532508   -5.624543   -0.023432
     40          6           0       -4.486098   -3.324519    0.434349
     41          6           0       -3.810652   -3.791491    1.817594
     42          8           0       -4.087489   -3.335043    2.905389
     43          8           0       -3.099797   -4.893118    1.637233
     44          6           0       -2.430322   -5.504383    2.763691
     45          6           0        2.604074   -0.827049   -1.139816
     46          6           0        3.926385   -0.437801   -0.577910
     47          6           0        4.952921    0.187168   -1.024670
     48          6           0        4.817895    1.112193   -2.330709
     49          6           0        6.246372    0.257144   -0.311444
     50          6           0        7.549953   -0.322165   -0.930037
     51          6           0        8.796076   -0.298347   -0.016663
     52          6           0       10.059422   -0.820370   -0.715026
     53          6           0       10.099895   -2.329140   -1.015585
     54          6           0       11.280183   -0.338423    0.122612
     55          6           0       12.640196   -0.530120   -0.694914
     56          6           0       13.867398   -0.066476    0.125794
     57          6           0       15.234397   -0.125814   -0.605261
     58          6           0       15.620456   -1.556106   -0.986564
     59          6           0       16.277232    0.544179    0.472350
     60          6           0       17.655473    0.711916   -0.220097
     61          6           0       18.651617    1.508523    0.682240
     62          6           0       20.136954    1.560090    0.178607
     63          6           0       20.203605    2.466537   -1.142477
     64          6           0       21.060689    2.147215    1.268861
     65          1           0       -4.069731    3.617967    1.857757
     66          1           0      -10.121918    4.050444   -0.393235
     67          1           0      -10.817603   -2.086693   -1.189009
     68          1           0       -3.298335   -1.227463    2.032201
     69          1           0       -2.205578    1.310363    1.216681
     70          1           0       -1.886769    0.709249    3.560315
     71          1           0       -3.361631    2.112454    3.592725
     72          1           0       -3.641577    0.285240    3.644608
     73          1           0       -2.274418   -1.849533   -0.509010
     74          1           0       -1.898555    0.189669   -0.550724
     75          1           0       -0.178481   -0.010022    1.360291
     76          1           0       -0.303369   -1.867131    1.131834
     77          1           0       -4.189145    5.651959    1.169691
     78          1           0       -5.616788    6.783616    1.125373
     79          1           0       -5.245985    5.503584    2.642840
     80          1           0       -8.174681    7.062004    1.442380
     81          1           0       -9.481805    5.846215   -1.333078
     82          1           0       -9.927807    7.468394   -0.377457
     83          1           0      -12.588679    3.491112   -0.027088
     84          1           0      -12.298399    3.577691   -1.873481
     85          1           0      -13.402442    2.407037   -1.356666
     86          1           0      -12.783659   -1.283303   -1.124174
     87          1           0      -13.478288    0.288350   -1.432506
     88          1           0      -12.565175    0.370036   -3.756242
     89          1           0      -11.778842   -1.281427   -3.245007
     90          1           0      -13.524987   -1.144777   -3.333021
     91          1           0      -10.169657   -4.541347   -0.492047
     92          1           0       -9.059297   -4.722086   -2.203130
     93          1           0       -8.442940   -5.513544   -0.672987
     94          1           0       -3.872065   -3.600431   -0.276179
     95          1           0       -1.580978   -6.181724    2.333217
     96          1           0       -1.992917   -4.667981    3.248581
     97          1           0       -3.284562   -5.985436    3.271106
     98          1           0        2.352165   -1.939435   -1.508549
     99          1           0        2.481011   -0.162946   -2.006567
    100          1           0        3.905282   -0.689500    0.412351
    101          1           0        5.276676    2.044237   -2.066923
    102          1           0        5.378427    0.597999   -3.100277
    103          1           0        3.712734    1.302604   -2.660128
    104          1           0        6.347533    1.405788   -0.144142
    105          1           0        6.392960   -0.178290    0.690842
    106          1           0        7.290793   -1.492498   -1.250087
    107          1           0        8.062855    0.292043   -1.824039
    108          1           0        8.967474    0.738236    0.133461
    109          1           0        8.465905   -0.666910    0.919340
    110          1           0       10.319017   -0.057149   -1.506919
    111          1           0        9.502247   -2.613179   -1.836238
    112          1           0       10.981272   -2.595812   -1.281823
    113          1           0        9.708288   -2.868835   -0.039109
    114          1           0       10.942248    0.677006    0.444020
    115          1           0       11.302821   -0.931857    1.037790
    116          1           0       12.796832   -1.663702   -0.901964
    117          1           0       12.454280    0.188512   -1.663884
    118          1           0       13.698997    0.909234    0.567289
    119          1           0       13.657934   -0.859910    0.927202
    120          1           0       15.260495    0.657459   -1.382364
    121          1           0       15.048863   -2.012734   -1.974331
    122          1           0       16.894343   -1.623475   -1.280436
    123          1           0       15.288097   -2.300972   -0.100401
    124          1           0       15.945926    1.611163    1.050361
    125          1           0       16.351752   -0.184296    1.347921
    126          1           0       18.172341   -0.415288   -0.271457
    127          1           0       17.623482    1.002902   -1.422291
    128          1           0       18.583141    2.622581    0.611127
    129          1           0       18.459486    1.018398    1.544556
    130          1           0       20.475761    0.524869   -0.086417
    131          1           0       19.781442    3.450254   -0.991040
    132          1           0       21.320067    2.603649   -1.280514
    133          1           0       19.693677    2.157194   -2.062119
    134          1           0       20.991379    1.760744    2.278527
    135          1           0       22.158519    2.082122    1.096724
    136          1           0       20.974121    3.379355    1.298921
    137          1           0       -7.189005    1.819216    0.107282
    138          1           0       -7.438215   -0.230749   -0.089133
 ---------------------------------------------------------------------

 SCF Done:  E(RB3LYP) =  -2732.94804511     A.U. after   17 cycles

 Excitation energies and oscillator strengths:

 Excited State   1:      Singlet-A      1.8960 eV  653.94 nm  f=0.2339  <S**2>=0.000
     235 -> 238        0.26242
     236 -> 237        0.65800
 This state for optimization and/or second-order correction.
 Total Energy, E(TD-HF/TD-DFT) =  -2732.87836984
 Copying the excited state density for this state as the 1-particle RhoCI density.

 The electronic state is 1-A.
 Alpha  occ. eigenvalues --  -19.17580 -19.16903 -19.13228 -19.12696 -19.11454
 Alpha  occ. eigenvalues --  -14.37195 -14.37039 -14.32703 -14.31456 -10.32120
 Alpha  occ. eigenvalues --  -10.30873 -10.28303 -10.25059 -10.24632 -10.24238
 Alpha  occ. eigenvalues --  -10.24235 -10.23811 -10.23748 -10.23391 -10.23181
 Alpha  occ. eigenvalues --  -10.23048 -10.22874 -10.22750 -10.22630 -10.22324
 Alpha  occ. eigenvalues --  -10.22063 -10.21817 -10.21741 -10.21685 -10.21370
 Alpha  occ. eigenvalues --  -10.21156 -10.20986 -10.20673 -10.20636 -10.20582
 Alpha  occ. eigenvalues --  -10.20486 -10.20481 -10.20480 -10.20237 -10.20198
 Alpha  occ. eigenvalues --  -10.20176 -10.20002 -10.19996 -10.19991 -10.19945
 Alpha  occ. eigenvalues --  -10.19858 -10.19828 -10.19786 -10.19725 -10.19563
 Alpha  occ. eigenvalues --  -10.19528 -10.19443 -10.19347 -10.19283 -10.19047
 Alpha  occ. eigenvalues --  -10.19040 -10.18462 -10.18368 -10.18202 -10.18184
 Alpha  occ. eigenvalues --  -10.17580 -10.17557 -10.17131 -10.16647  -1.09132
 Alpha  occ. eigenvalues --   -1.07553  -1.03533  -0.99761  -0.98899  -0.97985
 Alpha  occ. eigenvalues --   -0.96302  -0.95602  -0.89774  -0.83788  -0.83405
 Alpha  occ. eigenvalues --   -0.82687  -0.82352  -0.81344  -0.80535  -0.80303
 Alpha  occ. eigenvalues --   -0.79320  -0.79079  -0.78983  -0.78541  -0.78413
 Alpha  occ. eigenvalues --   -0.76770  -0.75876  -0.75035  -0.74525  -0.74011
 Alpha  occ. eigenvalues --   -0.73656  -0.73117  -0.72147  -0.71426  -0.71107
 Alpha  occ. eigenvalues --   -0.70494  -0.68578  -0.68433  -0.67862  -0.66946
 Alpha  occ. eigenvalues --   -0.66926  -0.66777  -0.65669  -0.65344  -0.65295
 Alpha  occ. eigenvalues --   -0.63945  -0.63016  -0.62769  -0.61449  -0.60846
 Alpha  occ. eigenvalues --   -0.60567  -0.59268  -0.57708  -0.57290  -0.56367
 Alpha  occ. eigenvalues --   -0.55707  -0.55469  -0.55317  -0.55147  -0.54949
 Alpha  occ. eigenvalues --   -0.54600  -0.54467  -0.54265  -0.53647  -0.52506
 Alpha  occ. eigenvalues --   -0.52273  -0.51758  -0.50915  -0.50226  -0.50032
 Alpha  occ. eigenvalues --   -0.49656  -0.49177  -0.48947  -0.48740  -0.48453
 Alpha  occ. eigenvalues --   -0.48031  -0.47868  -0.47387  -0.47203  -0.47177
 Alpha  occ. eigenvalues --   -0.46831  -0.46391  -0.46283  -0.45619  -0.45491
 Alpha  occ. eigenvalues --   -0.45279  -0.45139  -0.44957  -0.44713  -0.44311
 Alpha  occ. eigenvalues --   -0.44148  -0.44109  -0.43921  -0.43626  -0.43346
 Alpha  occ. eigenvalues --   -0.43240  -0.42919  -0.42772  -0.42524  -0.42341
 Alpha  occ. eigenvalues --   -0.42132  -0.41918  -0.41825  -0.41629  -0.41508
 Alpha  occ. eigenvalues --   -0.41274  -0.41119  -0.40581  -0.40003  -0.39764
 Alpha  occ. eigenvalues --   -0.39580  -0.39484  -0.39373  -0.39061  -0.38930
 Alpha  occ. eigenvalues --   -0.38765  -0.38618  -0.38576  -0.38388  -0.38248
 Alpha  occ. eigenvalues --   -0.38044  -0.37780  -0.37709  -0.37616  -0.37293
 Alpha  occ. eigenvalues --   -0.37220  -0.37082  -0.36889  -0.36831  -0.36481
 Alpha  occ. eigenvalues --   -0.36333  -0.36091  -0.35861  -0.35664  -0.35593
 Alpha  occ. eigenvalues --   -0.35390  -0.35189  -0.35121  -0.35082  -0.34971
 Alpha  occ. eigenvalues --   -0.34461  -0.34379  -0.33920  -0.33883  -0.33579
 Alpha  occ. eigenvalues --   -0.32966  -0.32759  -0.32728  -0.32659  -0.32207
 Alpha  occ. eigenvalues --   -0.32164  -0.31946  -0.31818  -0.31799  -0.31287
 Alpha  occ. eigenvalues --   -0.31010  -0.30753  -0.30587  -0.30220  -0.29898
 Alpha  occ. eigenvalues --   -0.29825  -0.29415  -0.28334  -0.27824  -0.27575
 Alpha  occ. eigenvalues --   -0.27316  -0.27280  -0.26312  -0.25971  -0.25240
 Alpha  occ. eigenvalues --   -0.24320  -0.24126  -0.24104  -0.23197  -0.19764
 Alpha  occ. eigenvalues --   -0.18694
 Alpha virt. eigenvalues --   -0.11027  -0.07268  -0.04984  -0.03094  -0.01510
 Alpha virt. eigenvalues --   -0.00650   0.00575   0.01136   0.01463   0.03162
 Alpha virt. eigenvalues --    0.03423   0.03463   0.03469   0.04331   0.04380

 Mulliken charges:
               1
     1  C    0.027782
     2  C   -0.087990
     3  C   -0.044504
     4  C   -0.125185
     5  N   -0.170492
     6  C   -0.065491
     7  C    0.048590
     8  C    0.030793
     9  C   -0.008480
    10  C    0.053243
    11  C   -0.049715
    12  C   -0.003826
    13  C    0.193177
    14  O   -0.280737
    15  O   -0.341245
    16  N   -0.068659
    17  C    0.066368
    18  C   -0.134010
    19  C    0.080451
    20  C    0.156507
    21  C    0.024820
    22  C   -0.130534
    23  C   -0.038918
    24  N   -0.330703
    25  C    0.048558
    26  C   -0.085427
    27  C   -0.106089
    28  C    0.101056
    29  C    0.014024
    30  C    0.023854
    31  C    0.049714
    32  N   -0.128157
    33  C    0.127308
    34  C   -0.096612
    35  C   -0.061352
    36  C    0.066049
    37  C    0.018304
    38  C    0.119711
    39  O   -0.155859
    40  C   -0.060818
    41  C    0.168995
    42  O   -0.250209
    43  O   -0.294293
    44  C    0.181241
    45  C    0.272378
    46  C   -0.104792
    47  C   -0.072686
    48  C    0.052929
    49  C    0.070612
    50  C   -0.077587
    51  C    0.065519
    52  C   -0.101381
    53  C    0.173153
    54  C   -0.001348
    55  C   -0.030232
    56  C    0.017675
    57  C   -0.002247
    58  C   -0.094966
    59  C   -0.051097
    60  C   -0.083560
    61  C    0.096674
    62  C   -0.087785
    63  C    0.003107
    64  C   -0.006161
    65  H    0.007794
    66  H   -0.078650
    67  H    0.023953
    68  H    0.026152
    69  H   -0.024684
    70  H    0.028997
    71  H    0.034307
    72  H    0.023391
    73  H    0.082379
    74  H    0.043008
    75  H    0.054818
    76  H    0.039704
    77  H    0.047111
    78  H    0.025998
    79  H    0.056916
    80  H    0.058341
    81  H    0.044040
    82  H    0.040548
    83  H    0.055417
    84  H    0.016757
    85  H    0.022688
    86  H   -0.000357
    87  H   -0.007391
    88  H    0.034304
    89  H    0.000546
    90  H    0.006736
    91  H    0.058845
    92  H    0.060477
    93  H    0.025295
    94  H   -0.009674
    95  H    0.056754
    96  H    0.022404
    97  H    0.053395
    98  H    0.056426
    99  H   -0.016611
   100  H   -0.050948
   101  H    0.009698
   102  H    0.027059
   103  H    0.038324
   104  H    0.004315
   105  H   -0.007342
   106  H    0.023244
   107  H    0.008222
   108  H   -0.029892
   109  H   -0.023850
   110  H   -0.010874
   111  H   -0.005705
   112  H   -0.067421
   113  H    0.020648
   114  H   -0.006230
   115  H   -0.025446
   116  H    0.031821
   117  H    0.008681
   118  H   -0.008731
   119  H   -0.000654
   120  H    0.004796
   121  H    0.046256
   122  H    0.046759
   123  H    0.038910
   124  H    0.029366
   125  H    0.010146
   126  H    0.016374
   127  H    0.022467
   128  H    0.002676
   129  H   -0.029193
   130  H   -0.002843
   131  H   -0.000230
   132  H    0.016507
   133  H    0.018628
   134  H    0.010152
   135  H    0.006543
   136  H    0.012214
   137  H    0.139383
   138  H    0.186590
 Sum of Mulliken charges =  -0.00000

 Dipole moment (field-independent basis, Debye):
    X=              0.9183    Y=              4.3449    Z=              1.7456  Tot=              4.7716
 Quadrupole moment (field-independent basis, Debye-Ang):
   XX=           -330.0094   YY=           -380.6504   ZZ=           -401.0364
   XY=            -26.6323   XZ=              9.9216   YZ=             -1.8737

 Normal termination of Gaussian 16 at Thu Aug 22 01:32:18 2019.
