 Gaussian 16, Revision A.03,
 Gaussian 16:  ES64L-G16RevA.03 25-Dec-2016

 --------------------------
 # td=(NStates=1) B3LYP/SVP
 --------------------------

 --
 TD
 --
 Symbolic Z-matrix:
 Charge =  0 Multiplicity = 1

                         Standard orientation:
 ---------------------------------------------------------------------
 Center     Atomic      Atomic             Coordinates (Angstroms)
 Number     Number       Type             X           Y           Z
 ---------------------------------------------------------------------
      1          6           0       -5.175937   -2.005239    0.380508
      2          6           0       -4.652562    2.591512    1.555626
      3          6           0       -9.209172    3.512304   -0.231061
      4          6           0       -9.926891   -1.287102   -0.993310
      5          7           0       -5.157644    0.325558    0.878460
      6          6           0       -4.474155   -0.879448    0.814001
      7          6           0       -3.132408   -0.697539    1.337585
      8          6           0       -3.142324    0.686442    1.952660
      9          6           0       -4.396988    1.288755    1.417562
     10          6           0       -3.078640    0.607776    3.512218
     11          6           0       -2.086393   -0.847473    0.125532
     12          6           0       -0.608877   -0.791431    0.646083
     13          6           0        0.324816   -1.241689   -0.451605
     14          8           0        0.029029   -1.699083   -1.559203
     15          8           0        1.583127   -0.823436   -0.177335
     16          7           0       -6.891209    2.776211    0.533088
     17          6           0       -5.773766    3.347455    1.053598
     18          6           0       -6.072035    4.735461    1.175842
     19          6           0       -7.260100    5.047357    0.651728
     20          6           0       -7.920190    3.779383    0.298814
     21          6           0       -5.076732    5.736636    1.598085
     22          6           0       -7.897173    6.362890    0.544052
     23          6           0       -8.806052    6.701695   -0.437711
     24          7           0       -9.156266    1.095637   -0.460949
     25          6           0       -9.764841    2.251120   -0.541243
     26          6           0      -11.082978    2.083961   -1.077481
     27          6           0      -11.332126    0.851920   -1.363071
     28          6           0      -10.151037    0.161320   -0.874865
     29          6           0      -12.040494    3.260391   -1.301717
     30          6           0      -12.604843    0.248400   -1.766756
     31          6           0      -12.723231   -0.154994   -3.214738
     32          7           0       -7.614585   -1.267033   -0.177203
     33          6           0       -8.704616   -2.004214   -0.686245
     34          6           0       -8.363996   -3.402866   -0.751579
     35          6           0       -7.029115   -3.438597   -0.383944
     36          6           0       -6.590679   -2.023901   -0.021364
     37          6           0       -9.321439   -4.524551   -1.105559
     38          6           0       -5.905867   -4.332481   -0.027039
     39          8           0       -5.961668   -5.501963   -0.083684
     40          6           0       -4.656748   -3.356850    0.436480
     41          6           0       -4.088418   -3.941698    1.719504
     42          8           0       -4.214624   -3.536690    2.823557
     43          8           0       -3.249838   -5.011593    1.336807
     44          6           0       -2.703665   -5.730151    2.437777
     45          6           0        2.675709   -0.999337   -1.192896
     46          6           0        3.851919   -0.670122   -0.561377
     47          6           0        4.989756   -0.062007   -1.041791
     48          6           0        4.936806    0.575535   -2.418683
     49          6           0        6.253896    0.225031   -0.220776
     50          6           0        7.482294   -0.617396   -0.837150
     51          6           0        8.849661   -0.264235   -0.108481
     52          6           0       10.054227   -0.737647   -0.782216
     53          6           0       10.090500   -2.256743   -1.043476
     54          6           0       11.296495   -0.186251   -0.143546
     55          6           0       12.644064   -0.466444   -0.652719
     56          6           0       13.884540    0.008615    0.213763
     57          6           0       15.275575   -0.172844   -0.314192
     58          6           0       15.725617   -1.624907   -0.293949
     59          6           0       16.270153    0.659218    0.458490
     60          6           0       17.695171    0.701268   -0.260551
     61          6           0       18.576434    1.668057    0.563423
     62          6           0       20.061894    1.704035    0.080906
     63          6           0       20.291232    2.239985   -1.406422
     64          6           0       20.933155    2.518296    1.003972
     65          1           0       -3.877432    3.127375    2.050577
     66          1           0       -9.778123    4.484530   -0.334582
     67          1           0      -10.617564   -1.920989   -1.418349
     68          1           0       -2.746120   -1.374648    2.106476
     69          1           0       -2.097484    1.027083    1.594811
     70          1           0       -2.187027    0.357913    3.985107
     71          1           0       -3.322533    1.561264    3.826428
     72          1           0       -3.779490   -0.047273    4.020228
     73          1           0       -2.383227   -1.744357   -0.216122
     74          1           0       -2.375941   -0.113554   -0.661110
     75          1           0       -0.386798    0.138340    1.208023
     76          1           0       -0.628212   -1.696289    1.444556
     77          1           0       -4.204936    5.641923    0.862131
     78          1           0       -5.538044    6.807405    1.613547
     79          1           0       -4.487018    5.454861    2.564813
     80          1           0       -7.361497    7.122033    1.228680
     81          1           0       -9.128145    5.987247   -1.207467
     82          1           0       -9.147534    7.835254   -0.406315
     83          1           0      -11.978119    4.096514   -0.447211
     84          1           0      -11.953014    3.834301   -2.382819
     85          1           0      -13.076591    2.811623   -1.279145
     86          1           0      -12.804391   -0.859202   -1.270726
     87          1           0      -13.430310    0.834095   -1.543437
     88          1           0      -12.486497    0.667859   -3.989844
     89          1           0      -11.946481   -1.070136   -3.470479
     90          1           0      -13.656948   -0.630540   -3.553604
     91          1           0       -9.986448   -4.640445   -0.283871
     92          1           0       -9.830169   -4.444221   -2.062198
     93          1           0       -8.526471   -5.566729   -1.065896
     94          1           0       -3.904787   -3.655598   -0.169711
     95          1           0       -1.941403   -6.337068    2.191249
     96          1           0       -2.309716   -5.142527    3.321837
     97          1           0       -3.569695   -6.374967    2.929365
     98          1           0        2.573060   -2.126574   -1.364207
     99          1           0        2.324728   -0.572351   -2.200856
    100          1           0        3.992510   -1.155729    0.486790
    101          1           0        5.219390    1.645995   -2.373681
    102          1           0        5.630415    0.142620   -3.318522
    103          1           0        3.840314    0.550393   -2.870712
    104          1           0        6.339466    1.355534   -0.031738
    105          1           0        6.026926   -0.331732    0.848715
    106          1           0        7.297093   -1.628943   -0.737737
    107          1           0        7.450994   -0.360579   -1.836511
    108          1           0        8.888533    0.828331    0.053611
    109          1           0        8.997508   -0.749237    0.932979
    110          1           0        9.859892   -0.303063   -1.647656
    111          1           0        9.294329   -2.727282   -1.696809
    112          1           0       11.025444   -2.739419   -1.604663
    113          1           0       10.037327   -2.851701   -0.163152
    114          1           0       11.297993    0.895774    0.125477
    115          1           0       11.304522   -0.463534    1.081433
    116          1           0       12.894481   -1.452132   -0.767967
    117          1           0       12.721402    0.125487   -1.770519
    118          1           0       13.768715    1.161262    0.292541
    119          1           0       13.826270   -0.345040    1.222978
    120          1           0       15.358149    0.121479   -1.197698
    121          1           0       15.185949   -2.481329   -0.853701
    122          1           0       16.852363   -1.802460   -0.562135
    123          1           0       15.673444   -2.117779    0.697593
    124          1           0       15.874953    1.731503    0.468532
    125          1           0       16.585984    0.038664    1.434465
    126          1           0       18.080929   -0.257079   -0.138034
    127          1           0       17.680022    0.994266   -1.468243
    128          1           0       18.438296    2.807177    0.541397
    129          1           0       18.458911    1.464024    1.649968
    130          1           0       20.432542    0.507535   -0.002071
    131          1           0       19.850808    3.193009   -1.481486
    132          1           0       21.362425    2.292020   -1.800114
    133          1           0       19.978415    1.652983   -2.129029
    134          1           0       21.072083    2.047410    2.093285
    135          1           0       22.070554    2.603913    0.654806
    136          1           0       20.563087    3.496262    1.055592
    137          1           0       -7.278975    1.858947    0.336143
    138          1           0       -7.609926   -0.170136   -0.103102
 ---------------------------------------------------------------------

 SCF Done:  E(RB3LYP) =  -2733.07996630     A.U. after   16 cycles

 Excitation energies and oscillator strengths:

 Excited State   1:      Singlet-A      2.0641 eV  600.66 nm  f=0.1409  <S**2>=0.000
     235 -> 237       -0.19817
     235 -> 238        0.30959
     236 -> 237        0.59035
     236 -> 238        0.11099
 This state for optimization and/or second-order correction.
 Total Energy, E(TD-HF/TD-DFT) =  -2733.00411083
 Copying the excited state density for this state as the 1-particle RhoCI density.

 The electronic state is 1-A.
 Alpha  occ. eigenvalues --  -19.17318 -19.16739 -19.13276 -19.12700 -19.12034
 Alpha  occ. eigenvalues --  -14.37913 -14.36842 -14.31198 -14.31036 -10.31558
 Alpha  occ. eigenvalues --  -10.31530 -10.27974 -10.25379 -10.24681 -10.24096
 Alpha  occ. eigenvalues --  -10.23872 -10.23809 -10.23734 -10.22515 -10.22435
 Alpha  occ. eigenvalues --  -10.22118 -10.22017 -10.21932 -10.21787 -10.21453
 Alpha  occ. eigenvalues --  -10.21396 -10.21302 -10.21205 -10.21186 -10.21134
 Alpha  occ. eigenvalues --  -10.21104 -10.20941 -10.20924 -10.20769 -10.20450
 Alpha  occ. eigenvalues --  -10.20410 -10.20258 -10.20186 -10.20018 -10.19948
 Alpha  occ. eigenvalues --  -10.19753 -10.19674 -10.19594 -10.19477 -10.19321
 Alpha  occ. eigenvalues --  -10.19307 -10.19199 -10.18994 -10.18947 -10.18911
 Alpha  occ. eigenvalues --  -10.18853 -10.18842 -10.18805 -10.18784 -10.18784
 Alpha  occ. eigenvalues --  -10.18678 -10.18641 -10.18284 -10.17958 -10.17816
 Alpha  occ. eigenvalues --  -10.17698 -10.17116 -10.17080 -10.16750  -1.08708
 Alpha  occ. eigenvalues --   -1.07580  -1.05314  -1.01351  -0.99070  -0.98687
 Alpha  occ. eigenvalues --   -0.97233  -0.94809  -0.94228  -0.84040  -0.83331
 Alpha  occ. eigenvalues --   -0.82619  -0.82466  -0.82012  -0.81471  -0.80722
 Alpha  occ. eigenvalues --   -0.80683  -0.79896  -0.79464  -0.78496  -0.77604
 Alpha  occ. eigenvalues --   -0.77024  -0.76062  -0.75244  -0.75016  -0.74561
 Alpha  occ. eigenvalues --   -0.73211  -0.72971  -0.72566  -0.71569  -0.70494
 Alpha  occ. eigenvalues --   -0.70157  -0.69166  -0.68395  -0.67986  -0.67555
 Alpha  occ. eigenvalues --   -0.66944  -0.66899  -0.66385  -0.65947  -0.65305
 Alpha  occ. eigenvalues --   -0.64061  -0.63574  -0.62277  -0.61847  -0.61584
 Alpha  occ. eigenvalues --   -0.61135  -0.59819  -0.58635  -0.58391  -0.57161
 Alpha  occ. eigenvalues --   -0.56969  -0.56762  -0.56163  -0.56106  -0.55626
 Alpha  occ. eigenvalues --   -0.55346  -0.54886  -0.54094  -0.53650  -0.53264
 Alpha  occ. eigenvalues --   -0.52805  -0.51936  -0.51723  -0.50970  -0.50479
 Alpha  occ. eigenvalues --   -0.49958  -0.49446  -0.49248  -0.48940  -0.48532
 Alpha  occ. eigenvalues --   -0.48059  -0.47992  -0.47368  -0.47270  -0.47109
 Alpha  occ. eigenvalues --   -0.46596  -0.46345  -0.46008  -0.45781  -0.45627
 Alpha  occ. eigenvalues --   -0.45335  -0.45007  -0.44792  -0.44689  -0.44501
 Alpha  occ. eigenvalues --   -0.44283  -0.44099  -0.44042  -0.43892  -0.43474
 Alpha  occ. eigenvalues --   -0.43351  -0.43218  -0.43185  -0.42798  -0.42541
 Alpha  occ. eigenvalues --   -0.42463  -0.42346  -0.41976  -0.41795  -0.41665
 Alpha  occ. eigenvalues --   -0.41315  -0.41137  -0.40792  -0.40375  -0.40190
 Alpha  occ. eigenvalues --   -0.40053  -0.39936  -0.39787  -0.39632  -0.39561
 Alpha  occ. eigenvalues --   -0.39444  -0.39333  -0.39072  -0.38921  -0.38695
 Alpha  occ. eigenvalues --   -0.38453  -0.38302  -0.38129  -0.37974  -0.37891
 Alpha  occ. eigenvalues --   -0.37550  -0.37437  -0.37054  -0.36880  -0.36488
 Alpha  occ. eigenvalues --   -0.36188  -0.35982  -0.35914  -0.35755  -0.35616
 Alpha  occ. eigenvalues --   -0.35259  -0.35150  -0.34915  -0.34850  -0.34731
 Alpha  occ. eigenvalues --   -0.34657  -0.34622  -0.34376  -0.34281  -0.34013
 Alpha  occ. eigenvalues --   -0.33473  -0.33433  -0.33283  -0.32904  -0.32638
 Alpha  occ. eigenvalues --   -0.32437  -0.32274  -0.32093  -0.31891  -0.31760
 Alpha  occ. eigenvalues --   -0.31107  -0.30730  -0.30688  -0.30027  -0.29931
 Alpha  occ. eigenvalues --   -0.29682  -0.29140  -0.28798  -0.28487  -0.27998
 Alpha  occ. eigenvalues --   -0.27729  -0.27669  -0.26692  -0.26237  -0.26137
 Alpha  occ. eigenvalues --   -0.24725  -0.24461  -0.24194  -0.23931  -0.19693
 Alpha  occ. eigenvalues --   -0.19080
 Alpha virt. eigenvalues --   -0.10292  -0.07878  -0.03772  -0.02270  -0.01813
 Alpha virt. eigenvalues --   -0.00572   0.00017   0.00733   0.01753   0.03350
 Alpha virt. eigenvalues --    0.03842   0.04147   0.04290   0.04493   0.04891

 Mulliken charges:
               1
     1  C    0.066910
     2  C   -0.042176
     3  C   -0.091690
     4  C   -0.006550
     5  N   -0.188403
     6  C   -0.038392
     7  C   -0.065863
     8  C   -0.059132
     9  C    0.020507
    10  C    0.135867
    11  C    0.103698
    12  C    0.002637
    13  C    0.211431
    14  O   -0.257079
    15  O   -0.346079
    16  N   -0.093935
    17  C    0.142500
    18  C   -0.115034
    19  C    0.040089
    20  C   -0.001148
    21  C    0.027958
    22  C   -0.054339
    23  C   -0.055607
    24  N   -0.247493
    25  C    0.102490
    26  C   -0.120000
    27  C   -0.007065
    28  C    0.063709
    29  C    0.001644
    30  C    0.062695
    31  C   -0.066904
    32  N   -0.010809
    33  C    0.019474
    34  C   -0.121828
    35  C   -0.047270
    36  C    0.030812
    37  C    0.044013
    38  C    0.053603
    39  O   -0.115959
    40  C   -0.021642
    41  C    0.177040
    42  O   -0.174023
    43  O   -0.342615
    44  C    0.195566
    45  C    0.242698
    46  C   -0.061189
    47  C   -0.136085
    48  C   -0.019446
    49  C   -0.004800
    50  C    0.096361
    51  C   -0.022912
    52  C    0.126070
    53  C   -0.019176
    54  C   -0.023136
    55  C    0.083501
    56  C    0.000982
    57  C    0.146972
    58  C   -0.059862
    59  C   -0.049198
    60  C    0.021256
    61  C    0.015311
    62  C   -0.141327
    63  C    0.085009
    64  C    0.019095
    65  H   -0.046187
    66  H   -0.004652
    67  H   -0.064598
    68  H   -0.003546
    69  H   -0.001725
    70  H   -0.011645
    71  H   -0.032564
    72  H    0.014741
    73  H   -0.032972
    74  H    0.015623
    75  H    0.051058
    76  H    0.047747
    77  H    0.037327
    78  H    0.037340
    79  H    0.033587
    80  H    0.019775
    81  H    0.051683
    82  H    0.052327
    83  H    0.041897
    84  H    0.044198
    85  H    0.013679
    86  H    0.021234
    87  H   -0.014962
    88  H    0.023927
    89  H    0.014729
    90  H    0.015071
    91  H    0.032149
    92  H    0.043601
    93  H    0.071079
    94  H    0.015588
    95  H   -0.000714
    96  H    0.025109
    97  H    0.030105
    98  H    0.033441
    99  H    0.047222
   100  H    0.013642
   101  H    0.020527
   102  H    0.047721
   103  H    0.022045
   104  H    0.042457
   105  H    0.013005
   106  H   -0.007941
   107  H   -0.022285
   108  H   -0.004878
   109  H   -0.006081
   110  H   -0.064359
   111  H    0.010327
   112  H    0.020545
   113  H   -0.008072
   114  H   -0.016499
   115  H   -0.022329
   116  H   -0.027936
   117  H    0.000543
   118  H   -0.015355
   119  H   -0.017176
   120  H   -0.099242
   121  H    0.016012
   122  H    0.015364
   123  H   -0.008462
   124  H    0.017616
   125  H    0.019399
   126  H   -0.013522
   127  H    0.027248
   128  H   -0.006803
   129  H   -0.000710
   130  H   -0.004034
   131  H   -0.009533
   132  H    0.003351
   133  H   -0.036148
   134  H    0.021012
   135  H    0.017739
   136  H   -0.005175
   137  H    0.136553
   138  H    0.199033
 Sum of Mulliken charges =  -0.00000

 Dipole moment (field-independent basis, Debye):
    X=              1.9657    Y=              4.1927    Z=              0.1167  Tot=              4.6321
 Quadrupole moment (field-independent basis, Debye-Ang):
   XX=           -358.8473   YY=           -381.6704   ZZ=           -396.2518
   XY=            -23.3616   XZ=              6.3362   YZ=             -2.2148

 Normal termination of Gaussian 16 at Fri Aug 16 17:14:20 2019.
