 Gaussian 16, Revision A.03,
 Gaussian 16:  ES64L-G16RevA.03 25-Dec-2016

 --------------------------
 # td=(NStates=1) B3LYP/SVP
 --------------------------

 --
 TD
 --
 Symbolic Z-matrix:
 Charge =  0 Multiplicity = 1

                         Standard orientation:
 ---------------------------------------------------------------------
 Center     Atomic      Atomic             Coordinates (Angstroms)
 Number     Number       Type             X           Y           Z
 ---------------------------------------------------------------------
      1          6           0       -5.110470   -1.891780    0.450550
      2          6           0       -4.770761    2.819347    1.389545
      3          6           0       -9.312995    3.349530   -0.121798
      4          6           0       -9.792723   -1.488128   -0.867805
      5          7           0       -5.154098    0.393854    0.672987
      6          6           0       -4.470058   -0.665839    0.675901
      7          6           0       -3.004560   -0.510240    1.195866
      8          6           0       -3.067655    0.939787    1.774110
      9          6           0       -4.427539    1.389252    1.261861
     10          6           0       -2.969764    0.854973    3.235756
     11          6           0       -2.066154   -0.716915    0.070398
     12          6           0       -0.562145   -0.816361    0.433435
     13          6           0        0.330241   -1.173255   -0.776505
     14          8           0       -0.047402   -1.600319   -1.787273
     15          8           0        1.607833   -0.812659   -0.505982
     16          7           0       -6.939751    2.792329    0.463384
     17          6           0       -5.875498    3.468668    0.873501
     18          6           0       -6.217256    4.887447    0.958172
     19          6           0       -7.562765    5.010041    0.532934
     20          6           0       -8.015306    3.677607    0.184285
     21          6           0       -5.203346    5.936900    1.401874
     22          6           0       -8.228837    6.347467    0.449253
     23          6           0       -9.135141    6.592108   -0.417251
     24          7           0       -9.201484    0.827874   -0.475322
     25          6           0       -9.952596    2.049645   -0.455394
     26          6           0      -11.234779    1.795871   -0.908003
     27          6           0      -11.415905    0.412462   -1.059811
     28          6           0      -10.117065   -0.152417   -0.800638
     29          6           0      -12.270120    2.814629   -1.006833
     30          6           0      -12.626422   -0.281391   -1.647271
     31          6           0      -12.524079   -0.649757   -3.092694
     32          7           0       -7.530569   -1.278469   -0.307653
     33          6           0       -8.545012   -2.010894   -0.615504
     34          6           0       -8.131452   -3.378715   -0.547186
     35          6           0       -6.800436   -3.405744   -0.168093
     36          6           0       -6.482396   -2.060421    0.095242
     37          6           0       -8.923664   -4.609298   -0.760336
     38          6           0       -5.751321   -4.325524    0.087831
     39          8           0       -5.599688   -5.497970    0.113925
     40          6           0       -4.498113   -3.282153    0.556465
     41          6           0       -3.849487   -3.766361    1.792397
     42          8           0       -4.183660   -3.390027    2.898525
     43          8           0       -2.884366   -4.683211    1.624176
     44          6           0       -2.307551   -5.223285    2.840879
     45          6           0        2.682750   -1.124382   -1.429796
     46          6           0        3.932163   -0.781841   -0.764459
     47          6           0        4.944184   -0.063035   -1.342690
     48          6           0        4.781709    0.716023   -2.711627
     49          6           0        6.183205    0.311821   -0.572085
     50          6           0        7.550347   -0.290892   -1.105806
     51          6           0        8.735825   -0.126790   -0.111036
     52          6           0       10.077748   -0.752241   -0.786677
     53          6           0        9.948144   -2.299910   -1.102992
     54          6           0       11.320696   -0.348745    0.135839
     55          6           0       12.689042   -0.554797   -0.487830
     56          6           0       13.786798   -0.054738    0.460382
     57          6           0       15.142702   -0.025691   -0.250665
     58          6           0       15.540612   -1.595875   -0.399796
     59          6           0       16.187193    0.780706    0.580238
     60          6           0       17.615590    0.673318    0.042570
     61          6           0       18.591756    1.659565    0.778944
     62          6           0       19.972181    1.594525    0.157730
     63          6           0       20.122041    2.102436   -1.395100
     64          6           0       21.032289    2.458710    1.155449
     65          1           0       -4.111329    3.533704    1.760150
     66          1           0      -10.075838    4.131617   -0.172084
     67          1           0      -10.423156   -2.288461   -1.136065
     68          1           0       -2.717638   -1.124118    2.095495
     69          1           0       -2.301388    1.508097    1.304330
     70          1           0       -1.820547    0.625004    3.486763
     71          1           0       -3.175436    1.920893    3.578430
     72          1           0       -3.651322    0.142926    3.640778
     73          1           0       -2.191955   -1.568543   -0.703029
     74          1           0       -2.047030    0.101545   -0.635423
     75          1           0       -0.241606    0.035868    1.180211
     76          1           0       -0.343362   -1.724826    1.071876
     77          1           0       -4.253362    5.897482    0.825159
     78          1           0       -5.602014    6.845551    1.616567
     79          1           0       -4.835229    5.697249    2.419192
     80          1           0       -8.042826    6.894336    1.255197
     81          1           0       -9.337426    6.046065   -1.259578
     82          1           0       -9.426470    7.576972   -0.629168
     83          1           0      -12.222607    3.585802   -0.105601
     84          1           0      -12.035679    3.434506   -1.807151
     85          1           0      -13.354351    2.451600   -1.107167
     86          1           0      -12.605691   -1.203300   -0.998718
     87          1           0      -13.656963    0.289108   -1.429258
     88          1           0      -12.424100    0.469343   -3.697732
     89          1           0      -11.579641   -1.104562   -3.374033
     90          1           0      -13.435662   -1.278763   -3.509268
     91          1           0       -9.865573   -4.556041   -0.091218
     92          1           0       -9.562635   -4.479716   -1.805778
     93          1           0       -8.522404   -5.395633   -0.436920
     94          1           0       -3.840419   -3.412821   -0.155414
     95          1           0       -1.417756   -5.892911    2.387928
     96          1           0       -1.954549   -4.636600    3.489784
     97          1           0       -3.078146   -5.788071    3.252815
     98          1           0        2.451037   -2.117104   -1.502730
     99          1           0        2.422907   -0.494876   -2.227101
    100          1           0        4.009217   -1.393107    0.084718
    101          1           0        4.636511    1.771262   -2.624641
    102          1           0        5.734463    0.367152   -3.357881
    103          1           0        3.894146    0.418826   -3.446378
    104          1           0        6.263845    1.577493   -0.663178
    105          1           0        6.112899   -0.061888    0.438545
    106          1           0        7.189127   -1.349986   -1.532873
    107          1           0        7.552850    0.208358   -2.096436
    108          1           0        8.794929    1.019028    0.270109
    109          1           0        8.489383   -0.880497    0.818739
    110          1           0       10.271234   -0.139400   -1.718310
    111          1           0        9.272604   -2.329418   -1.733015
    112          1           0       10.847459   -2.586031   -1.575950
    113          1           0        9.856168   -2.747573    0.038570
    114          1           0       11.123747    0.538144    0.467435
    115          1           0       11.335141   -0.823622    1.075668
    116          1           0       12.840077   -1.733176   -0.615097
    117          1           0       12.589615   -0.182001   -1.503741
    118          1           0       13.571006    1.081783    0.900561
    119          1           0       13.660166   -0.825154    1.378687
    120          1           0       14.955883    0.316510   -1.154046
    121          1           0       14.898967   -2.123193   -1.203747
    122          1           0       16.766253   -1.749838   -0.572899
    123          1           0       15.273605   -1.918059    0.690447
    124          1           0       15.884680    1.894639    0.670968
    125          1           0       16.152066    0.331895    1.514296
    126          1           0       18.186722   -0.488604    0.248571
    127          1           0       17.556366    0.828689   -1.051006
    128          1           0       17.840803    2.519871    0.683398
    129          1           0       18.573818    1.342719    1.902719
    130          1           0       20.370225    0.592919    0.128249
    131          1           0       19.913282    3.238018   -1.618526
    132          1           0       21.121736    1.782857   -1.842888
    133          1           0       19.355880    1.321338   -2.016216
    134          1           0       20.990136    2.153118    2.280543
    135          1           0       22.047559    2.502695    0.538570
    136          1           0       20.769515    3.359889    1.030643
    137          1           0       -7.062212    1.784921    0.439750
    138          1           0       -7.383206   -0.310049   -0.270715
 ---------------------------------------------------------------------

 SCF Done:  E(RB3LYP) =  -2732.95988601     A.U. after   18 cycles

 Excitation energies and oscillator strengths:

 Excited State   1:      Singlet-A      2.0839 eV  594.97 nm  f=0.0791  <S**2>=0.000
     235 -> 237       -0.14296
     235 -> 238        0.38771
     236 -> 237        0.55771
     236 -> 238        0.11629
 This state for optimization and/or second-order correction.
 Total Energy, E(TD-HF/TD-DFT) =  -2732.88330541
 Copying the excited state density for this state as the 1-particle RhoCI density.

 The electronic state is 1-A.
 Alpha  occ. eigenvalues --  -19.16952 -19.15526 -19.13273 -19.12520 -19.10449
 Alpha  occ. eigenvalues --  -14.36823 -14.36776 -14.32633 -14.28940 -10.30924
 Alpha  occ. eigenvalues --  -10.30047 -10.28313 -10.23945 -10.23942 -10.23485
 Alpha  occ. eigenvalues --  -10.23204 -10.23124 -10.22842 -10.22512 -10.22488
 Alpha  occ. eigenvalues --  -10.21907 -10.21682 -10.21384 -10.21265 -10.21103
 Alpha  occ. eigenvalues --  -10.21059 -10.21020 -10.20918 -10.20600 -10.20588
 Alpha  occ. eigenvalues --  -10.20567 -10.20551 -10.20416 -10.20249 -10.20226
 Alpha  occ. eigenvalues --  -10.20155 -10.20082 -10.20055 -10.20018 -10.20007
 Alpha  occ. eigenvalues --  -10.19978 -10.19911 -10.19803 -10.19761 -10.19670
 Alpha  occ. eigenvalues --  -10.19426 -10.19405 -10.19395 -10.19222 -10.19190
 Alpha  occ. eigenvalues --  -10.19065 -10.18824 -10.18811 -10.18734 -10.18666
 Alpha  occ. eigenvalues --  -10.18582 -10.18354 -10.18247 -10.18023 -10.17946
 Alpha  occ. eigenvalues --  -10.17802 -10.17784 -10.17429 -10.15986  -1.09687
 Alpha  occ. eigenvalues --   -1.08486  -1.05010  -1.01774  -1.01186  -0.98759
 Alpha  occ. eigenvalues --   -0.98311  -0.96817  -0.91424  -0.84907  -0.82663
 Alpha  occ. eigenvalues --   -0.82185  -0.81948  -0.81630  -0.81366  -0.80238
 Alpha  occ. eigenvalues --   -0.79957  -0.79530  -0.78530  -0.78383  -0.77890
 Alpha  occ. eigenvalues --   -0.77273  -0.76529  -0.75858  -0.74958  -0.74272
 Alpha  occ. eigenvalues --   -0.73818  -0.72822  -0.72489  -0.71584  -0.71499
 Alpha  occ. eigenvalues --   -0.70475  -0.69619  -0.68995  -0.67745  -0.67697
 Alpha  occ. eigenvalues --   -0.66815  -0.66146  -0.66064  -0.65451  -0.64733
 Alpha  occ. eigenvalues --   -0.64541  -0.63604  -0.62807  -0.61596  -0.60663
 Alpha  occ. eigenvalues --   -0.60290  -0.59281  -0.58620  -0.58237  -0.57815
 Alpha  occ. eigenvalues --   -0.57199  -0.57038  -0.56650  -0.56416  -0.56006
 Alpha  occ. eigenvalues --   -0.55327  -0.55204  -0.55030  -0.54658  -0.53853
 Alpha  occ. eigenvalues --   -0.53406  -0.52449  -0.51483  -0.50962  -0.50863
 Alpha  occ. eigenvalues --   -0.50488  -0.49864  -0.48984  -0.48925  -0.48086
 Alpha  occ. eigenvalues --   -0.47749  -0.47365  -0.47324  -0.46895  -0.46689
 Alpha  occ. eigenvalues --   -0.46428  -0.46340  -0.46123  -0.46106  -0.45852
 Alpha  occ. eigenvalues --   -0.45718  -0.45528  -0.45372  -0.44982  -0.44797
 Alpha  occ. eigenvalues --   -0.44643  -0.44446  -0.44339  -0.43722  -0.43604
 Alpha  occ. eigenvalues --   -0.43372  -0.43260  -0.43147  -0.43089  -0.42879
 Alpha  occ. eigenvalues --   -0.42456  -0.42418  -0.42170  -0.41875  -0.41608
 Alpha  occ. eigenvalues --   -0.41176  -0.41091  -0.41036  -0.40730  -0.40423
 Alpha  occ. eigenvalues --   -0.40247  -0.39967  -0.39762  -0.39562  -0.39344
 Alpha  occ. eigenvalues --   -0.39112  -0.39047  -0.38868  -0.38744  -0.38647
 Alpha  occ. eigenvalues --   -0.38303  -0.38223  -0.37994  -0.37660  -0.37492
 Alpha  occ. eigenvalues --   -0.37306  -0.36979  -0.36896  -0.36703  -0.36330
 Alpha  occ. eigenvalues --   -0.36312  -0.36230  -0.36091  -0.35944  -0.35693
 Alpha  occ. eigenvalues --   -0.35621  -0.35441  -0.35213  -0.35090  -0.34862
 Alpha  occ. eigenvalues --   -0.34689  -0.34150  -0.33934  -0.33928  -0.33776
 Alpha  occ. eigenvalues --   -0.33482  -0.33405  -0.32864  -0.32754  -0.32616
 Alpha  occ. eigenvalues --   -0.32583  -0.32065  -0.31623  -0.31309  -0.31068
 Alpha  occ. eigenvalues --   -0.30985  -0.30901  -0.30508  -0.30031  -0.29892
 Alpha  occ. eigenvalues --   -0.29694  -0.28967  -0.28740  -0.28463  -0.27881
 Alpha  occ. eigenvalues --   -0.27406  -0.26774  -0.26283  -0.25893  -0.25587
 Alpha  occ. eigenvalues --   -0.24940  -0.24777  -0.24633  -0.21322  -0.19526
 Alpha  occ. eigenvalues --   -0.18928
 Alpha virt. eigenvalues --   -0.09746  -0.08298  -0.04538  -0.01641  -0.01578
 Alpha virt. eigenvalues --    0.00054   0.00856   0.02008   0.03013   0.03585
 Alpha virt. eigenvalues --    0.04077   0.04187   0.04290   0.04387   0.04992

 Mulliken charges:
               1
     1  C    0.032093
     2  C   -0.035233
     3  C   -0.072136
     4  C   -0.070342
     5  N   -0.102972
     6  C   -0.102946
     7  C   -0.038804
     8  C   -0.012890
     9  C   -0.008956
    10  C    0.068272
    11  C    0.034306
    12  C   -0.024238
    13  C    0.148167
    14  O   -0.180091
    15  O   -0.369704
    16  N   -0.055482
    17  C    0.072621
    18  C   -0.153685
    19  C   -0.022207
    20  C    0.142538
    21  C    0.162749
    22  C    0.041748
    23  C    0.040070
    24  N   -0.305838
    25  C    0.020125
    26  C   -0.099034
    27  C   -0.104920
    28  C    0.128557
    29  C    0.087033
    30  C    0.042602
    31  C   -0.026245
    32  N    0.093406
    33  C    0.018871
    34  C   -0.159118
    35  C   -0.005413
    36  C    0.032699
    37  C    0.183529
    38  C    0.051583
    39  O   -0.115193
    40  C    0.040512
    41  C    0.159557
    42  O   -0.256916
    43  O   -0.309999
    44  C    0.275013
    45  C    0.397050
    46  C   -0.075550
    47  C   -0.102615
    48  C   -0.017674
    49  C    0.034029
    50  C   -0.052285
    51  C   -0.006818
    52  C   -0.151132
    53  C    0.168498
    54  C    0.155487
    55  C   -0.000743
    56  C   -0.065925
    57  C    0.008411
    58  C   -0.088041
    59  C    0.104695
    60  C   -0.107132
    61  C    0.036509
    62  C   -0.064061
    63  C   -0.090432
    64  C    0.057100
    65  H   -0.061805
    66  H   -0.028699
    67  H   -0.064116
    68  H    0.024095
    69  H   -0.016957
    70  H    0.026767
    71  H    0.009386
    72  H    0.037481
    73  H    0.039957
    74  H   -0.008805
    75  H    0.035366
    76  H    0.022411
    77  H    0.037655
    78  H   -0.023872
    79  H    0.009010
    80  H   -0.033138
    81  H   -0.000736
    82  H    0.000841
    83  H    0.027825
    84  H   -0.008250
    85  H    0.021350
    86  H    0.006526
    87  H    0.021931
    88  H    0.015756
    89  H    0.013129
    90  H    0.037700
    91  H    0.017811
    92  H    0.045416
    93  H   -0.043427
    94  H   -0.027923
    95  H    0.040663
    96  H   -0.026871
    97  H    0.013595
    98  H   -0.021261
    99  H   -0.015318
   100  H   -0.030178
   101  H    0.037758
   102  H    0.042335
   103  H    0.031607
   104  H    0.027271
   105  H   -0.004093
   106  H    0.022886
   107  H   -0.006649
   108  H    0.039949
   109  H    0.022043
   110  H   -0.003626
   111  H   -0.065221
   112  H   -0.007262
   113  H    0.038218
   114  H   -0.083059
   115  H   -0.054066
   116  H    0.016632
   117  H   -0.011152
   118  H    0.012017
   119  H    0.022959
   120  H   -0.051181
   121  H    0.044344
   122  H    0.041226
   123  H    0.021584
   124  H    0.011593
   125  H   -0.029490
   126  H    0.013979
   127  H    0.015780
   128  H    0.002059
   129  H    0.012899
   130  H    0.002130
   131  H    0.046746
   132  H    0.028901
   133  H    0.030157
   134  H    0.037497
   135  H    0.006152
   136  H   -0.048866
   137  H    0.143569
   138  H    0.116004
 Sum of Mulliken charges =  -0.00000

 Dipole moment (field-independent basis, Debye):
    X=              3.3108    Y=              4.9977    Z=              0.0741  Tot=              5.9953
 Quadrupole moment (field-independent basis, Debye-Ang):
   XX=           -371.7934   YY=           -379.0100   ZZ=           -395.4759
   XY=            -19.5735   XZ=              2.1829   YZ=              0.3641

 Normal termination of Gaussian 16 at Fri Aug 23 14:52:58 2019.
