 Gaussian 16, Revision A.03,
 Gaussian 16:  ES64L-G16RevA.03 25-Dec-2016

 --------------------------
 # td=(NStates=1) B3LYP/SVP
 --------------------------

 --
 TD
 --
 Symbolic Z-matrix:
 Charge =  0 Multiplicity = 1

                         Standard orientation:
 ---------------------------------------------------------------------
 Center     Atomic      Atomic             Coordinates (Angstroms)
 Number     Number       Type             X           Y           Z
 ---------------------------------------------------------------------
      1          6           0       -5.194077   -1.978841    0.422895
      2          6           0       -4.664460    2.785994    1.297840
      3          6           0       -9.390425    3.313730   -0.095924
      4          6           0       -9.868436   -1.340089   -0.962086
      5          7           0       -5.230616    0.420007    0.695626
      6          6           0       -4.539571   -0.731754    0.755525
      7          6           0       -3.093163   -0.583598    1.130400
      8          6           0       -3.042904    0.853983    1.759124
      9          6           0       -4.390974    1.399450    1.263761
     10          6           0       -2.653327    0.809899    3.261496
     11          6           0       -1.988542   -0.745838    0.104108
     12          6           0       -0.567062   -0.894514    0.543315
     13          6           0        0.413891   -1.075528   -0.606257
     14          8           0        0.132079   -1.399249   -1.699936
     15          8           0        1.586496   -0.834214   -0.227245
     16          7           0       -7.050029    2.781412    0.465178
     17          6           0       -5.840153    3.388374    0.871225
     18          6           0       -6.171601    4.772925    0.928360
     19          6           0       -7.577990    5.005005    0.546861
     20          6           0       -8.148930    3.708084    0.285094
     21          6           0       -5.262664    5.910935    1.371405
     22          6           0       -8.219199    6.319898    0.356130
     23          6           0       -9.137289    6.587196   -0.536852
     24          7           0       -9.193788    0.920359   -0.337085
     25          6           0       -9.894951    2.072147   -0.418225
     26          6           0      -11.320087    1.882360   -0.807559
     27          6           0      -11.416004    0.553445   -0.987301
     28          6           0      -10.136650   -0.006573   -0.754950
     29          6           0      -12.272662    3.008926   -0.929096
     30          6           0      -12.662245   -0.267895   -1.485908
     31          6           0      -12.682852   -0.385157   -3.128048
     32          7           0       -7.613522   -1.302155   -0.109711
     33          6           0       -8.677836   -2.021575   -0.505776
     34          6           0       -8.185766   -3.411999   -0.644605
     35          6           0       -6.914005   -3.385170   -0.255917
     36          6           0       -6.526998   -2.038984    0.007327
     37          6           0       -9.025576   -4.546505   -1.214012
     38          6           0       -5.714884   -4.276642   -0.131494
     39          8           0       -5.673164   -5.549007   -0.111061
     40          6           0       -4.591260   -3.361251    0.292621
     41          6           0       -3.991969   -3.830216    1.631983
     42          8           0       -4.134991   -3.316339    2.768469
     43          8           0       -3.171622   -4.911122    1.518355
     44          6           0       -2.747088   -5.460787    2.697403
     45          6           0        2.714111   -1.124853   -1.200337
     46          6           0        4.099257   -0.719128   -0.461513
     47          6           0        5.006128   -0.018690   -1.064935
     48          6           0        4.948450    0.688747   -2.464275
     49          6           0        6.348786    0.166691   -0.311516
     50          6           0        7.576454   -0.470910   -0.945774
     51          6           0        8.753495   -0.323550   -0.066638
     52          6           0       10.043347   -0.810584   -0.676292
     53          6           0       10.135491   -2.301133   -1.015852
     54          6           0       11.309227   -0.425315    0.151898
     55          6           0       12.653709   -0.753614   -0.437795
     56          6           0       13.751425    0.216595    0.179009
     57          6           0       15.212307   -0.153420   -0.313386
     58          6           0       15.607231   -1.616929   -0.128950
     59          6           0       16.263033    0.882691    0.416304
     60          6           0       17.610872    0.956419   -0.138839
     61          6           0       18.603916    1.704263    0.607577
     62          6           0       20.087364    1.625873   -0.025681
     63          6           0       20.165811    2.371436   -1.420347
     64          6           0       21.159633    2.151005    1.041475
     65          1           0       -3.930316    3.558435    1.451081
     66          1           0      -10.231434    4.275225   -0.265005
     67          1           0      -10.626236   -2.097627   -1.449272
     68          1           0       -2.865465   -1.640644    1.741471
     69          1           0       -2.319207    1.402903    1.280804
     70          1           0       -1.630479    0.331919    3.305019
     71          1           0       -3.013859    1.782950    3.706908
     72          1           0       -3.382751    0.240609    3.707319
     73          1           0       -1.995326   -1.739512   -0.586519
     74          1           0       -2.072640    0.081776   -0.827053
     75          1           0       -0.104535   -0.013280    1.183758
     76          1           0       -0.605453   -1.831067    1.174733
     77          1           0       -4.513357    6.175115    0.333718
     78          1           0       -5.740368    6.878393    1.415559
     79          1           0       -4.539037    5.439254    2.270221
     80          1           0       -7.997325    7.059685    1.051890
     81          1           0       -9.552335    6.125369   -1.332021
     82          1           0       -9.631888    7.552838   -0.463589
     83          1           0      -12.214415    3.854602   -0.099950
     84          1           0      -11.970534    3.619593   -1.914679
     85          1           0      -13.317961    2.733334   -0.910363
     86          1           0      -12.730601   -1.187363   -1.102266
     87          1           0      -13.655102    0.197558   -1.082249
     88          1           0      -12.400599    0.768775   -3.388298
     89          1           0      -11.838651   -0.906998   -3.397939
     90          1           0      -13.705733   -0.819680   -3.433844
     91          1           0       -9.793107   -4.775840   -0.180507
     92          1           0       -9.718433   -4.369302   -2.192259
     93          1           0       -8.257159   -5.545376   -1.635796
     94          1           0       -3.741076   -3.595417   -0.396725
     95          1           0       -2.082798   -6.283305    2.320093
     96          1           0       -2.236090   -4.617763    3.518436
     97          1           0       -3.652473   -5.976730    3.264590
     98          1           0        2.779750   -2.272109   -1.409661
     99          1           0        2.574810   -0.525626   -2.150031
    100          1           0        4.290483   -1.070615    0.699629
    101          1           0        5.546491    1.553940   -2.351264
    102          1           0        5.179133    0.006747   -3.242655
    103          1           0        3.938234    0.842526   -2.743965
    104          1           0        6.526800    1.232718   -0.352520
    105          1           0        6.388067   -0.006347    0.677022
    106          1           0        7.536685   -1.548304   -1.047785
    107          1           0        7.853760   -0.032127   -1.847444
    108          1           0        8.923225    0.798041    0.254285
    109          1           0        8.843367   -0.847474    0.830602
    110          1           0       10.152947   -0.080828   -1.658588
    111          1           0        9.513921   -2.387732   -1.914118
    112          1           0       10.954776   -2.582881   -1.643247
    113          1           0        9.950722   -2.910835   -0.191192
    114          1           0       11.227610    0.579983    0.079172
    115          1           0       11.411353   -0.804789    1.312608
    116          1           0       12.989596   -1.783807   -0.406154
    117          1           0       12.633111   -0.508682   -1.581534
    118          1           0       13.379368    1.416426    0.116137
    119          1           0       13.798663   -0.085450    1.217617
    120          1           0       15.343591    0.168245   -1.397367
    121          1           0       14.946518   -2.486974   -0.679677
    122          1           0       16.765770   -1.781560   -0.593432
    123          1           0       15.747798   -1.888092    0.942739
    124          1           0       15.824988    1.938353    0.378100
    125          1           0       16.358092    0.523005    1.483282
    126          1           0       17.963923   -0.154363   -0.171376
    127          1           0       17.489781    1.150208   -1.061570
    128          1           0       18.200875    2.663394    0.750476
    129          1           0       18.874054    1.304121    1.490172
    130          1           0       20.287073    0.594197   -0.057138
    131          1           0       19.879565    3.414989   -1.222421
    132          1           0       21.141500    2.196725   -1.791431
    133          1           0       19.349055    1.914011   -2.123476
    134          1           0       21.006470    1.683987    2.073372
    135          1           0       22.191890    2.230019    0.724786
    136          1           0       20.982830    3.292176    1.262984
    137          1           0       -7.139553    1.783392    0.705910
    138          1           0       -7.549102   -0.315142   -0.136802
 ---------------------------------------------------------------------

 SCF Done:  E(RB3LYP) =  -2732.99569767     A.U. after   17 cycles

 Excitation energies and oscillator strengths:

 Excited State   1:      Singlet-A      2.0029 eV  619.03 nm  f=0.1831  <S**2>=0.000
     235 -> 237       -0.11850
     235 -> 238       -0.28180
     236 -> 237        0.63008
 This state for optimization and/or second-order correction.
 Total Energy, E(TD-HF/TD-DFT) =  -2732.92209366
 Copying the excited state density for this state as the 1-particle RhoCI density.

 The electronic state is 1-A.
 Alpha  occ. eigenvalues --  -19.18510 -19.18092 -19.12921 -19.12513 -19.10877
 Alpha  occ. eigenvalues --  -14.37068 -14.35668 -14.33173 -14.30057 -10.32632
 Alpha  occ. eigenvalues --  -10.30166 -10.28649 -10.27509 -10.25918 -10.24163
 Alpha  occ. eigenvalues --  -10.23837 -10.23789 -10.23590 -10.23475 -10.23386
 Alpha  occ. eigenvalues --  -10.23143 -10.22835 -10.22658 -10.21757 -10.21065
 Alpha  occ. eigenvalues --  -10.21043 -10.20957 -10.20951 -10.20903 -10.20903
 Alpha  occ. eigenvalues --  -10.20828 -10.20761 -10.20756 -10.20739 -10.20633
 Alpha  occ. eigenvalues --  -10.20559 -10.20289 -10.20255 -10.20178 -10.20004
 Alpha  occ. eigenvalues --  -10.19813 -10.19813 -10.19753 -10.19652 -10.19641
 Alpha  occ. eigenvalues --  -10.19498 -10.19296 -10.19241 -10.18872 -10.18827
 Alpha  occ. eigenvalues --  -10.18795 -10.18697 -10.18413 -10.18338 -10.18332
 Alpha  occ. eigenvalues --  -10.18310 -10.18282 -10.18106 -10.17931 -10.17840
 Alpha  occ. eigenvalues --  -10.17758 -10.17221 -10.16254 -10.15847  -1.12113
 Alpha  occ. eigenvalues --   -1.10470  -1.01211  -1.01053  -0.99712  -0.99412
 Alpha  occ. eigenvalues --   -0.95130  -0.94039  -0.93561  -0.85799  -0.83398
 Alpha  occ. eigenvalues --   -0.81848  -0.81440  -0.81394  -0.81043  -0.80713
 Alpha  occ. eigenvalues --   -0.80243  -0.78993  -0.78914  -0.78839  -0.77680
 Alpha  occ. eigenvalues --   -0.77012  -0.76170  -0.75883  -0.75001  -0.74273
 Alpha  occ. eigenvalues --   -0.73398  -0.73275  -0.72302  -0.71879  -0.70150
 Alpha  occ. eigenvalues --   -0.69892  -0.69355  -0.69039  -0.68213  -0.67619
 Alpha  occ. eigenvalues --   -0.67243  -0.67069  -0.66280  -0.65831  -0.65504
 Alpha  occ. eigenvalues --   -0.64224  -0.62852  -0.62426  -0.62080  -0.61663
 Alpha  occ. eigenvalues --   -0.60833  -0.59429  -0.58566  -0.57812  -0.57022
 Alpha  occ. eigenvalues --   -0.56949  -0.56266  -0.55878  -0.55168  -0.54827
 Alpha  occ. eigenvalues --   -0.54672  -0.54518  -0.53968  -0.53441  -0.52979
 Alpha  occ. eigenvalues --   -0.52125  -0.51872  -0.51640  -0.50990  -0.50523
 Alpha  occ. eigenvalues --   -0.50353  -0.49511  -0.49414  -0.49181  -0.48702
 Alpha  occ. eigenvalues --   -0.48060  -0.47844  -0.47588  -0.47424  -0.46880
 Alpha  occ. eigenvalues --   -0.46674  -0.46560  -0.45688  -0.45515  -0.45290
 Alpha  occ. eigenvalues --   -0.45219  -0.45192  -0.45020  -0.44803  -0.44523
 Alpha  occ. eigenvalues --   -0.44320  -0.44054  -0.43848  -0.43708  -0.43610
 Alpha  occ. eigenvalues --   -0.43337  -0.43154  -0.42996  -0.42816  -0.42716
 Alpha  occ. eigenvalues --   -0.42324  -0.42237  -0.41866  -0.41644  -0.41508
 Alpha  occ. eigenvalues --   -0.41320  -0.41311  -0.40776  -0.40552  -0.40350
 Alpha  occ. eigenvalues --   -0.40143  -0.40016  -0.39693  -0.39263  -0.39148
 Alpha  occ. eigenvalues --   -0.38972  -0.38754  -0.38322  -0.38203  -0.38102
 Alpha  occ. eigenvalues --   -0.37799  -0.37740  -0.37655  -0.37525  -0.37472
 Alpha  occ. eigenvalues --   -0.37182  -0.37017  -0.36862  -0.36654  -0.36614
 Alpha  occ. eigenvalues --   -0.36172  -0.36124  -0.35850  -0.35614  -0.35531
 Alpha  occ. eigenvalues --   -0.35339  -0.34946  -0.34863  -0.34781  -0.34542
 Alpha  occ. eigenvalues --   -0.34385  -0.34331  -0.34194  -0.33907  -0.33698
 Alpha  occ. eigenvalues --   -0.33496  -0.33316  -0.33035  -0.32683  -0.32339
 Alpha  occ. eigenvalues --   -0.32192  -0.31806  -0.31481  -0.31303  -0.31189
 Alpha  occ. eigenvalues --   -0.30475  -0.30349  -0.30205  -0.30153  -0.29689
 Alpha  occ. eigenvalues --   -0.29480  -0.29387  -0.28647  -0.28312  -0.27974
 Alpha  occ. eigenvalues --   -0.27858  -0.27432  -0.27391  -0.26696  -0.26181
 Alpha  occ. eigenvalues --   -0.26032  -0.25279  -0.23289  -0.22996  -0.20038
 Alpha  occ. eigenvalues --   -0.18674
 Alpha virt. eigenvalues --   -0.10293  -0.07797  -0.05305  -0.02338  -0.01367
 Alpha virt. eigenvalues --   -0.00022   0.00694   0.01235   0.02537   0.03020
 Alpha virt. eigenvalues --    0.03613   0.03854   0.03966   0.04210   0.04313

 Mulliken charges:
               1
     1  C   -0.019618
     2  C   -0.065095
     3  C   -0.142667
     4  C   -0.135278
     5  N   -0.191723
     6  C    0.006937
     7  C   -0.085272
     8  C    0.033761
     9  C    0.025484
    10  C    0.143289
    11  C   -0.086688
    12  C   -0.001185
    13  C    0.117885
    14  O   -0.219109
    15  O   -0.255746
    16  N   -0.158828
    17  C    0.104050
    18  C   -0.133592
    19  C    0.052986
    20  C    0.110769
    21  C    0.003948
    22  C   -0.000338
    23  C   -0.000984
    24  N   -0.223020
    25  C    0.046976
    26  C   -0.092573
    27  C   -0.122488
    28  C    0.132355
    29  C    0.038669
    30  C    0.084108
    31  C   -0.016119
    32  N    0.074475
    33  C    0.018452
    34  C   -0.123920
    35  C   -0.002134
    36  C    0.042595
    37  C   -0.100181
    38  C    0.109039
    39  O   -0.222270
    40  C    0.011532
    41  C    0.198600
    42  O   -0.260496
    43  O   -0.255150
    44  C    0.088533
    45  C    0.197143
    46  C   -0.126078
    47  C   -0.146846
    48  C    0.159570
    49  C    0.138371
    50  C    0.125946
    51  C    0.002013
    52  C   -0.185690
    53  C    0.128585
    54  C    0.094941
    55  C   -0.005917
    56  C   -0.007184
    57  C   -0.065304
    58  C   -0.065626
    59  C   -0.014615
    60  C    0.116855
    61  C    0.138004
    62  C   -0.102772
    63  C    0.034240
    64  C   -0.016973
    65  H   -0.019682
    66  H    0.029749
    67  H    0.021467
    68  H    0.042945
    69  H   -0.026489
    70  H    0.040633
    71  H   -0.000310
    72  H   -0.012218
    73  H    0.035338
    74  H    0.020642
    75  H    0.038861
    76  H    0.032568
    77  H    0.037143
    78  H    0.018216
    79  H    0.065662
    80  H   -0.011900
    81  H   -0.013183
    82  H    0.006976
    83  H    0.039091
    84  H    0.040851
    85  H    0.013399
    86  H   -0.037233
    87  H    0.006786
    88  H    0.035345
    89  H   -0.001168
    90  H    0.046539
    91  H    0.072358
    92  H    0.065375
    93  H    0.082577
    94  H    0.062381
    95  H    0.039758
    96  H    0.060400
    97  H    0.044707
    98  H    0.062299
    99  H    0.048206
   100  H    0.037199
   101  H    0.019210
   102  H    0.014606
   103  H   -0.008847
   104  H   -0.022405
   105  H   -0.048502
   106  H   -0.008317
   107  H   -0.032923
   108  H   -0.010448
   109  H   -0.029777
   110  H   -0.010657
   111  H   -0.015761
   112  H   -0.011102
   113  H    0.006688
   114  H   -0.046322
   115  H    0.008060
   116  H   -0.001137
   117  H   -0.011575
   118  H    0.028994
   119  H   -0.012996
   120  H   -0.001658
   121  H    0.049962
   122  H    0.031308
   123  H    0.019475
   124  H   -0.002808
   125  H   -0.010856
   126  H   -0.029166
   127  H   -0.084228
   128  H   -0.030148
   129  H   -0.051961
   130  H   -0.015157
   131  H    0.016526
   132  H    0.010822
   133  H    0.023134
   134  H    0.022552
   135  H    0.008723
   136  H   -0.002018
   137  H    0.157103
   138  H    0.127683
 Sum of Mulliken charges =  -0.00000

 Dipole moment (field-independent basis, Debye):
    X=              2.9828    Y=              3.5522    Z=             -0.4496  Tot=              4.6602
 Quadrupole moment (field-independent basis, Debye-Ang):
   XX=           -345.6392   YY=           -386.7554   ZZ=           -397.8533
   XY=            -28.4784   XZ=              7.3330   YZ=              0.9867

 Normal termination of Gaussian 16 at Mon Aug 26 20:08:52 2019.
