 Gaussian 16, Revision A.03,
 Gaussian 16:  ES64L-G16RevA.03 25-Dec-2016

 --------------------------
 # td=(NStates=1) B3LYP/SVP
 --------------------------

 --
 TD
 --
 Symbolic Z-matrix:
 Charge =  0 Multiplicity = 1

                         Standard orientation:
 ---------------------------------------------------------------------
 Center     Atomic      Atomic             Coordinates (Angstroms)
 Number     Number       Type             X           Y           Z
 ---------------------------------------------------------------------
      1          6           0       -5.083566   -1.985729    0.366112
      2          6           0       -4.735139    2.706298    1.643083
      3          6           0       -9.281687    3.400584   -0.200679
      4          6           0       -9.762482   -1.364372   -1.316320
      5          7           0       -5.120465    0.481176    0.719694
      6          6           0       -4.501469   -0.736585    0.824563
      7          6           0       -3.186048   -0.605199    1.421774
      8          6           0       -3.139635    0.818184    2.067143
      9          6           0       -4.413667    1.388245    1.340298
     10          6           0       -3.356012    0.642134    3.602021
     11          6           0       -2.077695   -0.679969    0.317733
     12          6           0       -0.607126   -0.707709    0.816896
     13          6           0        0.367829   -1.011598   -0.248112
     14          8           0        0.170321   -1.641469   -1.272842
     15          8           0        1.580497   -0.708334    0.073249
     16          7           0       -7.034723    2.652747    0.580279
     17          6           0       -5.911679    3.400805    1.047019
     18          6           0       -6.258295    4.690879    1.128074
     19          6           0       -7.539687    4.880134    0.726143
     20          6           0       -8.030640    3.589911    0.255590
     21          6           0       -5.328573    5.763076    1.692552
     22          6           0       -8.258972    6.215441    0.538636
     23          6           0       -9.073602    6.491997   -0.501838
     24          7           0       -9.169379    0.918398   -0.612205
     25          6           0       -9.782737    2.181618   -0.665015
     26          6           0      -11.194204    2.052081   -1.227532
     27          6           0      -11.309628    0.698962   -1.439332
     28          6           0      -10.063620    0.053484   -1.088827
     29          6           0      -12.140756    3.140577   -1.285031
     30          6           0      -12.491274    0.045710   -1.911298
     31          6           0      -12.492903   -0.280722   -3.409486
     32          7           0       -7.455705   -1.255803   -0.397207
     33          6           0       -8.528904   -2.017622   -0.954226
     34          6           0       -8.107890   -3.433900   -0.978862
     35          6           0       -6.824222   -3.458840   -0.484327
     36          6           0       -6.426166   -2.064228   -0.171431
     37          6           0       -8.974134   -4.558356   -1.468233
     38          6           0       -5.741995   -4.262371   -0.056464
     39          8           0       -5.714488   -5.539518   -0.221510
     40          6           0       -4.570907   -3.413777    0.457971
     41          6           0       -4.098840   -3.877496    1.795557
     42          8           0       -4.454929   -3.516166    2.868954
     43          8           0       -3.313572   -4.916764    1.645888
     44          6           0       -2.850900   -5.540666    2.862540
     45          6           0        2.603832   -0.955485   -0.861776
     46          6           0        3.944356   -0.705532   -0.326398
     47          6           0        4.997854    0.016048   -0.900065
     48          6           0        4.974493    0.693596   -2.263805
     49          6           0        6.331087    0.167581   -0.171786
     50          6           0        7.565412   -0.293429   -0.856299
     51          6           0        8.752895   -0.171634   -0.019456
     52          6           0       10.073427   -0.738780   -0.593812
     53          6           0        9.973625   -2.331160   -0.800853
     54          6           0       11.345188   -0.297348    0.218100
     55          6           0       12.651204   -0.583109   -0.521815
     56          6           0       13.873818    0.077888    0.226515
     57          6           0       15.255487   -0.162331   -0.434415
     58          6           0       15.646055   -1.632585   -0.738075
     59          6           0       16.301497    0.611835    0.340006
     60          6           0       17.719201    0.650432   -0.400459
     61          6           0       18.716030    1.561153    0.383117
     62          6           0       20.266677    1.679855   -0.097282
     63          6           0       20.347515    2.331717   -1.508956
     64          6           0       21.071691    2.511941    0.855759
     65          1           0       -3.988691    3.418999    2.156664
     66          1           0       -9.855599    4.396890   -0.469446
     67          1           0      -10.579167   -2.036692   -1.323465
     68          1           0       -2.868202   -1.485859    2.157716
     69          1           0       -2.217324    1.365792    1.848124
     70          1           0       -2.537351    0.015531    4.225302
     71          1           0       -3.355645    1.532525    3.989309
     72          1           0       -4.302027    0.132798    3.975103
     73          1           0       -2.329251   -1.471165   -0.370525
     74          1           0       -2.332327    0.184067   -0.276597
     75          1           0       -0.452745    0.146675    1.396829
     76          1           0       -0.866093   -1.528443    1.601501
     77          1           0       -4.498258    6.168331    1.012256
     78          1           0       -5.920952    6.681532    2.067965
     79          1           0       -4.910699    5.633325    2.777477
     80          1           0       -8.117898    6.910325    1.264000
     81          1           0       -9.130480    5.991040   -1.672683
     82          1           0       -9.303194    7.449933   -0.724542
     83          1           0      -12.328256    3.537173   -0.303459
     84          1           0      -11.723511    3.961227   -1.888425
     85          1           0      -13.124685    2.848218   -1.811699
     86          1           0      -12.729674   -1.012314   -1.274209
     87          1           0      -13.521721    0.604490   -1.562292
     88          1           0      -12.039188    0.596012   -4.040491
     89          1           0      -11.508872   -0.719197   -3.506061
     90          1           0      -13.361593   -1.024405   -3.895314
     91          1           0       -9.787685   -4.879695   -0.835448
     92          1           0       -9.495322   -4.180397   -2.415348
     93          1           0       -8.403164   -5.516508   -1.477063
     94          1           0       -3.697789   -3.396799   -0.217054
     95          1           0       -2.569378   -6.646137    2.370599
     96          1           0       -1.979377   -5.175099    3.408318
     97          1           0       -3.713744   -5.641412    3.738959
     98          1           0        2.452286   -2.105498   -1.076735
     99          1           0        2.503970   -0.529367   -1.842646
    100          1           0        4.160495   -1.204849    0.609650
    101          1           0        5.181468    1.730099   -2.124696
    102          1           0        5.680988    0.179658   -2.865633
    103          1           0        3.989116    0.722389   -2.704045
    104          1           0        6.446471    1.295913    0.016447
    105          1           0        6.251918   -0.439153    0.809864
    106          1           0        7.476288   -1.379436   -0.996540
    107          1           0        7.639814   -0.019434   -1.941516
    108          1           0        9.011766    0.881151    0.470388
    109          1           0        8.337899   -0.693320    1.007744
    110          1           0       10.100475   -0.481214   -1.796042
    111          1           0        9.322924   -2.628443   -1.509155
    112          1           0       10.899024   -2.675928   -1.393163
    113          1           0        9.961855   -2.904683    0.208620
    114          1           0       11.186529    0.590198    0.345784
    115          1           0       11.208197   -0.931443    1.110930
    116          1           0       12.759010   -1.764089   -0.616954
    117          1           0       12.620743   -0.272194   -1.585842
    118          1           0       13.733793    1.288876    0.221165
    119          1           0       13.643620   -0.083661    1.332256
    120          1           0       15.051899    0.311227   -1.401307
    121          1           0       14.694309   -1.938825   -1.267772
    122          1           0       16.455291   -1.775628   -1.694491
    123          1           0       16.082905   -2.428949    0.178601
    124          1           0       16.042389    1.638133    0.609595
    125          1           0       16.361013    0.320449    1.314125
    126          1           0       18.142072   -0.340435   -0.568690
    127          1           0       17.676873    0.982433   -1.501819
    128          1           0       18.363511    2.547751    0.490549
    129          1           0       18.815467    1.137007    1.449827
    130          1           0       20.509439    0.677211   -0.299614
    131          1           0       20.018073    3.400425   -1.411866
    132          1           0       21.297056    2.186012   -1.755295
    133          1           0       19.763420    1.890247   -2.277996
    134          1           0       20.965619    1.859505    1.894676
    135          1           0       22.025122    2.517678    0.637303
    136          1           0       20.855233    3.537701    0.876299
    137          1           0       -7.053295    1.701354    0.514763
    138          1           0       -7.570642   -0.207027   -0.326219
 ---------------------------------------------------------------------

 SCF Done:  E(RB3LYP) =  -2733.04668577     A.U. after   17 cycles

 Excitation energies and oscillator strengths:

 Excited State   1:      Singlet-A      1.9534 eV  634.70 nm  f=0.1644  <S**2>=0.000
     235 -> 238       -0.30210
     236 -> 237        0.63177
 This state for optimization and/or second-order correction.
 Total Energy, E(TD-HF/TD-DFT) =  -2732.97489860
 Copying the excited state density for this state as the 1-particle RhoCI density.

 The electronic state is 1-A.
 Alpha  occ. eigenvalues --  -19.18274 -19.18125 -19.12075 -19.11466 -19.11298
 Alpha  occ. eigenvalues --  -14.37633 -14.36498 -14.32588 -14.30698 -10.31272
 Alpha  occ. eigenvalues --  -10.31190 -10.27758 -10.26478 -10.24737 -10.24604
 Alpha  occ. eigenvalues --  -10.24358 -10.23982 -10.23650 -10.23298 -10.22929
 Alpha  occ. eigenvalues --  -10.22706 -10.22028 -10.21912 -10.21864 -10.21763
 Alpha  occ. eigenvalues --  -10.21527 -10.21413 -10.21084 -10.20937 -10.20888
 Alpha  occ. eigenvalues --  -10.20885 -10.20876 -10.20836 -10.20780 -10.20732
 Alpha  occ. eigenvalues --  -10.20646 -10.20379 -10.20336 -10.20155 -10.20071
 Alpha  occ. eigenvalues --  -10.20047 -10.19953 -10.19867 -10.19706 -10.19624
 Alpha  occ. eigenvalues --  -10.19574 -10.19546 -10.19315 -10.19170 -10.19093
 Alpha  occ. eigenvalues --  -10.18912 -10.18871 -10.18629 -10.18589 -10.18529
 Alpha  occ. eigenvalues --  -10.18478 -10.18292 -10.18206 -10.17976 -10.17662
 Alpha  occ. eigenvalues --  -10.17245 -10.17209 -10.17137 -10.16002  -1.12146
 Alpha  occ. eigenvalues --   -1.11398  -1.01293  -0.99833  -0.98901  -0.97662
 Alpha  occ. eigenvalues --   -0.97313  -0.95580  -0.93288  -0.84959  -0.82929
 Alpha  occ. eigenvalues --   -0.82409  -0.81749  -0.81272  -0.81103  -0.80584
 Alpha  occ. eigenvalues --   -0.80288  -0.80163  -0.79454  -0.78391  -0.78307
 Alpha  occ. eigenvalues --   -0.77315  -0.76687  -0.76270  -0.75266  -0.74520
 Alpha  occ. eigenvalues --   -0.73560  -0.73307  -0.72483  -0.71511  -0.70726
 Alpha  occ. eigenvalues --   -0.70251  -0.69030  -0.68763  -0.68213  -0.68132
 Alpha  occ. eigenvalues --   -0.67783  -0.67170  -0.66407  -0.66277  -0.65573
 Alpha  occ. eigenvalues --   -0.64232  -0.63208  -0.62701  -0.61775  -0.61275
 Alpha  occ. eigenvalues --   -0.60621  -0.59465  -0.58477  -0.58160  -0.57842
 Alpha  occ. eigenvalues --   -0.57424  -0.56799  -0.56260  -0.55959  -0.55731
 Alpha  occ. eigenvalues --   -0.55289  -0.55126  -0.55026  -0.54469  -0.53881
 Alpha  occ. eigenvalues --   -0.52979  -0.52209  -0.51921  -0.51649  -0.51083
 Alpha  occ. eigenvalues --   -0.50217  -0.49598  -0.49525  -0.49148  -0.48730
 Alpha  occ. eigenvalues --   -0.48171  -0.47971  -0.47588  -0.47334  -0.46723
 Alpha  occ. eigenvalues --   -0.46640  -0.46243  -0.46030  -0.45949  -0.45708
 Alpha  occ. eigenvalues --   -0.45559  -0.45103  -0.44888  -0.44796  -0.44402
 Alpha  occ. eigenvalues --   -0.44328  -0.44108  -0.43979  -0.43601  -0.43514
 Alpha  occ. eigenvalues --   -0.43453  -0.43254  -0.42996  -0.42815  -0.42577
 Alpha  occ. eigenvalues --   -0.42456  -0.42044  -0.41883  -0.41497  -0.41421
 Alpha  occ. eigenvalues --   -0.41323  -0.41098  -0.40875  -0.40522  -0.40397
 Alpha  occ. eigenvalues --   -0.40320  -0.39902  -0.39661  -0.39379  -0.39319
 Alpha  occ. eigenvalues --   -0.39232  -0.38983  -0.38852  -0.38713  -0.38408
 Alpha  occ. eigenvalues --   -0.38084  -0.37902  -0.37810  -0.37554  -0.37492
 Alpha  occ. eigenvalues --   -0.37096  -0.37046  -0.36978  -0.36840  -0.36694
 Alpha  occ. eigenvalues --   -0.36615  -0.36494  -0.36444  -0.35796  -0.35666
 Alpha  occ. eigenvalues --   -0.35454  -0.35220  -0.34808  -0.34683  -0.34633
 Alpha  occ. eigenvalues --   -0.34442  -0.34256  -0.34116  -0.33867  -0.33751
 Alpha  occ. eigenvalues --   -0.33415  -0.33338  -0.32991  -0.32512  -0.32174
 Alpha  occ. eigenvalues --   -0.32114  -0.31481  -0.31376  -0.31256  -0.31069
 Alpha  occ. eigenvalues --   -0.30891  -0.30774  -0.30328  -0.30171  -0.29998
 Alpha  occ. eigenvalues --   -0.29762  -0.29324  -0.28393  -0.28285  -0.27878
 Alpha  occ. eigenvalues --   -0.27723  -0.27279  -0.26897  -0.26619  -0.26080
 Alpha  occ. eigenvalues --   -0.25145  -0.24716  -0.24098  -0.22917  -0.19968
 Alpha  occ. eigenvalues --   -0.19253
 Alpha virt. eigenvalues --   -0.11018  -0.08312  -0.05281  -0.03045  -0.01026
 Alpha virt. eigenvalues --   -0.00637  -0.00237   0.00733   0.01632   0.03469
 Alpha virt. eigenvalues --    0.03931   0.04225   0.04366   0.04719   0.04856

 Mulliken charges:
               1
     1  C   -0.048897
     2  C   -0.089268
     3  C   -0.139586
     4  C   -0.013765
     5  N   -0.138082
     6  C   -0.010455
     7  C   -0.123134
     8  C   -0.035296
     9  C    0.020694
    10  C    0.085484
    11  C    0.017305
    12  C    0.095719
    13  C    0.183407
    14  O   -0.255022
    15  O   -0.241950
    16  N   -0.071620
    17  C    0.089404
    18  C   -0.079108
    19  C   -0.011090
    20  C    0.127570
    21  C    0.008958
    22  C    0.044659
    23  C   -0.059307
    24  N   -0.247184
    25  C    0.062312
    26  C   -0.136022
    27  C   -0.063352
    28  C    0.035225
    29  C    0.126159
    30  C   -0.071235
    31  C    0.020662
    32  N   -0.056893
    33  C    0.034975
    34  C   -0.128905
    35  C    0.081151
    36  C    0.030839
    37  C    0.087242
    38  C    0.039707
    39  O   -0.246033
    40  C    0.076597
    41  C    0.151919
    42  O   -0.204788
    43  O   -0.257150
    44  C    0.083282
    45  C    0.262167
    46  C   -0.077715
    47  C   -0.174813
    48  C    0.139606
    49  C    0.046587
    50  C    0.031230
    51  C   -0.007449
    52  C   -0.169977
    53  C    0.023867
    54  C    0.228474
    55  C   -0.032475
    56  C   -0.050092
    57  C    0.014388
    58  C   -0.068551
    59  C    0.100955
    60  C    0.031708
    61  C    0.001914
    62  C   -0.090450
    63  C    0.070061
    64  C    0.117972
    65  H    0.014214
    66  H    0.027925
    67  H   -0.007527
    68  H    0.034575
    69  H    0.003481
    70  H    0.020297
    71  H   -0.043851
    72  H    0.036271
    73  H    0.003680
    74  H   -0.018290
    75  H   -0.004905
    76  H    0.040360
    77  H    0.052092
    78  H    0.003732
    79  H    0.033329
    80  H   -0.018747
    81  H    0.064317
    82  H   -0.005794
    83  H    0.024546
    84  H    0.015044
    85  H    0.026408
    86  H    0.013513
    87  H    0.016910
    88  H    0.005649
    89  H   -0.017956
    90  H    0.053887
    91  H    0.022318
    92  H    0.041211
    93  H    0.041865
    94  H    0.059089
    95  H    0.061901
    96  H    0.044007
    97  H    0.069031
    98  H    0.028560
    99  H   -0.001480
   100  H   -0.020624
   101  H    0.004366
   102  H    0.028850
   103  H   -0.006434
   104  H    0.017837
   105  H    0.010303
   106  H   -0.011310
   107  H   -0.003709
   108  H   -0.000386
   109  H   -0.003870
   110  H    0.003394
   111  H   -0.017275
   112  H   -0.002682
   113  H    0.024206
   114  H   -0.095633
   115  H    0.004797
   116  H    0.030570
   117  H   -0.005871
   118  H    0.006094
   119  H    0.002454
   120  H   -0.009903
   121  H    0.014989
   122  H    0.026698
   123  H    0.048721
   124  H   -0.032255
   125  H   -0.046730
   126  H   -0.010480
   127  H   -0.004802
   128  H   -0.022215
   129  H   -0.007762
   130  H   -0.025632
   131  H    0.002588
   132  H   -0.028778
   133  H   -0.009975
   134  H    0.019905
   135  H   -0.044850
   136  H   -0.004683
   137  H    0.089370
   138  H    0.168512
 Sum of Mulliken charges =  -0.00000

 Dipole moment (field-independent basis, Debye):
    X=              2.4305    Y=              5.7805    Z=              0.8442  Tot=              6.3272
 Quadrupole moment (field-independent basis, Debye-Ang):
   XX=           -361.3933   YY=           -382.3800   ZZ=           -391.9071
   XY=            -30.2444   XZ=             -0.2398   YZ=             -2.4766

 Normal termination of Gaussian 16 at Mon Aug 12 23:28:05 2019.
