 Gaussian 16, Revision A.03,
 Gaussian 16:  ES64L-G16RevA.03 25-Dec-2016

 --------------------------
 # td=(NStates=1) B3LYP/SVP
 --------------------------

 --
 TD
 --
 Symbolic Z-matrix:
 Charge =  0 Multiplicity = 1

                         Standard orientation:
 ---------------------------------------------------------------------
 Center     Atomic      Atomic             Coordinates (Angstroms)
 Number     Number       Type             X           Y           Z
 ---------------------------------------------------------------------
      1          6           0       -5.150509   -2.067795    0.411737
      2          6           0       -4.557613    2.659214    1.552126
      3          6           0       -9.000910    3.405915   -0.185231
      4          6           0       -9.863614   -1.276933   -0.889481
      5          7           0       -5.071460    0.368044    0.860487
      6          6           0       -4.554444   -0.905426    0.727401
      7          6           0       -2.919985   -0.796010    1.233941
      8          6           0       -2.950469    0.652439    1.866203
      9          6           0       -4.244856    1.302776    1.386387
     10          6           0       -2.882779    0.680931    3.403187
     11          6           0       -2.024291   -0.981465    0.080977
     12          6           0       -0.600878   -0.810456    0.464926
     13          6           0        0.318215   -0.997286   -0.783032
     14          8           0        0.069088   -1.471507   -1.873626
     15          8           0        1.633329   -0.716107   -0.363414
     16          7           0       -6.766002    2.759331    0.670156
     17          6           0       -5.693025    3.257716    1.147595
     18          6           0       -5.896379    4.785852    1.071588
     19          6           0       -7.168521    5.005161    0.522810
     20          6           0       -7.653811    3.628659    0.248576
     21          6           0       -4.915906    5.856902    1.553008
     22          6           0       -7.760439    6.285921    0.335916
     23          6           0       -8.706226    6.597825   -0.536534
     24          7           0       -9.102413    0.909260   -0.389304
     25          6           0       -9.652803    2.202436   -0.467945
     26          6           0      -11.072151    2.105960   -0.939964
     27          6           0      -11.379727    0.740795   -1.124448
     28          6           0      -10.086589    0.075965   -0.747950
     29          6           0      -11.954519    3.244952   -1.052299
     30          6           0      -12.657192    0.122332   -1.614755
     31          6           0      -12.646452   -0.261973   -3.083424
     32          7           0       -7.538625   -1.215035   -0.246877
     33          6           0       -8.665418   -1.972272   -0.634800
     34          6           0       -8.280027   -3.357430   -0.659066
     35          6           0       -6.937659   -3.423812   -0.328736
     36          6           0       -6.538078   -2.042870   -0.077763
     37          6           0       -9.145754   -4.494755   -0.920305
     38          6           0       -5.851645   -4.363772   -0.018315
     39          8           0       -5.772700   -5.512140    0.055397
     40          6           0       -4.621552   -3.491549    0.458184
     41          6           0       -3.935676   -3.963329    1.782706
     42          8           0       -4.373953   -3.512774    2.858558
     43          8           0       -3.105345   -4.959352    1.500150
     44          6           0       -2.771111   -5.587997    2.742553
     45          6           0        2.682036   -0.974537   -1.427703
     46          6           0        4.015858   -0.755666   -0.787442
     47          6           0        4.867191    0.119916   -1.182476
     48          6           0        4.794143    1.039220   -2.440828
     49          6           0        6.200991    0.356629   -0.492249
     50          6           0        7.316341   -0.235228   -1.169649
     51          6           0        8.649757   -0.392799   -0.284729
     52          6           0       10.017123   -0.820735   -0.904633
     53          6           0        9.941182   -2.330995   -1.249860
     54          6           0       11.273387   -0.431328   -0.053107
     55          6           0       12.535948   -0.708093   -0.602677
     56          6           0       13.774400   -0.110441    0.089835
     57          6           0       15.163427   -0.260436   -0.526057
     58          6           0       15.466959   -1.796529   -0.828545
     59          6           0       16.085937    0.480497    0.506961
     60          6           0       17.560813    0.682467   -0.025543
     61          6           0       18.415973    1.553295    0.962295
     62          6           0       19.857886    1.719272    0.357935
     63          6           0       19.989436    2.379633   -0.967560
     64          6           0       20.706555    2.498353    1.432162
     65          1           0       -3.806418    3.381719    2.063805
     66          1           0       -9.777361    4.186790   -0.015136
     67          1           0      -10.678699   -1.741085   -1.196037
     68          1           0       -2.903071   -1.429588    2.029882
     69          1           0       -2.113374    1.195526    1.312201
     70          1           0       -2.002800    0.202850    3.811600
     71          1           0       -3.194063    1.703380    3.973326
     72          1           0       -3.833852    0.013916    3.754043
     73          1           0       -2.206401   -2.106924   -0.290552
     74          1           0       -2.298858   -0.091384   -0.773831
     75          1           0       -0.328265    0.210847    0.783689
     76          1           0       -0.489617   -1.523717    1.451171
     77          1           0       -4.021592    5.721229    1.022709
     78          1           0       -5.404514    6.996039    1.590250
     79          1           0       -4.936799    5.731884    2.727156
     80          1           0       -7.528088    7.169301    0.990552
     81          1           0       -8.967927    5.984252   -1.479098
     82          1           0       -9.058069    7.747178   -0.382044
     83          1           0      -12.003651    3.914193   -0.071832
     84          1           0      -11.628071    3.883695   -1.995033
     85          1           0      -13.159218    3.016258   -1.232879
     86          1           0      -13.074698   -0.674073   -0.931209
     87          1           0      -13.514930    0.929795   -1.324884
     88          1           0      -12.698106    0.561124   -3.808069
     89          1           0      -11.945262   -0.915783   -3.696313
     90          1           0      -13.703757   -0.780877   -3.258060
     91          1           0      -10.170515   -4.547803   -0.335491
     92          1           0       -9.403695   -3.992497   -1.859874
     93          1           0       -8.765913   -5.493387   -0.937112
     94          1           0       -3.757543   -3.420838   -0.212339
     95          1           0       -2.121381   -6.563611    2.629078
     96          1           0       -1.896645   -5.079227    3.428940
     97          1           0       -3.653915   -5.835931    3.351082
     98          1           0        2.551420   -1.911776   -1.636736
     99          1           0        2.457313   -0.383367   -2.222452
    100          1           0        4.291345   -1.180246    0.270645
    101          1           0        4.597045    2.254474   -1.899820
    102          1           0        5.755858    1.074484   -3.167893
    103          1           0        3.828914    0.931004   -3.063463
    104          1           0        6.433746    1.335950   -0.379115
    105          1           0        6.315657   -0.047690    0.595075
    106          1           0        6.870060   -1.306445   -1.738921
    107          1           0        7.524508    0.289468   -2.144356
    108          1           0        8.514678    0.627441    0.041167
    109          1           0        8.595011   -1.091806    0.563095
    110          1           0        9.958587   -0.023396   -1.713291
    111          1           0        8.968141   -2.532240   -1.851840
    112          1           0       10.782231   -2.895502   -1.776230
    113          1           0        9.601610   -2.902592   -0.385458
    114          1           0       11.267405    0.645662    0.146753
    115          1           0       11.047632   -0.909472    0.976218
    116          1           0       12.731492   -1.723165   -0.575394
    117          1           0       12.627539   -0.413343   -1.887541
    118          1           0       13.453118    0.921982    0.457452
    119          1           0       13.780162   -0.629639    1.109880
    120          1           0       15.285391    0.329290   -1.446107
    121          1           0       14.720485   -1.997804   -1.863778
    122          1           0       16.450060   -1.707352   -1.031034
    123          1           0       15.183784   -2.324825    0.160927
    124          1           0       15.731362    1.547183    0.573372
    125          1           0       16.326005   -0.291140    1.271785
    126          1           0       18.083987   -0.151301   -0.024117
    127          1           0       17.350370    1.251727   -1.088127
    128          1           0       17.978626    2.552587    1.167929
    129          1           0       18.439124    1.230416    1.925308
    130          1           0       20.304995    0.658420    0.196653
    131          1           0       19.344929    3.183667   -0.872075
    132          1           0       20.911157    2.571428   -1.391072
    133          1           0       19.401364    1.873784   -1.728901
    134          1           0       20.837538    1.963114    2.481514
    135          1           0       21.758481    2.740233    1.098124
    136          1           0       19.935674    3.380095    1.737882
    137          1           0       -7.075180    1.631639    0.504023
    138          1           0       -7.483712   -0.275070   -0.178963
 ---------------------------------------------------------------------

 SCF Done:  E(RB3LYP) =  -2732.92943819     A.U. after   17 cycles

 Excitation energies and oscillator strengths:

 Excited State   1:      Singlet-A      2.1193 eV  585.02 nm  f=0.1943  <S**2>=0.000
     235 -> 237       -0.16187
     235 -> 238        0.24841
     236 -> 237        0.62539
     236 -> 238        0.13266
 This state for optimization and/or second-order correction.
 Total Energy, E(TD-HF/TD-DFT) =  -2732.85155454
 Copying the excited state density for this state as the 1-particle RhoCI density.

 The electronic state is 1-A.
 Alpha  occ. eigenvalues --  -19.21119 -19.16295 -19.13285 -19.12979 -19.12370
 Alpha  occ. eigenvalues --  -14.38356 -14.37085 -14.31779 -14.30004 -10.32628
 Alpha  occ. eigenvalues --  -10.31774 -10.27882 -10.26672 -10.23961 -10.23662
 Alpha  occ. eigenvalues --  -10.23568 -10.23428 -10.23055 -10.22928 -10.22905
 Alpha  occ. eigenvalues --  -10.22389 -10.21731 -10.21638 -10.21486 -10.21389
 Alpha  occ. eigenvalues --  -10.21331 -10.21199 -10.21084 -10.20872 -10.20748
 Alpha  occ. eigenvalues --  -10.20523 -10.20360 -10.20349 -10.20310 -10.20242
 Alpha  occ. eigenvalues --  -10.20148 -10.20123 -10.20049 -10.20030 -10.20012
 Alpha  occ. eigenvalues --  -10.19856 -10.19852 -10.19751 -10.19670 -10.19586
 Alpha  occ. eigenvalues --  -10.19439 -10.19413 -10.19061 -10.19033 -10.19017
 Alpha  occ. eigenvalues --  -10.18956 -10.18953 -10.18923 -10.18907 -10.18836
 Alpha  occ. eigenvalues --  -10.18758 -10.18595 -10.18365 -10.18337 -10.18336
 Alpha  occ. eigenvalues --  -10.18252 -10.18194 -10.17823 -10.15926  -1.11620
 Alpha  occ. eigenvalues --   -1.06778  -1.06424  -1.01261  -1.00496  -0.99536
 Alpha  occ. eigenvalues --   -0.99001  -0.92456  -0.92084  -0.84024  -0.83550
 Alpha  occ. eigenvalues --   -0.82327  -0.82027  -0.81834  -0.81236  -0.80860
 Alpha  occ. eigenvalues --   -0.80342  -0.79515  -0.79242  -0.78864  -0.78028
 Alpha  occ. eigenvalues --   -0.76485  -0.75690  -0.75482  -0.75169  -0.74242
 Alpha  occ. eigenvalues --   -0.73781  -0.73213  -0.72939  -0.71719  -0.70482
 Alpha  occ. eigenvalues --   -0.69599  -0.68898  -0.68176  -0.68100  -0.67025
 Alpha  occ. eigenvalues --   -0.66954  -0.66735  -0.66416  -0.65970  -0.65604
 Alpha  occ. eigenvalues --   -0.63598  -0.62690  -0.61636  -0.61582  -0.61255
 Alpha  occ. eigenvalues --   -0.60631  -0.58896  -0.58705  -0.58422  -0.57368
 Alpha  occ. eigenvalues --   -0.56580  -0.56465  -0.56051  -0.55449  -0.54952
 Alpha  occ. eigenvalues --   -0.54884  -0.54512  -0.54129  -0.52963  -0.52525
 Alpha  occ. eigenvalues --   -0.52373  -0.52135  -0.51061  -0.50521  -0.50469
 Alpha  occ. eigenvalues --   -0.50094  -0.49819  -0.49215  -0.49203  -0.48529
 Alpha  occ. eigenvalues --   -0.48366  -0.48038  -0.47809  -0.47567  -0.47309
 Alpha  occ. eigenvalues --   -0.46985  -0.46566  -0.46427  -0.46267  -0.45997
 Alpha  occ. eigenvalues --   -0.45609  -0.45433  -0.45094  -0.44863  -0.44746
 Alpha  occ. eigenvalues --   -0.44535  -0.44218  -0.43814  -0.43686  -0.43536
 Alpha  occ. eigenvalues --   -0.43385  -0.43129  -0.42922  -0.42812  -0.42679
 Alpha  occ. eigenvalues --   -0.42358  -0.42045  -0.41939  -0.41849  -0.41441
 Alpha  occ. eigenvalues --   -0.41254  -0.40981  -0.40781  -0.40481  -0.40254
 Alpha  occ. eigenvalues --   -0.40018  -0.39794  -0.39605  -0.39503  -0.39335
 Alpha  occ. eigenvalues --   -0.38935  -0.38829  -0.38633  -0.38538  -0.38471
 Alpha  occ. eigenvalues --   -0.38236  -0.38174  -0.37937  -0.37618  -0.37586
 Alpha  occ. eigenvalues --   -0.37535  -0.37409  -0.36877  -0.36754  -0.36328
 Alpha  occ. eigenvalues --   -0.36057  -0.35860  -0.35791  -0.35712  -0.35618
 Alpha  occ. eigenvalues --   -0.35218  -0.35146  -0.34917  -0.34725  -0.34505
 Alpha  occ. eigenvalues --   -0.34373  -0.34113  -0.33829  -0.33811  -0.33567
 Alpha  occ. eigenvalues --   -0.33039  -0.33010  -0.32135  -0.32056  -0.31971
 Alpha  occ. eigenvalues --   -0.31771  -0.31571  -0.31400  -0.31394  -0.31036
 Alpha  occ. eigenvalues --   -0.30268  -0.30029  -0.29949  -0.29807  -0.29656
 Alpha  occ. eigenvalues --   -0.29558  -0.29022  -0.28400  -0.28134  -0.27967
 Alpha  occ. eigenvalues --   -0.27582  -0.26897  -0.26472  -0.26120  -0.26049
 Alpha  occ. eigenvalues --   -0.25171  -0.24333  -0.23643  -0.22470  -0.19828
 Alpha  occ. eigenvalues --   -0.18292
 Alpha virt. eigenvalues --   -0.09701  -0.06947  -0.03477  -0.01867  -0.01529
 Alpha virt. eigenvalues --   -0.01199   0.00347   0.00591   0.02619   0.03339
 Alpha virt. eigenvalues --    0.03365   0.03561   0.03688   0.04306   0.04853

 Mulliken charges:
               1
     1  C   -0.000197
     2  C   -0.106716
     3  C   -0.116810
     4  C   -0.020308
     5  N   -0.201213
     6  C   -0.104014
     7  C   -0.014257
     8  C   -0.028947
     9  C   -0.021679
    10  C   -0.003926
    11  C    0.020557
    12  C   -0.016524
    13  C    0.222146
    14  O   -0.227816
    15  O   -0.394644
    16  N    0.017495
    17  C    0.073564
    18  C   -0.174597
    19  C    0.083064
    20  C    0.064149
    21  C    0.047563
    22  C   -0.080618
    23  C   -0.096934
    24  N   -0.271197
    25  C    0.041587
    26  C   -0.074597
    27  C   -0.067823
    28  C    0.034690
    29  C   -0.053587
    30  C    0.035150
    31  C   -0.021268
    32  N    0.074457
    33  C    0.102821
    34  C   -0.090594
    35  C   -0.057711
    36  C    0.034022
    37  C    0.037773
    38  C    0.094850
    39  O   -0.094729
    40  C    0.022194
    41  C    0.196257
    42  O   -0.255773
    43  O   -0.238393
    44  C    0.107261
    45  C    0.457201
    46  C   -0.109660
    47  C   -0.107062
    48  C   -0.073935
    49  C    0.139268
    50  C   -0.084527
    51  C    0.005671
    52  C   -0.050643
    53  C    0.022479
    54  C    0.046820
    55  C    0.059052
    56  C   -0.010123
    57  C   -0.086015
    58  C    0.023323
    59  C    0.034657
    60  C    0.011413
    61  C    0.061768
    62  C   -0.135580
    63  C    0.140793
    64  C   -0.031202
    65  H    0.004469
    66  H    0.015456
    67  H   -0.106325
    68  H   -0.034010
    69  H   -0.005473
    70  H    0.022145
    71  H    0.038650
    72  H    0.039301
    73  H    0.043940
    74  H    0.036436
    75  H    0.036380
    76  H    0.060104
    77  H    0.041303
    78  H    0.039077
    79  H    0.045784
    80  H    0.013096
    81  H    0.053454
    82  H    0.035482
    83  H    0.052462
    84  H    0.044971
    85  H    0.030732
    86  H    0.018838
    87  H    0.015365
    88  H    0.008715
    89  H    0.031933
    90  H    0.009875
    91  H    0.043044
    92  H    0.041966
    93  H    0.035536
    94  H    0.034102
    95  H    0.040286
    96  H    0.044621
    97  H    0.059744
    98  H   -0.043005
    99  H   -0.021871
   100  H    0.016128
   101  H    0.040541
   102  H    0.070827
   103  H    0.035828
   104  H   -0.035592
   105  H    0.004104
   106  H    0.001230
   107  H    0.000346
   108  H   -0.006758
   109  H   -0.001491
   110  H   -0.006919
   111  H    0.008946
   112  H    0.040061
   113  H   -0.007460
   114  H   -0.024090
   115  H   -0.007302
   116  H   -0.025997
   117  H   -0.003317
   118  H   -0.016921
   119  H   -0.018557
   120  H   -0.018081
   121  H    0.056486
   122  H   -0.009529
   123  H    0.036716
   124  H    0.019747
   125  H   -0.003513
   126  H   -0.032323
   127  H    0.019011
   128  H   -0.020759
   129  H   -0.037480
   130  H   -0.003422
   131  H   -0.037626
   132  H   -0.001631
   133  H   -0.017432
   134  H    0.015226
   135  H    0.024815
   136  H    0.017611
   137  H    0.238892
   138  H    0.074678
 Sum of Mulliken charges =  -0.00000

 Dipole moment (field-independent basis, Debye):
    X=              1.6917    Y=              3.1474    Z=              0.8739  Tot=              3.6785
 Quadrupole moment (field-independent basis, Debye-Ang):
   XX=           -357.1206   YY=           -381.0631   ZZ=           -395.7521
   XY=            -19.0314   XZ=              9.1716   YZ=             -3.0960

 Normal termination of Gaussian 16 at Mon Aug 26 01:34:46 2019.
