 Gaussian 16, Revision A.03,
 Gaussian 16:  ES64L-G16RevA.03 25-Dec-2016

 --------------------------
 # td=(NStates=1) B3LYP/SVP
 --------------------------

 --
 TD
 --
 Symbolic Z-matrix:
 Charge =  0 Multiplicity = 1

                         Standard orientation:
 ---------------------------------------------------------------------
 Center     Atomic      Atomic             Coordinates (Angstroms)
 Number     Number       Type             X           Y           Z
 ---------------------------------------------------------------------
      1          6           0       -5.154732   -1.992108    0.379731
      2          6           0       -4.618865    2.707981    1.616387
      3          6           0       -9.159091    3.331559   -0.283541
      4          6           0       -9.799562   -1.433532   -0.964771
      5          7           0       -5.185944    0.460657    0.718131
      6          6           0       -4.559726   -0.768328    0.688306
      7          6           0       -3.176590   -0.716325    1.382867
      8          6           0       -3.120247    0.728520    1.936708
      9          6           0       -4.367602    1.334981    1.412949
     10          6           0       -3.022629    0.745811    3.495493
     11          6           0       -2.090958   -0.898221    0.216556
     12          6           0       -0.714645   -0.883230    0.714065
     13          6           0        0.365355   -1.022161   -0.361956
     14          8           0        0.049354   -1.515120   -1.424160
     15          8           0        1.659885   -0.760671    0.040523
     16          7           0       -6.946110    2.825522    0.574712
     17          6           0       -5.897649    3.401817    1.161814
     18          6           0       -6.215110    4.861674    1.198255
     19          6           0       -7.452207    4.969103    0.631146
     20          6           0       -7.891177    3.643415    0.168110
     21          6           0       -5.320259    5.892378    1.766797
     22          6           0       -8.074966    6.298774    0.497209
     23          6           0       -9.004234    6.721598   -0.381400
     24          7           0       -9.169015    0.920582   -0.495333
     25          6           0       -9.735034    2.117082   -0.586995
     26          6           0      -11.126068    2.083030   -1.166857
     27          6           0      -11.352666    0.691197   -1.302687
     28          6           0      -10.098852   -0.010461   -0.876497
     29          6           0      -12.055436    3.198806   -1.499590
     30          6           0      -12.466573   -0.012969   -1.879378
     31          6           0      -12.286345   -0.251620   -3.412921
     32          7           0       -7.532276   -1.285546   -0.252136
     33          6           0       -8.578448   -2.020691   -0.785519
     34          6           0       -8.233700   -3.372813   -0.772555
     35          6           0       -6.891705   -3.428956   -0.390197
     36          6           0       -6.415123   -2.071606   -0.121983
     37          6           0       -9.182931   -4.528584   -1.175790
     38          6           0       -5.820277   -4.376134   -0.015041
     39          8           0       -5.710203   -5.558844   -0.083887
     40          6           0       -4.648098   -3.418329    0.344984
     41          6           0       -4.072342   -3.885536    1.692962
     42          8           0       -4.265171   -3.413140    2.754689
     43          8           0       -3.254051   -5.001526    1.541762
     44          6           0       -2.803317   -5.607592    2.736396
     45          6           0        2.643175   -1.206394   -0.873083
     46          6           0        4.052717   -0.764288   -0.403118
     47          6           0        5.005739   -0.100151   -1.033046
     48          6           0        4.798010    0.400777   -2.481390
     49          6           0        6.275254    0.361999   -0.311297
     50          6           0        7.528348   -0.395884   -0.931934
     51          6           0        8.818967   -0.195426   -0.190272
     52          6           0       10.092561   -0.637780   -0.752366
     53          6           0       10.114713   -2.190628   -0.762923
     54          6           0       11.280401   -0.166582    0.126120
     55          6           0       12.675482   -0.486126   -0.436517
     56          6           0       13.884723    0.110506    0.256933
     57          6           0       15.198157   -0.149263   -0.343086
     58          6           0       15.604441   -1.638974   -0.392092
     59          6           0       16.228978    0.604329    0.328488
     60          6           0       17.725947    0.610058   -0.195625
     61          6           0       18.626964    1.672534    0.387562
     62          6           0       20.036675    1.709425   -0.139803
     63          6           0       20.237399    2.162260   -1.462764
     64          6           0       20.836729    2.453493    0.762950
     65          1           0       -3.882753    3.390154    2.063145
     66          1           0       -9.744142    4.259052   -0.644516
     67          1           0      -10.661658   -2.116718   -1.153376
     68          1           0       -3.088992   -1.394628    2.159032
     69          1           0       -2.336236    1.225403    1.292425
     70          1           0       -2.238013    0.318203    3.865535
     71          1           0       -3.065122    1.765486    3.882263
     72          1           0       -3.806971   -0.079372    3.972270
     73          1           0       -2.194919   -1.936749   -0.339016
     74          1           0       -2.269860   -0.178679   -0.461665
     75          1           0       -0.656318    0.146393    1.207047
     76          1           0       -0.596066   -1.693717    1.426670
     77          1           0       -4.586356    6.408445    1.110755
     78          1           0       -6.145771    6.769041    2.309938
     79          1           0       -4.955967    5.344220    2.601931
     80          1           0       -7.640161    7.134263    1.248935
     81          1           0       -9.428932    6.031178   -1.131829
     82          1           0       -9.294971    7.797537   -0.507663
     83          1           0      -12.302481    3.669786   -0.489081
     84          1           0      -11.540094    3.851589   -2.201261
     85          1           0      -13.058933    2.892294   -1.910490
     86          1           0      -12.715560   -1.056991   -1.438098
     87          1           0      -13.438227    0.572449   -1.802999
     88          1           0      -12.193587    0.830486   -3.877848
     89          1           0      -11.295938   -0.806746   -3.756878
     90          1           0      -13.271412   -0.848216   -4.012719
     91          1           0      -10.135911   -4.378445   -0.812624
     92          1           0       -9.492437   -4.393623   -2.279581
     93          1           0       -8.652047   -5.521168   -0.925165
     94          1           0       -3.754261   -3.403499   -0.411180
     95          1           0       -1.793365   -6.106857    2.439802
     96          1           0       -2.403105   -4.748821    3.470778
     97          1           0       -3.871707   -6.400501    2.955001
     98          1           0        2.614638   -2.298186   -0.979359
     99          1           0        2.452792   -0.954124   -1.950221
    100          1           0        4.136982   -0.832493    0.897847
    101          1           0        5.147619    1.397321   -2.732140
    102          1           0        5.376656   -0.102460   -3.088953
    103          1           0        3.769509    0.531403   -2.690949
    104          1           0        6.193099    1.433365   -0.350389
    105          1           0        5.968125    0.083417    0.627597
    106          1           0        7.322130   -1.494595   -1.033317
    107          1           0        7.652791   -0.160037   -2.105711
    108          1           0        8.768163    0.907861   -0.022033
    109          1           0        8.863591   -0.645235    0.901528
    110          1           0       10.280494   -0.389098   -1.804221
    111          1           0        9.340000   -2.815889   -1.373730
    112          1           0       11.016623   -2.544950   -1.252794
    113          1           0       10.046639   -2.353705    0.449603
    114          1           0       11.207475    0.788226    0.084814
    115          1           0       11.150941   -0.475157    1.307738
    116          1           0       12.703397   -1.536019   -0.468692
    117          1           0       12.723462   -0.064104   -1.561946
    118          1           0       13.783264    1.232613    0.437643
    119          1           0       13.661369   -0.336287    1.386327
    120          1           0       15.244085    0.458733   -1.363353
    121          1           0       14.779497   -2.307888   -0.805093
    122          1           0       16.574549   -1.885394   -0.887216
    123          1           0       15.610168   -2.022317    0.516805
    124          1           0       15.997849    1.734995    0.734028
    125          1           0       16.355393    0.295809    1.441994
    126          1           0       18.158340   -0.387708   -0.219556
    127          1           0       17.625122    0.917777   -1.217079
    128          1           0       18.421740    2.757751    0.212399
    129          1           0       18.764254    1.281232    1.558488
    130          1           0       20.209220    0.549061   -0.095670
    131          1           0       19.904862    3.187513   -1.563378
    132          1           0       21.193462    1.821893   -1.902675
    133          1           0       19.571970    1.684350   -2.077767
    134          1           0       20.943904    2.209776    1.806045
    135          1           0       21.917660    2.402498    0.520463
    136          1           0       20.290046    3.532822    0.952085
    137          1           0       -7.024706    1.752867    0.363548
    138          1           0       -7.951446   -0.245479   -0.246029
 ---------------------------------------------------------------------

 SCF Done:  E(RB3LYP) =  -2733.02583982     A.U. after   16 cycles

 Excitation energies and oscillator strengths:

 Excited State   1:      Singlet-A      2.0674 eV  599.71 nm  f=0.1744  <S**2>=0.000
     235 -> 238       -0.30814
     236 -> 237        0.63122
 This state for optimization and/or second-order correction.
 Total Energy, E(TD-HF/TD-DFT) =  -2732.94986415
 Copying the excited state density for this state as the 1-particle RhoCI density.

 The electronic state is 1-A.
 Alpha  occ. eigenvalues --  -19.18675 -19.16406 -19.13149 -19.13023 -19.12696
 Alpha  occ. eigenvalues --  -14.38152 -14.35616 -14.32766 -14.31367 -10.32168
 Alpha  occ. eigenvalues --  -10.31455 -10.28123 -10.26863 -10.25109 -10.24960
 Alpha  occ. eigenvalues --  -10.23449 -10.23432 -10.23330 -10.23159 -10.22561
 Alpha  occ. eigenvalues --  -10.22270 -10.22002 -10.21923 -10.21584 -10.21450
 Alpha  occ. eigenvalues --  -10.21402 -10.21360 -10.20909 -10.20771 -10.20515
 Alpha  occ. eigenvalues --  -10.20445 -10.20410 -10.20394 -10.20387 -10.20374
 Alpha  occ. eigenvalues --  -10.20352 -10.20272 -10.20251 -10.20108 -10.19914
 Alpha  occ. eigenvalues --  -10.19856 -10.19768 -10.19733 -10.19697 -10.19455
 Alpha  occ. eigenvalues --  -10.19432 -10.19231 -10.19187 -10.19177 -10.19154
 Alpha  occ. eigenvalues --  -10.19116 -10.18959 -10.18947 -10.18911 -10.18662
 Alpha  occ. eigenvalues --  -10.18632 -10.18508 -10.18014 -10.17998 -10.17760
 Alpha  occ. eigenvalues --  -10.17552 -10.17499 -10.17369 -10.16249  -1.09473
 Alpha  occ. eigenvalues --   -1.09438  -1.04372  -1.01504  -1.01217  -1.00381
 Alpha  occ. eigenvalues --   -0.97583  -0.94362  -0.93435  -0.85514  -0.83864
 Alpha  occ. eigenvalues --   -0.83095  -0.82297  -0.81974  -0.81674  -0.81231
 Alpha  occ. eigenvalues --   -0.80814  -0.79962  -0.79710  -0.78903  -0.77642
 Alpha  occ. eigenvalues --   -0.76824  -0.75834  -0.75678  -0.74863  -0.74535
 Alpha  occ. eigenvalues --   -0.73504  -0.72567  -0.72459  -0.72042  -0.70630
 Alpha  occ. eigenvalues --   -0.70037  -0.69296  -0.69156  -0.68722  -0.68360
 Alpha  occ. eigenvalues --   -0.68120  -0.67333  -0.66658  -0.66317  -0.65660
 Alpha  occ. eigenvalues --   -0.64849  -0.63000  -0.62342  -0.61846  -0.61505
 Alpha  occ. eigenvalues --   -0.60446  -0.59775  -0.59121  -0.58430  -0.57161
 Alpha  occ. eigenvalues --   -0.56954  -0.56690  -0.55550  -0.55301  -0.54846
 Alpha  occ. eigenvalues --   -0.54178  -0.54099  -0.53720  -0.52950  -0.52915
 Alpha  occ. eigenvalues --   -0.52589  -0.51767  -0.51448  -0.50649  -0.50157
 Alpha  occ. eigenvalues --   -0.49746  -0.49484  -0.49354  -0.49182  -0.48758
 Alpha  occ. eigenvalues --   -0.48142  -0.48025  -0.47540  -0.47223  -0.47078
 Alpha  occ. eigenvalues --   -0.46812  -0.46478  -0.46374  -0.46186  -0.46106
 Alpha  occ. eigenvalues --   -0.45974  -0.45676  -0.45480  -0.45111  -0.44902
 Alpha  occ. eigenvalues --   -0.44756  -0.44506  -0.44448  -0.44323  -0.44017
 Alpha  occ. eigenvalues --   -0.43756  -0.43612  -0.43388  -0.43214  -0.43074
 Alpha  occ. eigenvalues --   -0.42576  -0.42427  -0.42350  -0.41958  -0.41633
 Alpha  occ. eigenvalues --   -0.41512  -0.41297  -0.41154  -0.40848  -0.40445
 Alpha  occ. eigenvalues --   -0.40225  -0.40076  -0.39948  -0.39755  -0.39571
 Alpha  occ. eigenvalues --   -0.39519  -0.39448  -0.39256  -0.38899  -0.38554
 Alpha  occ. eigenvalues --   -0.38450  -0.38167  -0.38148  -0.37845  -0.37565
 Alpha  occ. eigenvalues --   -0.37502  -0.37260  -0.37194  -0.36917  -0.36777
 Alpha  occ. eigenvalues --   -0.36727  -0.36537  -0.36468  -0.36122  -0.36001
 Alpha  occ. eigenvalues --   -0.35638  -0.35309  -0.35065  -0.34938  -0.34859
 Alpha  occ. eigenvalues --   -0.34264  -0.33863  -0.33858  -0.33637  -0.33333
 Alpha  occ. eigenvalues --   -0.33304  -0.33093  -0.32981  -0.32821  -0.32301
 Alpha  occ. eigenvalues --   -0.32048  -0.31728  -0.31636  -0.31314  -0.31098
 Alpha  occ. eigenvalues --   -0.30928  -0.30837  -0.30469  -0.30338  -0.29722
 Alpha  occ. eigenvalues --   -0.29136  -0.29011  -0.28680  -0.28357  -0.28331
 Alpha  occ. eigenvalues --   -0.27976  -0.27810  -0.27176  -0.26546  -0.25908
 Alpha  occ. eigenvalues --   -0.25319  -0.25231  -0.24025  -0.22928  -0.20022
 Alpha  occ. eigenvalues --   -0.19194
 Alpha virt. eigenvalues --   -0.10453  -0.07916  -0.04486  -0.01643  -0.00782
 Alpha virt. eigenvalues --   -0.00179   0.00711   0.00939   0.01894   0.02997
 Alpha virt. eigenvalues --    0.03070   0.03382   0.04232   0.04458   0.04601

 Mulliken charges:
               1
     1  C   -0.005412
     2  C   -0.042091
     3  C   -0.099154
     4  C   -0.078820
     5  N   -0.191409
     6  C   -0.031792
     7  C   -0.053864
     8  C    0.011292
     9  C   -0.003030
    10  C    0.116244
    11  C    0.017234
    12  C    0.077104
    13  C    0.195120
    14  O   -0.232252
    15  O   -0.304523
    16  N   -0.006954
    17  C    0.006742
    18  C   -0.138352
    19  C    0.039033
    20  C    0.034832
    21  C    0.034574
    22  C   -0.064476
    23  C   -0.063831
    24  N   -0.233030
    25  C    0.070552
    26  C   -0.172391
    27  C   -0.040290
    28  C    0.032336
    29  C    0.101903
    30  C    0.026080
    31  C   -0.108271
    32  N   -0.125329
    33  C    0.077610
    34  C   -0.152462
    35  C   -0.057476
    36  C    0.126312
    37  C    0.129873
    38  C    0.101050
    39  O   -0.132158
    40  C   -0.061463
    41  C    0.181654
    42  O   -0.186100
    43  O   -0.317208
    44  C    0.073396
    45  C    0.251447
    46  C   -0.132751
    47  C   -0.225439
    48  C    0.162090
    49  C    0.202816
    50  C   -0.019153
    51  C    0.056397
    52  C   -0.067650
    53  C   -0.036698
    54  C    0.089936
    55  C    0.030212
    56  C   -0.038671
    57  C    0.034157
    58  C    0.089092
    59  C   -0.080564
    60  C    0.103261
    61  C   -0.066950
    62  C   -0.118285
    63  C    0.169893
    64  C    0.062024
    65  H   -0.014669
    66  H   -0.010150
    67  H   -0.011984
    68  H   -0.016691
    69  H    0.007856
    70  H   -0.038557
    71  H    0.016126
    72  H    0.045020
    73  H    0.029900
    74  H   -0.029586
    75  H    0.021752
    76  H    0.029780
    77  H    0.062474
    78  H    0.037345
    79  H    0.026463
    80  H    0.021278
    81  H    0.026997
    82  H    0.033148
    83  H    0.041865
    84  H    0.033349
    85  H    0.021374
    86  H    0.018634
    87  H    0.009234
    88  H    0.023494
    89  H    0.039812
    90  H    0.032213
    91  H   -0.008461
    92  H    0.025620
    93  H    0.067951
    94  H    0.087174
    95  H    0.046386
    96  H    0.053168
    97  H    0.080937
    98  H    0.010384
    99  H    0.016746
   100  H    0.027182
   101  H   -0.014860
   102  H   -0.023387
   103  H    0.008823
   104  H    0.003580
   105  H   -0.045380
   106  H    0.004654
   107  H    0.008445
   108  H   -0.011671
   109  H    0.000116
   110  H   -0.017012
   111  H    0.022766
   112  H    0.009777
   113  H    0.018311
   114  H   -0.072104
   115  H    0.010790
   116  H   -0.010988
   117  H   -0.004795
   118  H    0.001020
   119  H   -0.001372
   120  H    0.005124
   121  H    0.003928
   122  H    0.023739
   123  H   -0.039853
   124  H    0.000394
   125  H   -0.027315
   126  H   -0.001080
   127  H   -0.031047
   128  H   -0.005038
   129  H    0.013409
   130  H   -0.022074
   131  H   -0.016281
   132  H    0.009990
   133  H   -0.053545
   134  H   -0.020772
   135  H   -0.000456
   136  H    0.001615
   137  H    0.195409
   138  H    0.197608
 Sum of Mulliken charges =  -0.00000

 Dipole moment (field-independent basis, Debye):
    X=              1.6480    Y=              4.1786    Z=             -0.2196  Tot=              4.4972
 Quadrupole moment (field-independent basis, Debye-Ang):
   XX=           -354.9720   YY=           -390.9364   ZZ=           -395.7329
   XY=            -28.8773   XZ=              2.7144   YZ=             -1.8872

 Normal termination of Gaussian 16 at Thu Aug 22 13:46:41 2019.
