 Gaussian 16, Revision A.03,
 Gaussian 16:  ES64L-G16RevA.03 25-Dec-2016

 --------------------------
 # td=(NStates=1) B3LYP/SVP
 --------------------------

 --
 TD
 --
 Symbolic Z-matrix:
 Charge =  0 Multiplicity = 1

                         Standard orientation:
 ---------------------------------------------------------------------
 Center     Atomic      Atomic             Coordinates (Angstroms)
 Number     Number       Type             X           Y           Z
 ---------------------------------------------------------------------
      1          6           0       -5.098329   -1.951292    0.358018
      2          6           0       -4.706150    2.737660    1.351781
      3          6           0       -9.280321    3.379504   -0.110555
      4          6           0       -9.810470   -1.325058   -1.037304
      5          7           0       -5.173140    0.374260    0.792792
      6          6           0       -4.447694   -0.731225    0.797805
      7          6           0       -2.988102   -0.661478    1.332729
      8          6           0       -3.041471    0.795300    1.900892
      9          6           0       -4.409083    1.444340    1.347840
     10          6           0       -2.977390    1.007354    3.404367
     11          6           0       -2.048573   -0.851705    0.153916
     12          6           0       -0.641500   -0.735605    0.597521
     13          6           0        0.392778   -1.008656   -0.469126
     14          8           0        0.133752   -1.418828   -1.609599
     15          8           0        1.696819   -0.959950   -0.099885
     16          7           0       -7.021371    2.723082    0.483493
     17          6           0       -5.824912    3.367423    0.922961
     18          6           0       -6.120893    4.820795    1.011416
     19          6           0       -7.406058    4.997459    0.591460
     20          6           0       -7.990179    3.656256    0.225686
     21          6           0       -5.136564    5.747410    1.559137
     22          6           0       -8.032614    6.303760    0.329195
     23          6           0       -9.035477    6.541584   -0.517840
     24          7           0       -9.164925    0.933197   -0.510155
     25          6           0       -9.805003    2.148962   -0.555476
     26          6           0      -11.210053    1.997277   -0.905380
     27          6           0      -11.391818    0.651144   -1.216918
     28          6           0      -10.041632    0.059768   -0.957387
     29          6           0      -12.224658    3.049924   -1.093816
     30          6           0      -12.590270   -0.038228   -1.651177
     31          6           0      -12.459936   -0.634368   -3.094799
     32          7           0       -7.472924   -1.225219   -0.335632
     33          6           0       -8.585439   -1.991710   -0.715292
     34          6           0       -8.195939   -3.338980   -0.808284
     35          6           0       -6.843282   -3.352831   -0.402587
     36          6           0       -6.442138   -2.025823   -0.057640
     37          6           0       -9.079482   -4.597207   -1.114524
     38          6           0       -5.806122   -4.259817   -0.144545
     39          8           0       -5.731210   -5.481188   -0.211994
     40          6           0       -4.541939   -3.324268    0.284256
     41          6           0       -4.121139   -3.888533    1.748415
     42          8           0       -4.452353   -3.487944    2.790655
     43          8           0       -3.261654   -4.922347    1.583280
     44          6           0       -2.790734   -5.484240    2.790990
     45          6           0        2.711421   -1.186885   -1.103209
     46          6           0        4.091258   -0.818558   -0.460686
     47          6           0        4.982396    0.074992   -0.996977
     48          6           0        4.830047    1.088790   -2.097813
     49          6           0        6.371167    0.293361   -0.187295
     50          6           0        7.586472   -0.513744   -1.011704
     51          6           0        8.778304   -0.312390   -0.174901
     52          6           0       10.035189   -0.734238   -0.859023
     53          6           0        9.971425   -2.329262   -1.003647
     54          6           0       11.307894   -0.323238    0.083756
     55          6           0       12.732659   -0.678175   -0.597438
     56          6           0       13.807004   -0.030443    0.179922
     57          6           0       15.315249   -0.273891   -0.210425
     58          6           0       15.697109   -1.807618   -0.172886
     59          6           0       16.257270    0.643613    0.523909
     60          6           0       17.626575    0.599448   -0.142659
     61          6           0       18.582442    1.621700    0.613933
     62          6           0       19.920054    1.690793   -0.092478
     63          6           0       19.967034    2.390269   -1.433841
     64          6           0       20.892050    2.540294    0.821492
     65          1           0       -3.821963    3.254470    1.698096
     66          1           0      -10.197232    4.165980   -0.091393
     67          1           0      -10.754393   -1.877750   -1.217025
     68          1           0       -2.798514   -1.244163    2.105721
     69          1           0       -2.138414    1.318075    1.388977
     70          1           0       -2.122561    0.506398    3.799862
     71          1           0       -2.868341    2.024762    3.607292
     72          1           0       -3.954119    0.601727    3.862666
     73          1           0       -2.053621   -1.776407   -0.394113
     74          1           0       -2.356145   -0.020704   -0.652432
     75          1           0       -0.267632    0.166740    1.056818
     76          1           0       -0.410948   -1.687759    1.363000
     77          1           0       -4.182453    5.810278    0.741076
     78          1           0       -5.642142    6.823493    1.530550
     79          1           0       -4.864302    5.625497    2.601732
     80          1           0       -7.730802    7.082254    0.972467
     81          1           0       -9.451167    5.763838   -1.200565
     82          1           0       -9.519911    7.648581   -0.417839
     83          1           0      -12.298358    3.636956   -0.143058
     84          1           0      -11.990093    3.736762   -1.923503
     85          1           0      -13.277517    2.599691   -1.398900
     86          1           0      -12.732684   -1.143096   -1.034137
     87          1           0      -13.560313    0.578671   -1.483931
     88          1           0      -12.514990    0.330976   -3.711062
     89          1           0      -11.641585   -1.373536   -3.379258
     90          1           0      -13.433702   -1.151359   -3.265917
     91          1           0       -9.995097   -4.561063   -0.614618
     92          1           0       -9.309212   -4.700587   -2.209195
     93          1           0       -8.475269   -5.559877   -0.711676
     94          1           0       -3.751171   -3.422361   -0.475520
     95          1           0       -1.895401   -6.133330    2.531294
     96          1           0       -2.382766   -4.723209    3.494876
     97          1           0       -3.637092   -6.138793    3.152602
     98          1           0        2.679248   -2.141638   -1.236731
     99          1           0        2.440524   -0.442244   -1.969279
    100          1           0        4.321929   -1.425069    0.397604
    101          1           0        4.782319    2.218800   -1.803450
    102          1           0        5.644731    0.807195   -2.839018
    103          1           0        3.762952    1.047036   -2.399269
    104          1           0        6.758022    1.189962   -0.044251
    105          1           0        6.263882   -0.089781    0.989414
    106          1           0        7.232592   -1.614790   -1.077614
    107          1           0        7.466669   -0.165755   -2.099593
    108          1           0        8.928246    0.846144   -0.050228
    109          1           0        8.591705   -0.711588    0.790636
    110          1           0       10.069503   -0.097887   -1.923426
    111          1           0        9.139635   -2.580989   -1.564190
    112          1           0       11.047637   -2.727955   -1.358168
    113          1           0       10.179854   -2.894867   -0.044370
    114          1           0       11.299192    0.856227    0.238669
    115          1           0       11.083962   -0.883063    1.041642
    116          1           0       12.790933   -1.826404   -0.794229
    117          1           0       12.880886   -0.152513   -1.607980
    118          1           0       13.647273    0.986720    0.295666
    119          1           0       13.642052   -0.485726    1.231368
    120          1           0       15.383590   -0.078554   -1.329774
    121          1           0       15.093424   -2.377638   -0.871704
    122          1           0       16.688706   -1.808929   -0.549705
    123          1           0       15.489756   -2.304008    0.787505
    124          1           0       15.863002    1.743778    0.473971
    125          1           0       16.050550    0.287674    1.582629
    126          1           0       18.262994   -0.393563   -0.103539
    127          1           0       17.448831    1.049961   -1.025836
    128          1           0       17.961330    2.474449    0.720373
    129          1           0       18.729276    1.302049    1.662221
    130          1           0       20.339788    0.548591   -0.202178
    131          1           0       19.335569    3.491407   -1.401200
    132          1           0       21.090495    2.388886   -2.028793
    133          1           0       19.391608    1.969936   -2.292515
    134          1           0       21.274327    2.061117    1.715842
    135          1           0       21.873456    2.852272    0.303912
    136          1           0       20.323620    3.426198    0.858110
    137          1           0       -7.155243    1.632710    0.440469
    138          1           0       -7.707812   -0.252796   -0.331589
 ---------------------------------------------------------------------

 SCF Done:  E(RB3LYP) =  -2733.12491990     A.U. after   16 cycles

 Excitation energies and oscillator strengths:

 Excited State   1:      Singlet-A      2.0418 eV  607.22 nm  f=0.1567  <S**2>=0.000
     235 -> 237       -0.23903
     235 -> 238       -0.28788
     236 -> 237        0.57346
     236 -> 238       -0.17030
 This state for optimization and/or second-order correction.
 Total Energy, E(TD-HF/TD-DFT) =  -2733.04988448
 Copying the excited state density for this state as the 1-particle RhoCI density.

 The electronic state is 1-A.
 Alpha  occ. eigenvalues --  -19.16730 -19.16671 -19.12622 -19.11445 -19.11320
 Alpha  occ. eigenvalues --  -14.38039 -14.36276 -14.32515 -14.30366 -10.31232
 Alpha  occ. eigenvalues --  -10.31036 -10.26794 -10.24405 -10.24389 -10.24310
 Alpha  occ. eigenvalues --  -10.24173 -10.23311 -10.23280 -10.23262 -10.22824
 Alpha  occ. eigenvalues --  -10.22132 -10.21949 -10.21570 -10.21567 -10.21528
 Alpha  occ. eigenvalues --  -10.21365 -10.21265 -10.21137 -10.20947 -10.20871
 Alpha  occ. eigenvalues --  -10.20793 -10.20760 -10.20717 -10.20631 -10.20612
 Alpha  occ. eigenvalues --  -10.20504 -10.20503 -10.20400 -10.20350 -10.20248
 Alpha  occ. eigenvalues --  -10.20214 -10.20191 -10.20108 -10.19905 -10.19878
 Alpha  occ. eigenvalues --  -10.19761 -10.19662 -10.19630 -10.19467 -10.19303
 Alpha  occ. eigenvalues --  -10.19061 -10.18890 -10.18816 -10.18808 -10.18725
 Alpha  occ. eigenvalues --  -10.18677 -10.18534 -10.18348 -10.18276 -10.18251
 Alpha  occ. eigenvalues --  -10.17729 -10.17452 -10.17367 -10.17111  -1.10200
 Alpha  occ. eigenvalues --   -1.08305  -1.01838  -1.01248  -0.98559  -0.98331
 Alpha  occ. eigenvalues --   -0.96898  -0.94425  -0.93231  -0.84548  -0.82414
 Alpha  occ. eigenvalues --   -0.82236  -0.81894  -0.81646  -0.81476  -0.80060
 Alpha  occ. eigenvalues --   -0.80043  -0.79550  -0.79488  -0.79368  -0.77625
 Alpha  occ. eigenvalues --   -0.76727  -0.76331  -0.75263  -0.74826  -0.74330
 Alpha  occ. eigenvalues --   -0.73082  -0.72450  -0.72093  -0.71338  -0.70483
 Alpha  occ. eigenvalues --   -0.70218  -0.68875  -0.68388  -0.67534  -0.67231
 Alpha  occ. eigenvalues --   -0.67046  -0.66350  -0.66097  -0.66082  -0.65135
 Alpha  occ. eigenvalues --   -0.64281  -0.62660  -0.62483  -0.61269  -0.61210
 Alpha  occ. eigenvalues --   -0.60839  -0.58805  -0.58581  -0.57615  -0.56995
 Alpha  occ. eigenvalues --   -0.56361  -0.55283  -0.55244  -0.55105  -0.54890
 Alpha  occ. eigenvalues --   -0.54671  -0.54192  -0.53838  -0.53714  -0.52911
 Alpha  occ. eigenvalues --   -0.52506  -0.51921  -0.51596  -0.50950  -0.50664
 Alpha  occ. eigenvalues --   -0.50370  -0.49685  -0.49054  -0.48607  -0.48519
 Alpha  occ. eigenvalues --   -0.48056  -0.47343  -0.47316  -0.46989  -0.46832
 Alpha  occ. eigenvalues --   -0.46613  -0.46214  -0.46026  -0.45944  -0.45869
 Alpha  occ. eigenvalues --   -0.45547  -0.45293  -0.44911  -0.44814  -0.44641
 Alpha  occ. eigenvalues --   -0.44175  -0.44089  -0.44019  -0.43666  -0.43563
 Alpha  occ. eigenvalues --   -0.43382  -0.43070  -0.42915  -0.42778  -0.42639
 Alpha  occ. eigenvalues --   -0.42494  -0.42403  -0.41798  -0.41452  -0.41369
 Alpha  occ. eigenvalues --   -0.41211  -0.40849  -0.40762  -0.40608  -0.40515
 Alpha  occ. eigenvalues --   -0.40129  -0.40031  -0.39898  -0.39759  -0.39552
 Alpha  occ. eigenvalues --   -0.39120  -0.38957  -0.38788  -0.38601  -0.38474
 Alpha  occ. eigenvalues --   -0.38351  -0.38271  -0.37950  -0.37771  -0.37603
 Alpha  occ. eigenvalues --   -0.37387  -0.37107  -0.37017  -0.36875  -0.36595
 Alpha  occ. eigenvalues --   -0.36327  -0.36033  -0.35928  -0.35852  -0.35724
 Alpha  occ. eigenvalues --   -0.35509  -0.35132  -0.34843  -0.34654  -0.34613
 Alpha  occ. eigenvalues --   -0.34491  -0.34228  -0.34183  -0.33966  -0.33767
 Alpha  occ. eigenvalues --   -0.33467  -0.33039  -0.32835  -0.32707  -0.32567
 Alpha  occ. eigenvalues --   -0.32270  -0.32078  -0.31737  -0.31240  -0.31130
 Alpha  occ. eigenvalues --   -0.31021  -0.30664  -0.30164  -0.29893  -0.29801
 Alpha  occ. eigenvalues --   -0.29557  -0.28799  -0.28618  -0.28075  -0.27850
 Alpha  occ. eigenvalues --   -0.27759  -0.27224  -0.26717  -0.26537  -0.26059
 Alpha  occ. eigenvalues --   -0.24738  -0.24399  -0.24118  -0.22727  -0.19909
 Alpha  occ. eigenvalues --   -0.18832
 Alpha virt. eigenvalues --   -0.10353  -0.07988  -0.03993  -0.01631  -0.00730
 Alpha virt. eigenvalues --   -0.00429   0.00373   0.01582   0.02234   0.03511
 Alpha virt. eigenvalues --    0.03843   0.03978   0.04024   0.04529   0.04603

 Mulliken charges:
               1
     1  C   -0.006063
     2  C   -0.060547
     3  C   -0.155700
     4  C   -0.067911
     5  N   -0.180659
     6  C   -0.089399
     7  C    0.127185
     8  C   -0.122383
     9  C   -0.022718
    10  C    0.125241
    11  C    0.042389
    12  C    0.012470
    13  C    0.162561
    14  O   -0.274017
    15  O   -0.342105
    16  N   -0.143533
    17  C    0.174046
    18  C   -0.104202
    19  C    0.020064
    20  C    0.152105
    21  C    0.031852
    22  C   -0.017617
    23  C   -0.068638
    24  N   -0.230502
    25  C    0.037910
    26  C   -0.138750
    27  C   -0.004937
    28  C    0.024889
    29  C    0.045544
    30  C   -0.076384
    31  C   -0.021740
    32  N   -0.002621
    33  C    0.051560
    34  C   -0.117114
    35  C    0.017983
    36  C    0.122456
    37  C    0.076979
    38  C    0.021111
    39  O   -0.185591
    40  C   -0.084302
    41  C    0.188287
    42  O   -0.176439
    43  O   -0.295727
    44  C    0.152332
    45  C    0.350568
    46  C   -0.085279
    47  C   -0.125433
    48  C    0.062332
    49  C    0.034365
    50  C   -0.054716
    51  C    0.082259
    52  C   -0.108602
    53  C    0.016691
    54  C   -0.033457
    55  C    0.015124
    56  C    0.057891
    57  C   -0.103248
    58  C    0.063028
    59  C    0.002415
    60  C    0.061554
    61  C    0.044972
    62  C   -0.095491
    63  C   -0.072941
    64  C    0.062107
    65  H   -0.028684
    66  H    0.030415
    67  H   -0.017058
    68  H   -0.065098
    69  H    0.001281
    70  H    0.003505
    71  H   -0.007738
    72  H    0.037297
    73  H    0.020991
    74  H    0.034515
    75  H    0.026706
    76  H    0.057069
    77  H    0.057508
    78  H    0.022366
    79  H    0.042605
    80  H   -0.014303
    81  H    0.040437
    82  H    0.042587
    83  H    0.035921
    84  H    0.030580
    85  H    0.021049
    86  H    0.021024
    87  H    0.029607
    88  H    0.019655
    89  H    0.051450
    90  H    0.010504
    91  H    0.009862
    92  H    0.035246
    93  H    0.065627
    94  H    0.058144
    95  H    0.029796
    96  H    0.032238
    97  H    0.045070
    98  H   -0.041419
    99  H    0.044670
   100  H   -0.006574
   101  H    0.043446
   102  H    0.047590
   103  H   -0.001686
   104  H   -0.044228
   105  H    0.010922
   106  H    0.019079
   107  H    0.012525
   108  H   -0.002804
   109  H   -0.013779
   110  H    0.016850
   111  H    0.015665
   112  H    0.007351
   113  H    0.007836
   114  H    0.015127
   115  H    0.014422
   116  H    0.021222
   117  H   -0.002997
   118  H   -0.034335
   119  H   -0.019307
   120  H   -0.024396
   121  H   -0.003767
   122  H   -0.007566
   123  H    0.004607
   124  H    0.004321
   125  H    0.002026
   126  H    0.037613
   127  H   -0.033274
   128  H   -0.029826
   129  H   -0.006597
   130  H    0.011572
   131  H    0.021923
   132  H    0.038082
   133  H    0.010035
   134  H    0.012066
   135  H   -0.000534
   136  H   -0.007092
   137  H    0.200783
   138  H    0.108769
 Sum of Mulliken charges =  -0.00000

 Dipole moment (field-independent basis, Debye):
    X=              1.7133    Y=              5.3739    Z=              1.4722  Tot=              5.8294
 Quadrupole moment (field-independent basis, Debye-Ang):
   XX=           -356.7990   YY=           -388.9685   ZZ=           -397.3586
   XY=            -30.5531   XZ=              6.5465   YZ=             -1.3434

 Normal termination of Gaussian 16 at Wed Aug 14 17:53:24 2019.
