 Gaussian 16, Revision A.03,
 Gaussian 16:  ES64L-G16RevA.03 25-Dec-2016

 --------------------------
 # td=(NStates=1) B3LYP/SVP
 --------------------------

 --
 TD
 --
 Symbolic Z-matrix:
 Charge =  0 Multiplicity = 1

                         Standard orientation:
 ---------------------------------------------------------------------
 Center     Atomic      Atomic             Coordinates (Angstroms)
 Number     Number       Type             X           Y           Z
 ---------------------------------------------------------------------
      1          6           0       -4.981454   -1.917198    0.456675
      2          6           0       -4.760470    2.809113    1.337682
      3          6           0       -9.456686    3.267139   -0.218453
      4          6           0       -9.737680   -1.538732   -0.900666
      5          7           0       -5.189639    0.446655    0.843513
      6          6           0       -4.484793   -0.668586    0.859527
      7          6           0       -3.051725   -0.498131    1.216287
      8          6           0       -3.051378    1.050602    1.784113
      9          6           0       -4.389646    1.492278    1.302898
     10          6           0       -2.893824    1.016329    3.262377
     11          6           0       -2.021667   -0.668535    0.005223
     12          6           0       -0.616012   -0.630847    0.507991
     13          6           0        0.296325   -0.815612   -0.783129
     14          8           0       -0.095568   -1.196923   -1.865252
     15          8           0        1.615672   -0.736842   -0.420499
     16          7           0       -7.122126    2.703023    0.565960
     17          6           0       -5.975030    3.419718    0.969356
     18          6           0       -6.376696    4.762964    1.194899
     19          6           0       -7.632207    4.952098    0.701437
     20          6           0       -8.221953    3.561584    0.302331
     21          6           0       -5.445318    5.803420    1.569560
     22          6           0       -8.230508    6.294213    0.301256
     23          6           0       -9.020702    6.487685   -0.796983
     24          7           0       -9.238757    0.823721   -0.500665
     25          6           0       -9.954269    2.013165   -0.551565
     26          6           0      -11.302440    1.737600   -0.949585
     27          6           0      -11.335234    0.387496   -1.122836
     28          6           0      -10.044655   -0.148582   -0.887208
     29          6           0      -12.332056    2.754241   -1.081611
     30          6           0      -12.620901   -0.416011   -1.557920
     31          6           0      -12.585644   -0.817087   -2.935224
     32          7           0       -7.529042   -1.300641   -0.068528
     33          6           0       -8.539314   -2.093781   -0.507687
     34          6           0       -8.064951   -3.459646   -0.587623
     35          6           0       -6.736493   -3.451426   -0.197344
     36          6           0       -6.404468   -2.075751    0.139142
     37          6           0       -9.008375   -4.547054   -1.039146
     38          6           0       -5.586978   -4.305292    0.001984
     39          8           0       -5.394292   -5.432210   -0.148039
     40          6           0       -4.430111   -3.313083    0.444358
     41          6           0       -3.775227   -3.726338    1.769382
     42          8           0       -4.090234   -3.241369    2.855598
     43          8           0       -3.036391   -4.826626    1.609317
     44          6           0       -2.434710   -5.513038    2.736482
     45          6           0        2.622731   -0.834376   -1.475020
     46          6           0        3.932763   -0.646410   -0.865694
     47          6           0        4.970560    0.211684   -1.247051
     48          6           0        4.920686    1.003176   -2.430186
     49          6           0        6.183395    0.205936   -0.319606
     50          6           0        7.540682   -0.396527   -1.095072
     51          6           0        8.786920   -0.090299   -0.249379
     52          6           0       10.054812   -0.719145   -0.731368
     53          6           0        9.948456   -2.168493   -0.764132
     54          6           0       11.228181   -0.259713    0.145411
     55          6           0       12.654780   -0.472002   -0.556455
     56          6           0       13.821848   -0.013536    0.279084
     57          6           0       15.246767   -0.349032   -0.305038
     58          6           0       15.612612   -1.776182   -0.336375
     59          6           0       16.246322    0.487576    0.575287
     60          6           0       17.629392    0.529589   -0.013959
     61          6           0       18.627084    1.482162    0.607617
     62          6           0       20.129565    1.538468    0.054826
     63          6           0       20.088896    2.313217   -1.372270
     64          6           0       20.950850    2.315333    1.083943
     65          1           0       -4.137785    3.352326    1.796713
     66          1           0       -9.875002    4.275626   -0.297739
     67          1           0      -10.716136   -2.077758   -0.867077
     68          1           0       -3.133739   -1.050053    2.226440
     69          1           0       -2.158245    1.483191    1.285780
     70          1           0       -2.014148    0.564001    3.656868
     71          1           0       -2.849236    2.096908    3.719008
     72          1           0       -3.755344    0.255711    3.821568
     73          1           0       -2.253584   -1.771003   -0.528253
     74          1           0       -2.184828   -0.014675   -0.704158
     75          1           0       -0.398490    0.302080    1.249970
     76          1           0       -0.499976   -1.705538    1.127506
     77          1           0       -4.601702    5.886599    0.795644
     78          1           0       -5.763014    6.797108    1.701004
     79          1           0       -4.843040    5.545550    2.508775
     80          1           0       -8.052777    7.165427    0.890643
     81          1           0       -9.187996    5.705309   -1.309066
     82          1           0       -9.251204    7.579803   -1.004090
     83          1           0      -12.197155    3.589663   -0.174208
     84          1           0      -12.036425    3.309487   -2.082672
     85          1           0      -13.417854    2.581376   -1.213580
     86          1           0      -12.788301   -1.336995   -1.023914
     87          1           0      -13.471010    0.252977   -1.416337
     88          1           0      -12.718543   -0.003588   -3.832337
     89          1           0      -11.579510   -1.284671   -3.099112
     90          1           0      -13.346357   -1.424297   -3.266474
     91          1           0       -9.965361   -4.506899   -0.541066
     92          1           0       -8.942208   -4.527165   -2.516510
     93          1           0       -8.499774   -5.601059   -0.813759
     94          1           0       -3.767506   -3.374852   -0.470202
     95          1           0       -1.967557   -6.365785    2.225725
     96          1           0       -1.706332   -4.926078    3.264296
     97          1           0       -3.391515   -5.731896    3.595021
     98          1           0        2.391175   -1.870872   -1.963517
     99          1           0        2.584073    0.241089   -2.121919
    100          1           0        4.047316   -1.237393   -0.011925
    101          1           0        5.393689    2.032855   -2.138286
    102          1           0        5.454641    0.690920   -3.240842
    103          1           0        3.885098    1.364096   -2.867444
    104          1           0        6.390465    1.157344   -0.074694
    105          1           0        6.161545   -0.455713    0.662575
    106          1           0        7.389880   -1.459646   -1.249050
    107          1           0        7.724180    0.012581   -2.031251
    108          1           0        9.065494    1.054354   -0.109756
    109          1           0        8.596886   -0.427446    0.923451
    110          1           0       10.205976   -0.398776   -1.658853
    111          1           0        9.147606   -2.694220   -1.515717
    112          1           0       10.913662   -2.699917   -1.202679
    113          1           0        9.769450   -2.698704    0.339445
    114          1           0       11.185081    0.784776    0.329962
    115          1           0       11.003093   -0.870184    1.238080
    116          1           0       12.514190   -1.416846   -0.892599
    117          1           0       12.559200    0.124618   -1.426605
    118          1           0       13.699089    0.984813    0.657593
    119          1           0       13.716177   -0.485828    1.170777
    120          1           0       15.252775    0.079318   -1.393098
    121          1           0       15.091713   -2.219263   -1.307676
    122          1           0       16.754288   -1.949096   -0.568154
    123          1           0       15.429350   -2.207217    0.680027
    124          1           0       15.919014    1.451904    0.714661
    125          1           0       16.662295    0.055027    1.661031
    126          1           0       18.146509   -0.377297   -0.162441
    127          1           0       17.608215    1.013086   -1.093706
    128          1           0       18.093806    2.534010    0.554275
    129          1           0       18.721657    1.357706    1.811872
    130          1           0       20.613031    0.527634   -0.148924
    131          1           0       19.798156    3.293377   -1.140732
    132          1           0       21.099940    2.448515   -1.742851
    133          1           0       19.583144    1.740397   -2.112285
    134          1           0       20.903636    1.842119    2.017282
    135          1           0       21.889703    2.447634    0.677940
    136          1           0       20.524916    3.295098    1.376086
    137          1           0       -7.204129    1.545728    0.131304
    138          1           0       -7.591182   -0.286982    0.010010
 ---------------------------------------------------------------------

 SCF Done:  E(RB3LYP) =  -2732.97532460     A.U. after   16 cycles

 Excitation energies and oscillator strengths:

 Excited State   1:      Singlet-A      2.0205 eV  613.63 nm  f=0.1339  <S**2>=0.000
     235 -> 238       -0.33686
     236 -> 237        0.61309
 This state for optimization and/or second-order correction.
 Total Energy, E(TD-HF/TD-DFT) =  -2732.90107298
 Copying the excited state density for this state as the 1-particle RhoCI density.

 The electronic state is 1-A.
 Alpha  occ. eigenvalues --  -19.18179 -19.17139 -19.13114 -19.12720 -19.12244
 Alpha  occ. eigenvalues --  -14.37018 -14.36997 -14.31747 -14.29397 -10.32079
 Alpha  occ. eigenvalues --  -10.31884 -10.27772 -10.26486 -10.25965 -10.23850
 Alpha  occ. eigenvalues --  -10.23748 -10.23510 -10.22972 -10.22960 -10.22913
 Alpha  occ. eigenvalues --  -10.22336 -10.22163 -10.21727 -10.21104 -10.21068
 Alpha  occ. eigenvalues --  -10.20996 -10.20835 -10.20787 -10.20464 -10.20355
 Alpha  occ. eigenvalues --  -10.20294 -10.20239 -10.20163 -10.20161 -10.20079
 Alpha  occ. eigenvalues --  -10.20072 -10.20068 -10.20039 -10.19963 -10.19835
 Alpha  occ. eigenvalues --  -10.19831 -10.19810 -10.19769 -10.19746 -10.19610
 Alpha  occ. eigenvalues --  -10.19429 -10.19323 -10.19263 -10.19100 -10.18902
 Alpha  occ. eigenvalues --  -10.18751 -10.18656 -10.18280 -10.18153 -10.17705
 Alpha  occ. eigenvalues --  -10.17658 -10.17563 -10.17510 -10.17244 -10.17224
 Alpha  occ. eigenvalues --  -10.17186 -10.17147 -10.17041 -10.16586  -1.09073
 Alpha  occ. eigenvalues --   -1.08191  -1.06611  -1.00490  -0.99828  -0.98386
 Alpha  occ. eigenvalues --   -0.94921  -0.94118  -0.93600  -0.84481  -0.83253
 Alpha  occ. eigenvalues --   -0.82287  -0.81433  -0.81432  -0.80816  -0.80359
 Alpha  occ. eigenvalues --   -0.79931  -0.79356  -0.79231  -0.79125  -0.77588
 Alpha  occ. eigenvalues --   -0.76730  -0.76168  -0.75862  -0.75233  -0.74887
 Alpha  occ. eigenvalues --   -0.73784  -0.73591  -0.72523  -0.72294  -0.69775
 Alpha  occ. eigenvalues --   -0.69456  -0.68902  -0.68349  -0.68157  -0.67783
 Alpha  occ. eigenvalues --   -0.66946  -0.66874  -0.65906  -0.65847  -0.64728
 Alpha  occ. eigenvalues --   -0.64024  -0.62697  -0.62526  -0.60961  -0.60216
 Alpha  occ. eigenvalues --   -0.60131  -0.58727  -0.58470  -0.57752  -0.57645
 Alpha  occ. eigenvalues --   -0.57345  -0.55986  -0.55890  -0.55030  -0.55005
 Alpha  occ. eigenvalues --   -0.54776  -0.54601  -0.54494  -0.53489  -0.53403
 Alpha  occ. eigenvalues --   -0.52679  -0.51926  -0.51899  -0.51015  -0.50366
 Alpha  occ. eigenvalues --   -0.49759  -0.49428  -0.48648  -0.48505  -0.48250
 Alpha  occ. eigenvalues --   -0.47762  -0.47662  -0.47416  -0.47116  -0.46983
 Alpha  occ. eigenvalues --   -0.46421  -0.46256  -0.46145  -0.45790  -0.45546
 Alpha  occ. eigenvalues --   -0.45484  -0.45208  -0.45130  -0.45056  -0.44640
 Alpha  occ. eigenvalues --   -0.44252  -0.44243  -0.44148  -0.44009  -0.43742
 Alpha  occ. eigenvalues --   -0.43556  -0.43483  -0.43105  -0.42828  -0.42742
 Alpha  occ. eigenvalues --   -0.42599  -0.42464  -0.42257  -0.41603  -0.41433
 Alpha  occ. eigenvalues --   -0.41015  -0.40862  -0.40798  -0.40674  -0.40539
 Alpha  occ. eigenvalues --   -0.40528  -0.40339  -0.39829  -0.39747  -0.39454
 Alpha  occ. eigenvalues --   -0.39262  -0.38766  -0.38689  -0.38637  -0.38526
 Alpha  occ. eigenvalues --   -0.37854  -0.37771  -0.37537  -0.37303  -0.37233
 Alpha  occ. eigenvalues --   -0.37033  -0.36956  -0.36762  -0.36654  -0.36599
 Alpha  occ. eigenvalues --   -0.36556  -0.36032  -0.35771  -0.35673  -0.35551
 Alpha  occ. eigenvalues --   -0.35325  -0.35212  -0.34983  -0.34777  -0.34757
 Alpha  occ. eigenvalues --   -0.34623  -0.34345  -0.34100  -0.33497  -0.33311
 Alpha  occ. eigenvalues --   -0.33262  -0.32966  -0.32639  -0.32577  -0.32517
 Alpha  occ. eigenvalues --   -0.32170  -0.31856  -0.31716  -0.31436  -0.31329
 Alpha  occ. eigenvalues --   -0.30886  -0.30646  -0.30393  -0.30126  -0.29941
 Alpha  occ. eigenvalues --   -0.29413  -0.28806  -0.28491  -0.28223  -0.28100
 Alpha  occ. eigenvalues --   -0.27598  -0.26688  -0.26226  -0.26156  -0.25963
 Alpha  occ. eigenvalues --   -0.25243  -0.23977  -0.23640  -0.22054  -0.19528
 Alpha  occ. eigenvalues --   -0.18670
 Alpha virt. eigenvalues --   -0.09996  -0.08002  -0.03694  -0.01676  -0.01338
 Alpha virt. eigenvalues --   -0.01216  -0.00541   0.00646   0.01578   0.03044
 Alpha virt. eigenvalues --    0.03762   0.03811   0.04360   0.04672   0.04845

 Mulliken charges:
               1
     1  C   -0.019806
     2  C    0.053301
     3  C   -0.048863
     4  C   -0.079786
     5  N   -0.163864
     6  C   -0.110239
     7  C   -0.047832
     8  C   -0.044344
     9  C    0.025938
    10  C    0.002228
    11  C    0.115431
    12  C   -0.073856
    13  C    0.215400
    14  O   -0.229029
    15  O   -0.339041
    16  N   -0.224385
    17  C    0.140521
    18  C   -0.086061
    19  C    0.018488
    20  C   -0.002050
    21  C    0.085066
    22  C   -0.072590
    23  C    0.069274
    24  N   -0.246134
    25  C    0.133445
    26  C   -0.067968
    27  C   -0.120357
    28  C   -0.004638
    29  C    0.011344
    30  C    0.144867
    31  C   -0.012446
    32  N   -0.033554
    33  C    0.096552
    34  C   -0.115566
    35  C   -0.017297
    36  C    0.071788
    37  C   -0.013767
    38  C    0.043396
    39  O   -0.081923
    40  C   -0.043808
    41  C    0.229806
    42  O   -0.251916
    43  O   -0.289120
    44  C    0.138647
    45  C    0.237282
    46  C   -0.096908
    47  C   -0.105530
    48  C    0.052428
    49  C    0.099851
    50  C    0.044537
    51  C   -0.055397
    52  C    0.056527
    53  C   -0.082635
    54  C   -0.049460
    55  C    0.125676
    56  C    0.148498
    57  C   -0.084198
    58  C    0.008938
    59  C    0.059583
    60  C    0.031477
    61  C   -0.069605
    62  C   -0.130146
    63  C    0.067418
    64  C    0.109913
    65  H   -0.149354
    66  H   -0.033131
    67  H    0.007005
    68  H    0.036947
    69  H    0.000344
    70  H    0.005949
    71  H    0.022903
    72  H    0.051343
    73  H    0.044710
    74  H   -0.027948
    75  H    0.068250
    76  H    0.065213
    77  H    0.028005
    78  H   -0.001795
    79  H    0.023504
    80  H   -0.007537
    81  H   -0.047135
    82  H    0.042416
    83  H    0.041857
    84  H    0.032625
    85  H    0.022906
    86  H   -0.007929
    87  H   -0.017018
    88  H    0.002062
    89  H    0.010969
    90  H   -0.015248
    91  H    0.045081
    92  H    0.055883
    93  H    0.058069
    94  H    0.061560
    95  H    0.053626
    96  H    0.034414
    97  H    0.066164
    98  H    0.055119
    99  H    0.035506
   100  H   -0.033599
   101  H    0.010863
   102  H    0.017347
   103  H    0.036097
   104  H   -0.027605
   105  H    0.030623
   106  H    0.006296
   107  H   -0.021640
   108  H    0.003388
   109  H   -0.002431
   110  H   -0.062375
   111  H    0.028193
   112  H    0.019906
   113  H    0.025596
   114  H   -0.020621
   115  H    0.010074
   116  H   -0.053253
   117  H   -0.032975
   118  H   -0.029367
   119  H   -0.053829
   120  H    0.001331
   121  H    0.027715
   122  H    0.021943
   123  H    0.020737
   124  H   -0.033416
   125  H    0.012677
   126  H   -0.016644
   127  H   -0.014783
   128  H   -0.000900
   129  H   -0.011172
   130  H    0.009034
   131  H   -0.007942
   132  H   -0.012646
   133  H    0.015459
   134  H   -0.010314
   135  H   -0.012055
   136  H   -0.006122
   137  H    0.251960
   138  H    0.125613
 Sum of Mulliken charges =  -0.00000

 Dipole moment (field-independent basis, Debye):
    X=              4.6429    Y=              3.6235    Z=              0.0726  Tot=              5.8900
 Quadrupole moment (field-independent basis, Debye-Ang):
   XX=           -365.5995   YY=           -374.7220   ZZ=           -397.5869
   XY=            -14.3327   XZ=             -2.0952   YZ=             -3.9982

 Normal termination of Gaussian 16 at Fri Aug 16 09:53:54 2019.
