 Gaussian 16, Revision A.03,
 Gaussian 16:  ES64L-G16RevA.03 25-Dec-2016

 --------------------------
 # td=(NStates=1) B3LYP/SVP
 --------------------------

 --
 TD
 --
 Symbolic Z-matrix:
 Charge =  0 Multiplicity = 1

                         Standard orientation:
 ---------------------------------------------------------------------
 Center     Atomic      Atomic             Coordinates (Angstroms)
 Number     Number       Type             X           Y           Z
 ---------------------------------------------------------------------
      1          6           0       -5.086248   -1.914740    0.393405
      2          6           0       -4.800587    2.739548    1.459642
      3          6           0       -9.352742    3.305016   -0.113616
      4          6           0       -9.802151   -1.503903   -1.062734
      5          7           0       -5.167741    0.497540    0.804231
      6          6           0       -4.536837   -0.753514    0.838324
      7          6           0       -3.088068   -0.476692    1.302512
      8          6           0       -3.164724    0.776537    1.980818
      9          6           0       -4.460308    1.345752    1.443296
     10          6           0       -3.061322    0.782181    3.456588
     11          6           0       -2.016900   -0.673418    0.204369
     12          6           0       -0.657727   -0.717323    0.626170
     13          6           0        0.370087   -0.966905   -0.536727
     14          8           0        0.085994   -1.478453   -1.561653
     15          8           0        1.612812   -0.601314   -0.156657
     16          7           0       -7.023281    2.785145    0.390445
     17          6           0       -5.905190    3.365458    1.050923
     18          6           0       -6.205444    4.768383    1.163865
     19          6           0       -7.576398    5.023910    0.669765
     20          6           0       -8.016252    3.695884    0.209957
     21          6           0       -5.275754    5.776584    1.824013
     22          6           0       -8.245164    6.225581    0.550290
     23          6           0       -9.097881    6.541173   -0.432918
     24          7           0       -9.111731    0.785138   -0.505122
     25          6           0       -9.843027    1.985631   -0.638983
     26          6           0      -11.099524    1.891253   -1.059673
     27          6           0      -11.308302    0.483657   -1.345480
     28          6           0      -10.137879   -0.111707   -0.926901
     29          6           0      -12.113980    2.940229   -1.277122
     30          6           0      -12.583346   -0.203653   -1.859189
     31          6           0      -12.497121   -0.476954   -3.391452
     32          7           0       -7.486414   -1.198462   -0.303318
     33          6           0       -8.621010   -2.018231   -0.748806
     34          6           0       -8.133457   -3.361661   -0.713971
     35          6           0       -6.798342   -3.457138   -0.310689
     36          6           0       -6.372839   -2.199252   -0.068911
     37          6           0       -9.016173   -4.526534   -1.218532
     38          6           0       -5.677457   -4.280265    0.069894
     39          8           0       -5.727231   -5.504561    0.141980
     40          6           0       -4.480400   -3.325358    0.445968
     41          6           0       -3.930973   -3.786496    1.774538
     42          8           0       -4.202703   -3.379095    2.874014
     43          8           0       -3.088656   -4.900624    1.622572
     44          6           0       -2.704483   -5.509569    2.839433
     45          6           0        2.600592   -1.045493   -1.205018
     46          6           0        3.956243   -0.705558   -0.620124
     47          6           0        4.975583    0.055787   -1.245275
     48          6           0        4.796394    0.602765   -2.611252
     49          6           0        6.176165    0.361964   -0.409773
     50          6           0        7.422235   -0.371137   -0.995274
     51          6           0        8.740875    0.070554   -0.216390
     52          6           0        9.967078   -0.586559   -0.776055
     53          6           0        9.922087   -2.144299   -0.716915
     54          6           0       11.183535   -0.108950   -0.051386
     55          6           0       12.659532   -0.452103   -0.525879
     56          6           0       13.784623    0.290088    0.298490
     57          6           0       15.158680   -0.122400   -0.316144
     58          6           0       15.476556   -1.679288   -0.086089
     59          6           0       16.228084    0.697031    0.439996
     60          6           0       17.688396    0.453222   -0.037353
     61          6           0       18.709375    1.569383    0.423922
     62          6           0       20.148913    1.400089   -0.104264
     63          6           0       20.427041    1.925236   -1.470876
     64          6           0       21.119497    2.225974    0.940029
     65          1           0       -4.347084    3.496174    2.028827
     66          1           0       -9.959361    4.066945   -0.366589
     67          1           0      -10.482260   -2.318762   -1.446420
     68          1           0       -2.767321   -1.441706    1.964768
     69          1           0       -2.399071    1.452901    1.928543
     70          1           0       -2.184996    0.390484    3.811214
     71          1           0       -3.114265    1.963141    3.813261
     72          1           0       -3.878023    0.246571    4.129258
     73          1           0       -2.203321   -1.571886   -0.277535
     74          1           0       -2.276820    0.164504   -0.590462
     75          1           0       -0.373530    0.243044    1.279609
     76          1           0       -0.339392   -1.509813    1.339440
     77          1           0       -4.251241    5.806789    1.136427
     78          1           0       -5.784859    6.735395    1.917757
     79          1           0       -4.917239    5.429599    2.709961
     80          1           0       -7.951380    7.081237    1.009316
     81          1           0       -9.357384    5.956271   -1.329080
     82          1           0       -9.527463    7.514815   -0.678307
     83          1           0      -12.448893    3.244957   -0.274319
     84          1           0      -11.724652    3.827199   -1.964196
     85          1           0      -13.140044    2.636949   -1.632379
     86          1           0      -12.595634   -1.223143   -1.228263
     87          1           0      -13.452134    0.345161   -1.518257
     88          1           0      -12.293752    0.440429   -4.015796
     89          1           0      -11.511358   -1.078262   -3.703941
     90          1           0      -13.309163   -1.230865   -3.646999
     91          1           0       -9.858992   -4.569187   -0.588225
     92          1           0       -9.233872   -4.341696   -2.424471
     93          1           0       -8.412398   -5.512735   -1.065527
     94          1           0       -3.598628   -3.417645   -0.281978
     95          1           0       -2.008883   -6.272749    2.421569
     96          1           0       -2.029823   -4.803586    3.492836
     97          1           0       -3.541458   -6.048667    3.234162
     98          1           0        2.547206   -1.951577   -1.565310
     99          1           0        2.520273   -0.431303   -2.248003
    100          1           0        4.360686   -1.060008    0.375511
    101          1           0        5.229027    1.777116   -2.523874
    102          1           0        5.586785    0.180856   -3.431792
    103          1           0        3.857050    0.557098   -2.958568
    104          1           0        6.665927    1.397594   -0.277901
    105          1           0        6.017678    0.041065    0.487853
    106          1           0        7.334496   -1.319764   -0.942380
    107          1           0        7.579413    0.170561   -2.116949
    108          1           0        8.791790    1.084074   -0.050423
    109          1           0        8.681738   -0.206539    0.919313
    110          1           0       10.126865   -0.416312   -1.774188
    111          1           0        9.235740   -2.785724   -1.556095
    112          1           0       11.020756   -2.579712   -1.073294
    113          1           0        9.634932   -2.304675    0.367807
    114          1           0       11.103438    0.919739    0.013519
    115          1           0       11.184094   -0.341650    1.186178
    116          1           0       12.805015   -1.606100   -0.227102
    117          1           0       12.790898   -0.299139   -1.649000
    118          1           0       13.741947    1.427384   -0.137514
    119          1           0       13.978922    0.081718    1.235751
    120          1           0       15.093296    0.159568   -1.400455
    121          1           0       14.782196   -2.007553   -0.734639
    122          1           0       16.596602   -1.960691   -0.411787
    123          1           0       15.176011   -1.959939    1.189024
    124          1           0       15.759253    1.888953    0.398001
    125          1           0       16.119446    0.424914    1.476125
    126          1           0       17.958291   -0.660668    0.009994
    127          1           0       17.779885    0.347478   -1.203644
    128          1           0       18.109603    2.533090    0.434422
    129          1           0       18.754488    1.443889    1.553171
    130          1           0       20.441420    0.425697   -0.075576
    131          1           0       20.006103    2.955910   -1.540178
    132          1           0       21.561923    2.335029   -1.846697
    133          1           0       19.948001    1.356472   -2.123747
    134          1           0       21.110693    1.658476    1.783163
    135          1           0       22.161421    2.067605    0.488016
    136          1           0       20.809036    3.191423    0.815499
    137          1           0       -7.144590    1.786434    0.367155
    138          1           0       -7.521992   -0.114405   -0.355891
 ---------------------------------------------------------------------

 SCF Done:  E(RB3LYP) =  -2732.89945012     A.U. after   17 cycles

 Excitation energies and oscillator strengths:

 Excited State   1:      Singlet-A      2.0491 eV  605.08 nm  f=0.0276  <S**2>=0.000
     235 -> 237        0.45759
     235 -> 238        0.12987
     236 -> 237       -0.17073
     236 -> 238        0.48505
 This state for optimization and/or second-order correction.
 Total Energy, E(TD-HF/TD-DFT) =  -2732.82414876
 Copying the excited state density for this state as the 1-particle RhoCI density.

 The electronic state is 1-A.
 Alpha  occ. eigenvalues --  -19.18686 -19.16659 -19.13210 -19.12980 -19.12427
 Alpha  occ. eigenvalues --  -14.35943 -14.34788 -14.32256 -14.29133 -10.31747
 Alpha  occ. eigenvalues --  -10.31724 -10.28573 -10.25584 -10.24092 -10.23973
 Alpha  occ. eigenvalues --  -10.23542 -10.23511 -10.23455 -10.23392 -10.22868
 Alpha  occ. eigenvalues --  -10.22289 -10.21948 -10.21615 -10.21546 -10.21219
 Alpha  occ. eigenvalues --  -10.20913 -10.20900 -10.20806 -10.20766 -10.20639
 Alpha  occ. eigenvalues --  -10.20609 -10.20599 -10.20572 -10.20464 -10.20464
 Alpha  occ. eigenvalues --  -10.20450 -10.20419 -10.20224 -10.20054 -10.19966
 Alpha  occ. eigenvalues --  -10.19944 -10.19896 -10.19731 -10.19629 -10.19514
 Alpha  occ. eigenvalues --  -10.19465 -10.19395 -10.19270 -10.19186 -10.19182
 Alpha  occ. eigenvalues --  -10.19122 -10.19042 -10.18859 -10.18856 -10.18829
 Alpha  occ. eigenvalues --  -10.18646 -10.18591 -10.18466 -10.18414 -10.18329
 Alpha  occ. eigenvalues --  -10.18045 -10.17605 -10.17460 -10.16798  -1.10121
 Alpha  occ. eigenvalues --   -1.08472  -1.02332  -1.01786  -1.00393  -0.97137
 Alpha  occ. eigenvalues --   -0.96160  -0.93544  -0.91572  -0.85728  -0.83171
 Alpha  occ. eigenvalues --   -0.82917  -0.82454  -0.81712  -0.81452  -0.80909
 Alpha  occ. eigenvalues --   -0.79855  -0.79745  -0.78976  -0.78701  -0.77932
 Alpha  occ. eigenvalues --   -0.76841  -0.76360  -0.75909  -0.74669  -0.74323
 Alpha  occ. eigenvalues --   -0.73185  -0.72981  -0.72678  -0.70987  -0.70808
 Alpha  occ. eigenvalues --   -0.70278  -0.68756  -0.68288  -0.68148  -0.67730
 Alpha  occ. eigenvalues --   -0.66926  -0.66559  -0.65885  -0.65441  -0.65080
 Alpha  occ. eigenvalues --   -0.64864  -0.63576  -0.62908  -0.61336  -0.61172
 Alpha  occ. eigenvalues --   -0.60997  -0.59305  -0.58878  -0.58110  -0.57326
 Alpha  occ. eigenvalues --   -0.57066  -0.56545  -0.56525  -0.55902  -0.55744
 Alpha  occ. eigenvalues --   -0.55037  -0.54537  -0.53934  -0.53862  -0.53139
 Alpha  occ. eigenvalues --   -0.52617  -0.52006  -0.51677  -0.50769  -0.50263
 Alpha  occ. eigenvalues --   -0.50024  -0.49722  -0.49143  -0.48964  -0.48671
 Alpha  occ. eigenvalues --   -0.48054  -0.47844  -0.47625  -0.47373  -0.47268
 Alpha  occ. eigenvalues --   -0.47079  -0.46850  -0.46576  -0.46066  -0.45891
 Alpha  occ. eigenvalues --   -0.45621  -0.45486  -0.45114  -0.44791  -0.44608
 Alpha  occ. eigenvalues --   -0.44156  -0.44129  -0.44068  -0.43423  -0.43355
 Alpha  occ. eigenvalues --   -0.43187  -0.43016  -0.42960  -0.42918  -0.42758
 Alpha  occ. eigenvalues --   -0.42151  -0.42054  -0.41834  -0.41656  -0.41561
 Alpha  occ. eigenvalues --   -0.41346  -0.41193  -0.40913  -0.40614  -0.40180
 Alpha  occ. eigenvalues --   -0.39890  -0.39787  -0.39674  -0.39548  -0.39307
 Alpha  occ. eigenvalues --   -0.39176  -0.39007  -0.38925  -0.38733  -0.38374
 Alpha  occ. eigenvalues --   -0.38223  -0.38109  -0.37899  -0.37857  -0.37667
 Alpha  occ. eigenvalues --   -0.37409  -0.37225  -0.37161  -0.36743  -0.36684
 Alpha  occ. eigenvalues --   -0.36618  -0.36048  -0.36016  -0.35818  -0.35392
 Alpha  occ. eigenvalues --   -0.35322  -0.35233  -0.35183  -0.35006  -0.34695
 Alpha  occ. eigenvalues --   -0.34455  -0.34280  -0.34008  -0.33888  -0.33466
 Alpha  occ. eigenvalues --   -0.33121  -0.32872  -0.32800  -0.32708  -0.32455
 Alpha  occ. eigenvalues --   -0.32320  -0.31981  -0.31956  -0.31843  -0.31593
 Alpha  occ. eigenvalues --   -0.31471  -0.31185  -0.30630  -0.30261  -0.29991
 Alpha  occ. eigenvalues --   -0.29473  -0.29135  -0.28882  -0.28573  -0.28097
 Alpha  occ. eigenvalues --   -0.27606  -0.27479  -0.27234  -0.26094  -0.25570
 Alpha  occ. eigenvalues --   -0.24904  -0.23647  -0.23215  -0.20965  -0.20356
 Alpha  occ. eigenvalues --   -0.18936
 Alpha virt. eigenvalues --   -0.10370  -0.09194  -0.05173  -0.02356  -0.01616
 Alpha virt. eigenvalues --   -0.00602   0.00360   0.00743   0.01995   0.03427
 Alpha virt. eigenvalues --    0.03683   0.03738   0.03945   0.04484   0.04786

 Mulliken charges:
               1
     1  C    0.079965
     2  C   -0.015605
     3  C    0.023552
     4  C   -0.112233
     5  N   -0.132744
     6  C   -0.059711
     7  C   -0.084707
     8  C    0.107585
     9  C    0.003299
    10  C    0.005862
    11  C    0.122888
    12  C   -0.007522
    13  C    0.169855
    14  O   -0.203530
    15  O   -0.313125
    16  N   -0.074548
    17  C    0.078896
    18  C   -0.144481
    19  C    0.097400
    20  C    0.054099
    21  C    0.111490
    22  C   -0.005807
    23  C   -0.072069
    24  N   -0.336978
    25  C    0.052496
    26  C   -0.121867
    27  C   -0.112096
    28  C    0.120854
    29  C    0.067768
    30  C    0.054673
    31  C   -0.022575
    32  N   -0.232093
    33  C    0.143384
    34  C   -0.183013
    35  C    0.124902
    36  C    0.062149
    37  C    0.044349
    38  C    0.033099
    39  O   -0.175889
    40  C   -0.043345
    41  C    0.193938
    42  O   -0.206185
    43  O   -0.337418
    44  C    0.177883
    45  C    0.308817
    46  C   -0.096567
    47  C   -0.156685
    48  C    0.060250
    49  C    0.163726
    50  C    0.042020
    51  C    0.019186
    52  C    0.057672
    53  C   -0.090022
    54  C    0.020483
    55  C   -0.033276
    56  C    0.075934
    57  C   -0.158769
    58  C   -0.012621
    59  C    0.033229
    60  C   -0.019499
    61  C    0.041167
    62  C   -0.064131
    63  C    0.051906
    64  C    0.073314
    65  H   -0.075380
    66  H   -0.081211
    67  H   -0.008412
    68  H    0.015816
    69  H   -0.045822
    70  H   -0.004610
    71  H    0.015649
    72  H    0.032078
    73  H   -0.025561
    74  H    0.017635
    75  H    0.030646
    76  H    0.029172
    77  H    0.040929
    78  H    0.022023
    79  H    0.012434
    80  H   -0.044976
    81  H    0.029709
    82  H    0.021326
    83  H    0.018420
    84  H    0.046032
    85  H    0.005574
    86  H    0.018028
    87  H    0.004980
    88  H    0.032747
    89  H    0.015710
    90  H    0.028407
    91  H    0.026317
    92  H    0.063857
    93  H    0.051957
    94  H    0.080511
    95  H    0.019828
    96  H    0.043277
    97  H    0.033725
    98  H   -0.005992
    99  H    0.032316
   100  H   -0.000271
   101  H    0.027020
   102  H    0.048906
   103  H   -0.022839
   104  H    0.008277
   105  H   -0.073281
   106  H   -0.051026
   107  H    0.022173
   108  H   -0.039722
   109  H   -0.015393
   110  H   -0.042170
   111  H    0.036072
   112  H    0.032261
   113  H    0.022372
   114  H   -0.038103
   115  H   -0.008860
   116  H    0.033046
   117  H    0.012066
   118  H    0.022494
   119  H   -0.043362
   120  H    0.000079
   121  H   -0.003566
   122  H    0.045226
   123  H    0.032673
   124  H    0.002883
   125  H   -0.010813
   126  H   -0.001004
   127  H   -0.017999
   128  H    0.005778
   129  H   -0.009983
   130  H   -0.031947
   131  H   -0.008953
   132  H    0.022131
   133  H   -0.024902
   134  H   -0.006688
   135  H    0.001865
   136  H    0.001169
   137  H    0.138762
   138  H    0.189512
 Sum of Mulliken charges =  -0.00000

 Dipole moment (field-independent basis, Debye):
    X=              2.5672    Y=              4.5380    Z=             -0.1941  Tot=              5.2174
 Quadrupole moment (field-independent basis, Debye-Ang):
   XX=           -370.9744   YY=           -383.1393   ZZ=           -392.9078
   XY=            -29.6173   XZ=              7.4345   YZ=              2.1409

 Normal termination of Gaussian 16 at Sun Aug 11 20:13:22 2019.
