 Gaussian 16, Revision A.03,
 Gaussian 16:  ES64L-G16RevA.03 25-Dec-2016

 --------------------------
 # td=(NStates=1) B3LYP/SVP
 --------------------------

 --
 TD
 --
 Symbolic Z-matrix:
 Charge =  0 Multiplicity = 1

                         Standard orientation:
 ---------------------------------------------------------------------
 Center     Atomic      Atomic             Coordinates (Angstroms)
 Number     Number       Type             X           Y           Z
 ---------------------------------------------------------------------
      1          6           0       -5.061054   -1.917517    0.489093
      2          6           0       -4.679315    2.925682    1.221465
      3          6           0       -9.473350    3.219230   -0.163797
      4          6           0       -9.788905   -1.509502   -0.849667
      5          7           0       -5.151545    0.513325    0.804313
      6          6           0       -4.488633   -0.739052    0.789207
      7          6           0       -3.045869   -0.478396    1.165135
      8          6           0       -3.034412    1.025636    1.637749
      9          6           0       -4.378702    1.499559    1.244726
     10          6           0       -2.756137    1.246426    3.181332
     11          6           0       -2.041484   -0.695048   -0.040510
     12          6           0       -0.557769   -0.574969    0.447862
     13          6           0        0.323206   -1.125163   -0.680656
     14          8           0       -0.107634   -1.684518   -1.670283
     15          8           0        1.593695   -0.811850   -0.496129
     16          7           0       -7.066261    2.663400    0.450502
     17          6           0       -5.949587    3.450068    0.854282
     18          6           0       -6.297192    4.867126    0.871475
     19          6           0       -7.601787    4.996999    0.611961
     20          6           0       -8.091985    3.675025    0.169543
     21          6           0       -5.400498    5.808060    1.462131
     22          6           0       -8.373325    6.183488    0.418800
     23          6           0       -9.342423    6.501208   -0.477851
     24          7           0       -9.217390    0.805531   -0.433420
     25          6           0       -9.989969    2.002845   -0.433405
     26          6           0      -11.293302    1.769371   -0.883949
     27          6           0      -11.387072    0.420343   -1.168983
     28          6           0      -10.134978   -0.139951   -0.796680
     29          6           0      -12.292100    2.911097   -1.181770
     30          6           0      -12.622773   -0.396169   -1.713734
     31          6           0      -12.698347   -0.794321   -3.185488
     32          7           0       -7.503819   -1.262723   -0.167765
     33          6           0       -8.553095   -2.006808   -0.495297
     34          6           0       -8.177010   -3.437454   -0.515236
     35          6           0       -6.770333   -3.365384   -0.135776
     36          6           0       -6.486703   -2.026753    0.190042
     37          6           0       -9.006480   -4.655380   -0.717886
     38          6           0       -5.667719   -4.287953    0.075104
     39          8           0       -5.630826   -5.486289    0.078097
     40          6           0       -4.544714   -3.298366    0.483234
     41          6           0       -3.773687   -3.689557    1.769125
     42          8           0       -4.028238   -3.202134    2.865343
     43          8           0       -2.775239   -4.629998    1.565229
     44          6           0       -2.352590   -5.303914    2.689655
     45          6           0        2.724678   -1.225800   -1.380274
     46          6           0        4.055032   -0.821268   -0.777089
     47          6           0        5.068955   -0.018903   -1.142640
     48          6           0        4.943112    0.607309   -2.632192
     49          6           0        6.257713    0.333480   -0.406246
     50          6           0        7.611805   -0.292820   -1.052150
     51          6           0        8.801678   -0.272766   -0.102873
     52          6           0       10.049153   -0.794652   -0.630479
     53          6           0       10.126964   -2.346011   -0.800352
     54          6           0       11.271885   -0.319392    0.100777
     55          6           0       12.650380   -0.610530   -0.375092
     56          6           0       13.771468    0.120352    0.417344
     57          6           0       15.218929   -0.216830   -0.243309
     58          6           0       15.597707   -1.729896   -0.166075
     59          6           0       16.240231    0.645788    0.470474
     60          6           0       17.635656    0.542041   -0.196697
     61          6           0       18.586400    1.526429    0.527183
     62          6           0       20.035640    1.847424    0.010580
     63          6           0       20.045616    2.280875   -1.372240
     64          6           0       20.818409    2.626014    0.943374
     65          1           0       -3.949151    3.557575    1.244897
     66          1           0      -10.116647    4.143117   -0.363201
     67          1           0      -10.532388   -2.304335   -1.242935
     68          1           0       -2.739721   -1.236566    2.056658
     69          1           0       -2.215448    1.667478    0.954402
     70          1           0       -1.698271    0.768109    3.285277
     71          1           0       -2.929925    2.195847    3.552430
     72          1           0       -3.484430    0.644664    3.884104
     73          1           0       -2.213559   -1.671506   -0.586392
     74          1           0       -2.144535   -0.009117   -0.880372
     75          1           0       -0.297863    0.544326    0.895260
     76          1           0       -0.383529   -1.073995    1.309942
     77          1           0       -4.611480    6.051980    0.783749
     78          1           0       -5.938262    6.651418    1.776389
     79          1           0       -4.925878    5.440053    2.377750
     80          1           0       -7.849534    6.954990    1.128977
     81          1           0       -9.666558    5.728970   -1.139236
     82          1           0       -9.806083    7.492310   -0.529101
     83          1           0      -12.127295    3.776739   -0.202416
     84          1           0      -12.380916    3.289983   -2.297159
     85          1           0      -13.423711    2.447692   -0.737527
     86          1           0      -12.599689   -1.269512   -1.128702
     87          1           0      -13.463519    0.271008   -1.476936
     88          1           0      -12.621490    0.157822   -3.898326
     89          1           0      -11.783991   -1.476935   -3.405355
     90          1           0      -13.719725   -1.230369   -3.098212
     91          1           0       -9.783775   -4.815682    0.086484
     92          1           0       -9.492485   -4.392693   -1.706218
     93          1           0       -8.527855   -5.578564   -0.608855
     94          1           0       -3.681908   -3.341383   -0.237878
     95          1           0       -1.305798   -5.832680    2.617039
     96          1           0       -2.010196   -4.598725    3.706939
     97          1           0       -3.284575   -5.841578    2.927005
     98          1           0        2.633645   -2.301926   -1.440902
     99          1           0        2.641341   -0.852469   -2.489133
    100          1           0        4.381739   -1.330976    0.143745
    101          1           0        5.033823    1.781725   -2.577278
    102          1           0        5.777663    0.152368   -3.256986
    103          1           0        3.959622    0.322247   -2.968092
    104          1           0        6.258705    1.503694   -0.389159
    105          1           0        6.256778   -0.175294    0.475436
    106          1           0        7.497879   -1.159252   -1.559316
    107          1           0        7.568805    0.481822   -2.002165
    108          1           0        9.120225    0.887103    0.198090
    109          1           0        8.576387   -0.634673    0.819596
    110          1           0       10.190584   -0.355540   -1.678090
    111          1           0        9.102287   -2.576435   -1.251308
    112          1           0       10.988047   -2.719979   -1.305997
    113          1           0       10.244502   -2.744818    0.313874
    114          1           0       11.237703    0.848527    0.284311
    115          1           0       11.342904   -0.578065    1.156014
    116          1           0       12.998989   -1.727492   -0.286258
    117          1           0       12.663378   -0.372409   -1.535442
    118          1           0       13.500563    1.276596    0.409225
    119          1           0       13.875810   -0.293233    1.548549
    120          1           0       15.181513    0.185961   -1.329763
    121          1           0       14.913701   -2.427318   -0.838154
    122          1           0       16.615396   -1.941418   -0.395473
    123          1           0       15.288929   -2.136380    0.860666
    124          1           0       15.914458    1.674101    0.529794
    125          1           0       16.455584    0.538465    1.242436
    126          1           0       18.074893   -0.579024   -0.069463
    127          1           0       17.658689    0.757877   -1.209905
    128          1           0       17.824329    2.458641    0.649835
    129          1           0       18.878698    1.232008    1.529571
    130          1           0       20.358041    0.887186   -0.101137
    131          1           0       19.343324    3.165653   -1.711139
    132          1           0       21.199250    2.481384   -1.570125
    133          1           0       19.537866    1.436728   -2.013073
    134          1           0       20.872983    1.995741    2.113069
    135          1           0       21.926624    2.638897    0.485064
    136          1           0       20.371614    3.633759    1.412980
    137          1           0       -7.081711    1.451444    0.369209
    138          1           0       -7.644243   -0.162208   -0.064620
 ---------------------------------------------------------------------

 SCF Done:  E(RB3LYP) =  -2732.91442496     A.U. after   17 cycles

 Excitation energies and oscillator strengths:

 Excited State   1:      Singlet-A      1.9747 eV  627.86 nm  f=0.2098  <S**2>=0.000
     235 -> 237       -0.11819
     235 -> 238       -0.20881
     236 -> 237        0.65309
     236 -> 238       -0.12164
 This state for optimization and/or second-order correction.
 Total Energy, E(TD-HF/TD-DFT) =  -2732.84185585
 Copying the excited state density for this state as the 1-particle RhoCI density.

 The electronic state is 1-A.
 Alpha  occ. eigenvalues --  -19.18233 -19.17488 -19.12984 -19.12470 -19.11714
 Alpha  occ. eigenvalues --  -14.37439 -14.37001 -14.32208 -14.29838 -10.32383
 Alpha  occ. eigenvalues --  -10.31428 -10.27870 -10.26806 -10.25908 -10.24388
 Alpha  occ. eigenvalues --  -10.23658 -10.23343 -10.23249 -10.22978 -10.22949
 Alpha  occ. eigenvalues --  -10.22630 -10.21909 -10.21594 -10.21325 -10.21308
 Alpha  occ. eigenvalues --  -10.21226 -10.20971 -10.20932 -10.20752 -10.20739
 Alpha  occ. eigenvalues --  -10.20710 -10.20500 -10.20434 -10.20407 -10.20293
 Alpha  occ. eigenvalues --  -10.20284 -10.20257 -10.20181 -10.20026 -10.20014
 Alpha  occ. eigenvalues --  -10.19940 -10.19918 -10.19842 -10.19841 -10.19815
 Alpha  occ. eigenvalues --  -10.19566 -10.19502 -10.19374 -10.19289 -10.19255
 Alpha  occ. eigenvalues --  -10.19228 -10.19226 -10.19204 -10.18980 -10.18701
 Alpha  occ. eigenvalues --  -10.18610 -10.18479 -10.18455 -10.18446 -10.18359
 Alpha  occ. eigenvalues --  -10.18230 -10.18214 -10.17646 -10.15289  -1.09432
 Alpha  occ. eigenvalues --   -1.08699  -1.03658  -1.00824  -1.00092  -0.99764
 Alpha  occ. eigenvalues --   -0.94208  -0.93318  -0.92623  -0.85730  -0.83510
 Alpha  occ. eigenvalues --   -0.82691  -0.82526  -0.82084  -0.80782  -0.80401
 Alpha  occ. eigenvalues --   -0.79631  -0.79397  -0.79005  -0.78341  -0.77651
 Alpha  occ. eigenvalues --   -0.76938  -0.76238  -0.75605  -0.74701  -0.73894
 Alpha  occ. eigenvalues --   -0.73259  -0.73013  -0.72863  -0.71487  -0.71034
 Alpha  occ. eigenvalues --   -0.69746  -0.68887  -0.68292  -0.68004  -0.67552
 Alpha  occ. eigenvalues --   -0.66743  -0.66656  -0.66332  -0.65818  -0.65304
 Alpha  occ. eigenvalues --   -0.63602  -0.63031  -0.62813  -0.61945  -0.61110
 Alpha  occ. eigenvalues --   -0.60510  -0.59904  -0.58754  -0.58230  -0.57270
 Alpha  occ. eigenvalues --   -0.56616  -0.56109  -0.55932  -0.55334  -0.55198
 Alpha  occ. eigenvalues --   -0.55169  -0.54285  -0.54180  -0.52976  -0.52530
 Alpha  occ. eigenvalues --   -0.52076  -0.51486  -0.50846  -0.50659  -0.50337
 Alpha  occ. eigenvalues --   -0.49657  -0.49532  -0.49002  -0.48721  -0.48143
 Alpha  occ. eigenvalues --   -0.47713  -0.47631  -0.47192  -0.47065  -0.46905
 Alpha  occ. eigenvalues --   -0.46427  -0.46158  -0.45931  -0.45905  -0.45716
 Alpha  occ. eigenvalues --   -0.45614  -0.45230  -0.45073  -0.44969  -0.44872
 Alpha  occ. eigenvalues --   -0.44793  -0.44656  -0.44461  -0.43826  -0.43722
 Alpha  occ. eigenvalues --   -0.43523  -0.43335  -0.43002  -0.42905  -0.42642
 Alpha  occ. eigenvalues --   -0.42462  -0.42408  -0.42089  -0.41987  -0.41677
 Alpha  occ. eigenvalues --   -0.41645  -0.41520  -0.41126  -0.41047  -0.40308
 Alpha  occ. eigenvalues --   -0.40155  -0.39889  -0.39657  -0.39426  -0.39143
 Alpha  occ. eigenvalues --   -0.39111  -0.38981  -0.38834  -0.38752  -0.38658
 Alpha  occ. eigenvalues --   -0.38480  -0.38353  -0.38190  -0.37998  -0.37925
 Alpha  occ. eigenvalues --   -0.37362  -0.37293  -0.36911  -0.36776  -0.36695
 Alpha  occ. eigenvalues --   -0.36320  -0.36102  -0.35799  -0.35383  -0.35174
 Alpha  occ. eigenvalues --   -0.35059  -0.34992  -0.34577  -0.34394  -0.34338
 Alpha  occ. eigenvalues --   -0.33938  -0.33829  -0.33712  -0.33421  -0.33265
 Alpha  occ. eigenvalues --   -0.33076  -0.32942  -0.32696  -0.32635  -0.32145
 Alpha  occ. eigenvalues --   -0.31935  -0.31788  -0.31713  -0.31620  -0.31488
 Alpha  occ. eigenvalues --   -0.30928  -0.30670  -0.30437  -0.30275  -0.30128
 Alpha  occ. eigenvalues --   -0.29621  -0.29360  -0.28365  -0.28337  -0.27704
 Alpha  occ. eigenvalues --   -0.27371  -0.27083  -0.26355  -0.25855  -0.25694
 Alpha  occ. eigenvalues --   -0.25216  -0.25150  -0.24017  -0.22348  -0.20309
 Alpha  occ. eigenvalues --   -0.18106
 Alpha virt. eigenvalues --   -0.10386  -0.07494  -0.04564  -0.02057  -0.01207
 Alpha virt. eigenvalues --   -0.01008  -0.00330   0.00383   0.02480   0.03060
 Alpha virt. eigenvalues --    0.03176   0.03216   0.03836   0.04230   0.04342

 Mulliken charges:
               1
     1  C    0.010793
     2  C   -0.008378
     3  C   -0.128985
     4  C   -0.132842
     5  N   -0.212499
     6  C   -0.024652
     7  C   -0.080446
     8  C   -0.094424
     9  C    0.036586
    10  C    0.050499
    11  C    0.027107
    12  C    0.022720
    13  C    0.191770
    14  O   -0.245669
    15  O   -0.310874
    16  N   -0.244309
    17  C    0.116985
    18  C   -0.121123
    19  C    0.026752
    20  C    0.050785
    21  C    0.170916
    22  C   -0.061830
    23  C   -0.002622
    24  N   -0.316976
    25  C    0.170607
    26  C   -0.102705
    27  C   -0.106082
    28  C    0.099034
    29  C   -0.083481
    30  C    0.089920
    31  C   -0.023715
    32  N   -0.004681
    33  C    0.047695
    34  C   -0.131098
    35  C   -0.098861
    36  C    0.074129
    37  C    0.106341
    38  C    0.115670
    39  O   -0.144956
    40  C   -0.004804
    41  C    0.182088
    42  O   -0.224830
    43  O   -0.285439
    44  C    0.103747
    45  C    0.297460
    46  C   -0.084836
    47  C   -0.210876
    48  C    0.018734
    49  C    0.165524
    50  C   -0.031927
    51  C    0.084220
    52  C   -0.028916
    53  C    0.015929
    54  C    0.020460
    55  C   -0.017881
    56  C   -0.063251
    57  C   -0.059683
    58  C    0.006643
    59  C    0.274357
    60  C    0.017700
    61  C   -0.069407
    62  C    0.047997
    63  C   -0.043353
    64  C   -0.066422
    65  H   -0.092824
    66  H   -0.018883
    67  H    0.003184
    68  H    0.053446
    69  H    0.035913
    70  H    0.030777
    71  H   -0.000038
    72  H    0.033296
    73  H    0.034587
    74  H    0.005680
    75  H    0.047752
    76  H   -0.011248
    77  H    0.016437
    78  H   -0.015434
    79  H    0.019470
    80  H    0.008498
    81  H    0.030254
    82  H    0.034086
    83  H    0.057109
    84  H    0.077423
    85  H    0.040379
    86  H   -0.006854
    87  H   -0.008123
    88  H    0.033298
    89  H    0.031735
    90  H    0.035115
    91  H    0.034920
    92  H    0.043607
    93  H    0.015959
    94  H    0.057644
    95  H    0.057417
    96  H    0.031738
    97  H    0.042482
    98  H    0.016695
    99  H    0.043685
   100  H   -0.019887
   101  H    0.030993
   102  H    0.045385
   103  H   -0.001830
   104  H    0.043850
   105  H   -0.037705
   106  H   -0.018080
   107  H    0.013384
   108  H    0.004158
   109  H   -0.035037
   110  H   -0.009863
   111  H    0.017979
   112  H    0.021292
   113  H    0.011268
   114  H   -0.015563
   115  H   -0.031203
   116  H    0.007266
   117  H    0.002753
   118  H    0.019966
   119  H    0.020940
   120  H    0.004186
   121  H    0.022864
   122  H    0.013058
   123  H    0.011780
   124  H   -0.025871
   125  H   -0.204682
   126  H    0.011311
   127  H   -0.024727
   128  H   -0.002786
   129  H   -0.013092
   130  H   -0.034368
   131  H    0.014696
   132  H    0.018126
   133  H    0.018950
   134  H    0.009984
   135  H    0.036083
   136  H    0.043933
   137  H    0.249442
   138  H    0.191534
 Sum of Mulliken charges =  -0.00000

 Dipole moment (field-independent basis, Debye):
    X=              3.5076    Y=              3.4865    Z=              0.3928  Tot=              4.9611
 Quadrupole moment (field-independent basis, Debye-Ang):
   XX=           -349.4568   YY=           -386.6084   ZZ=           -399.4464
   XY=            -25.2684   XZ=             11.2556   YZ=             -0.1481

 Normal termination of Gaussian 16 at Wed Aug 14 07:48:54 2019.
