 Gaussian 16, Revision A.03,
 Gaussian 16:  ES64L-G16RevA.03 25-Dec-2016

 --------------------------
 # td=(NStates=1) B3LYP/SVP
 --------------------------

 --
 TD
 --
 Symbolic Z-matrix:
 Charge =  0 Multiplicity = 1

                         Standard orientation:
 ---------------------------------------------------------------------
 Center     Atomic      Atomic             Coordinates (Angstroms)
 Number     Number       Type             X           Y           Z
 ---------------------------------------------------------------------
      1          6           0       -5.104192   -2.040756    0.408516
      2          6           0       -4.607920    2.769302    1.256290
      3          6           0       -9.239124    3.436153   -0.188191
      4          6           0       -9.830161   -1.353593   -0.893028
      5          7           0       -5.135464    0.421212    0.812933
      6          6           0       -4.443107   -0.758364    0.828777
      7          6           0       -2.988895   -0.597423    1.285688
      8          6           0       -2.949212    0.856804    1.834798
      9          6           0       -4.326057    1.367838    1.281787
     10          6           0       -2.943499    0.939998    3.369767
     11          6           0       -2.119477   -0.867486    0.086105
     12          6           0       -0.637901   -0.622826    0.364328
     13          6           0        0.357839   -0.919167   -0.690214
     14          8           0       -0.003343   -1.426188   -1.750261
     15          8           0        1.628730   -0.728791   -0.340237
     16          7           0       -6.946082    2.777493    0.514430
     17          6           0       -5.889182    3.312451    0.996976
     18          6           0       -6.027304    4.772749    1.050836
     19          6           0       -7.290565    5.046383    0.423441
     20          6           0       -7.867391    3.740796    0.119747
     21          6           0       -5.061916    5.803174    1.572925
     22          6           0       -8.007417    6.294815    0.249924
     23          6           0       -8.851860    6.661251   -0.746270
     24          7           0       -9.086705    0.940656   -0.550901
     25          6           0       -9.806893    2.158567   -0.392434
     26          6           0      -11.165929    2.027281   -0.832439
     27          6           0      -11.376901    0.752227   -1.013878
     28          6           0      -10.086318    0.051489   -0.808912
     29          6           0      -12.158397    3.197050   -0.953186
     30          6           0      -12.719945    0.013812   -1.290263
     31          6           0      -12.762278   -0.363897   -2.918480
     32          7           0       -7.434621   -1.271906   -0.186375
     33          6           0       -8.569019   -2.072125   -0.626355
     34          6           0       -8.265606   -3.384184   -0.626418
     35          6           0       -6.848663   -3.422963   -0.305299
     36          6           0       -6.426070   -2.032138    0.030813
     37          6           0       -9.058637   -4.424565   -1.102306
     38          6           0       -5.792252   -4.374213   -0.110471
     39          8           0       -5.819812   -5.571383   -0.210715
     40          6           0       -4.589213   -3.435560    0.487763
     41          6           0       -4.117384   -3.936365    1.820901
     42          8           0       -4.406508   -3.430826    2.854929
     43          8           0       -3.343579   -5.049263    1.592565
     44          6           0       -2.833084   -5.812279    2.703926
     45          6           0        2.659797   -1.025439   -1.345175
     46          6           0        3.970241   -0.769649   -0.669945
     47          6           0        5.054618   -0.162078   -1.171589
     48          6           0        5.026086    0.542117   -2.589688
     49          6           0        6.310458    0.113844   -0.379150
     50          6           0        7.537574   -0.637638   -0.965836
     51          6           0        8.755378   -0.280267   -0.212378
     52          6           0       10.037429   -0.774117   -0.930270
     53          6           0       10.055180   -2.271154   -1.172638
     54          6           0       11.171750   -0.291590   -0.006154
     55          6           0       12.591636   -0.653557   -0.619649
     56          6           0       13.755752   -0.055380    0.206467
     57          6           0       15.242702   -0.184104   -0.317521
     58          6           0       15.629059   -1.684208   -0.526611
     59          6           0       16.227898    0.668393    0.527753
     60          6           0       17.600875    0.866362   -0.062710
     61          6           0       18.602659    1.659056    0.783699
     62          6           0       20.023845    1.644232    0.344534
     63          6           0       20.086535    2.213592   -1.118621
     64          6           0       20.833060    2.596417    1.206898
     65          1           0       -3.858849    3.379291    1.721294
     66          1           0       -9.890490    4.220340   -0.238386
     67          1           0      -10.893362   -1.903627   -1.193980
     68          1           0       -2.894492   -1.488087    2.161170
     69          1           0       -2.129591    1.432875    1.390774
     70          1           0       -1.910799    0.609066    3.649701
     71          1           0       -2.853134    1.868644    3.853064
     72          1           0       -3.757477    0.238546    3.840540
     73          1           0       -2.200901   -1.877670   -0.303467
     74          1           0       -2.397651   -0.001556   -0.546520
     75          1           0       -0.463554    0.254855    0.868650
     76          1           0       -0.377606   -1.420371    1.055817
     77          1           0       -3.800539    5.430646    1.287200
     78          1           0       -5.368433    6.941167    1.023681
     79          1           0       -5.148968    6.050381    2.764077
     80          1           0       -7.766053    6.942911    1.100802
     81          1           0       -8.888767    6.108471   -1.868468
     82          1           0       -9.185604    7.627361   -0.663786
     83          1           0      -12.244026    3.724919   -0.125463
     84          1           0      -11.830820    3.930320   -1.712422
     85          1           0      -13.268864    2.798585   -1.240542
     86          1           0      -12.694986   -0.942932   -0.694261
     87          1           0      -13.599823    0.648883   -1.164050
     88          1           0      -12.826473    0.562939   -3.519280
     89          1           0      -11.874940   -0.943969   -3.124794
     90          1           0      -13.619129   -0.850865   -3.071892
     91          1           0      -10.000092   -4.502028   -0.512657
     92          1           0       -9.500951   -4.322708   -2.160887
     93          1           0       -8.562907   -5.493365   -0.957226
     94          1           0       -3.874282   -3.669684   -0.300645
     95          1           0       -2.141036   -6.697740    2.263799
     96          1           0       -1.959523   -5.281204    3.148693
     97          1           0       -3.667404   -6.207046    3.334313
     98          1           0        2.395819   -2.015293   -1.513122
     99          1           0        2.259691   -0.403805   -2.243033
    100          1           0        3.929494   -1.162957    0.361440
    101          1           0        5.476791    1.706416   -2.359715
    102          1           0        5.783906   -0.081334   -3.212242
    103          1           0        4.151251    0.571216   -2.964170
    104          1           0        6.474269    1.381392   -0.354714
    105          1           0        6.077326   -0.103962    0.751374
    106          1           0        7.380950   -1.797844   -0.894903
    107          1           0        7.483973   -0.461325   -2.213798
    108          1           0        8.728940    0.696978    0.037099
    109          1           0        8.909998   -0.758201    0.823246
    110          1           0        9.946969   -0.022892   -1.770775
    111          1           0        9.129940   -2.592764   -1.738321
    112          1           0       11.040729   -2.700980   -1.588966
    113          1           0        9.895783   -2.811944   -0.261049
    114          1           0       11.217036    0.834398    0.072670
    115          1           0       11.159607   -0.708008    1.063394
    116          1           0       12.738330   -1.597971   -0.900157
    117          1           0       12.834133   -0.232618   -1.520879
    118          1           0       13.635280    1.062279    0.359003
    119          1           0       13.897647   -0.710881    1.052168
    120          1           0       15.511395    0.614013   -1.296463
    121          1           0       15.012335   -2.405931   -1.252320
    122          1           0       16.617860   -1.641889   -0.873203
    123          1           0       15.506801   -2.214379    0.415233
    124          1           0       15.808833    1.686143    0.549532
    125          1           0       16.095523    0.319243    1.590386
    126          1           0       18.215631   -0.217017   -0.236055
    127          1           0       17.429579    1.176617   -1.137923
    128          1           0       18.113666    2.607219    0.714030
    129          1           0       18.557790    1.198154    1.840220
    130          1           0       20.548833    0.665860    0.410228
    131          1           0       19.563922    3.154239   -1.060845
    132          1           0       21.093509    2.370614   -1.456431
    133          1           0       19.641481    1.463771   -1.674175
    134          1           0       20.944175    2.069573    2.102448
    135          1           0       21.829706    2.597319    0.927288
    136          1           0       20.161935    3.506508    1.597770
    137          1           0       -6.999477    1.808168    0.549538
    138          1           0       -7.585260   -0.230462    0.000998
 ---------------------------------------------------------------------

 SCF Done:  E(RB3LYP) =  -2733.04441966     A.U. after   17 cycles

 Excitation energies and oscillator strengths:

 Excited State   1:      Singlet-A      1.9644 eV  631.16 nm  f=0.1945  <S**2>=0.000
     235 -> 238        0.29188
     236 -> 237        0.63708
 This state for optimization and/or second-order correction.
 Total Energy, E(TD-HF/TD-DFT) =  -2732.97222981
 Copying the excited state density for this state as the 1-particle RhoCI density.

 The electronic state is 1-A.
 Alpha  occ. eigenvalues --  -19.17224 -19.17071 -19.12467 -19.11754 -19.11122
 Alpha  occ. eigenvalues --  -14.37339 -14.36632 -14.32703 -14.30398 -10.31235
 Alpha  occ. eigenvalues --  -10.30802 -10.27063 -10.25679 -10.25015 -10.24634
 Alpha  occ. eigenvalues --  -10.24218 -10.24048 -10.23602 -10.23579 -10.22976
 Alpha  occ. eigenvalues --  -10.22801 -10.22185 -10.21604 -10.21571 -10.21272
 Alpha  occ. eigenvalues --  -10.21230 -10.21180 -10.21040 -10.20994 -10.20873
 Alpha  occ. eigenvalues --  -10.20818 -10.20790 -10.20764 -10.20546 -10.20540
 Alpha  occ. eigenvalues --  -10.20337 -10.20298 -10.20288 -10.20190 -10.19860
 Alpha  occ. eigenvalues --  -10.19732 -10.19611 -10.19470 -10.19423 -10.19386
 Alpha  occ. eigenvalues --  -10.19380 -10.19377 -10.19216 -10.19117 -10.18954
 Alpha  occ. eigenvalues --  -10.18930 -10.18598 -10.18582 -10.18484 -10.18344
 Alpha  occ. eigenvalues --  -10.18283 -10.18274 -10.18174 -10.17998 -10.17687
 Alpha  occ. eigenvalues --  -10.17682 -10.16886 -10.16245 -10.16063  -1.08892
 Alpha  occ. eigenvalues --   -1.08352  -1.02682  -1.01255  -1.00634  -0.99210
 Alpha  occ. eigenvalues --   -0.98178  -0.94679  -0.92864  -0.83810  -0.82814
 Alpha  occ. eigenvalues --   -0.82260  -0.82061  -0.81980  -0.81859  -0.81155
 Alpha  occ. eigenvalues --   -0.79982  -0.79899  -0.79154  -0.77985  -0.77455
 Alpha  occ. eigenvalues --   -0.76678  -0.76031  -0.75289  -0.74814  -0.74080
 Alpha  occ. eigenvalues --   -0.73219  -0.72493  -0.72174  -0.71648  -0.70506
 Alpha  occ. eigenvalues --   -0.69769  -0.68876  -0.68280  -0.68243  -0.67966
 Alpha  occ. eigenvalues --   -0.67820  -0.67425  -0.67043  -0.65774  -0.65399
 Alpha  occ. eigenvalues --   -0.64116  -0.63697  -0.62745  -0.62142  -0.61830
 Alpha  occ. eigenvalues --   -0.61468  -0.58500  -0.58034  -0.57520  -0.57122
 Alpha  occ. eigenvalues --   -0.56983  -0.55970  -0.55652  -0.55463  -0.55164
 Alpha  occ. eigenvalues --   -0.54948  -0.54038  -0.53781  -0.53191  -0.52968
 Alpha  occ. eigenvalues --   -0.52461  -0.51756  -0.51376  -0.50868  -0.50508
 Alpha  occ. eigenvalues --   -0.50360  -0.49135  -0.48853  -0.48687  -0.48661
 Alpha  occ. eigenvalues --   -0.48301  -0.47977  -0.47331  -0.47122  -0.46925
 Alpha  occ. eigenvalues --   -0.46647  -0.46341  -0.46137  -0.45854  -0.45663
 Alpha  occ. eigenvalues --   -0.45367  -0.45112  -0.44879  -0.44834  -0.44551
 Alpha  occ. eigenvalues --   -0.44501  -0.44280  -0.44118  -0.44071  -0.43509
 Alpha  occ. eigenvalues --   -0.43346  -0.43218  -0.43030  -0.42917  -0.42612
 Alpha  occ. eigenvalues --   -0.42044  -0.41838  -0.41709  -0.41538  -0.41297
 Alpha  occ. eigenvalues --   -0.41102  -0.40709  -0.40498  -0.40295  -0.40082
 Alpha  occ. eigenvalues --   -0.39973  -0.39790  -0.39697  -0.39532  -0.39415
 Alpha  occ. eigenvalues --   -0.39343  -0.39168  -0.38944  -0.38871  -0.38638
 Alpha  occ. eigenvalues --   -0.38432  -0.38224  -0.37943  -0.37858  -0.37800
 Alpha  occ. eigenvalues --   -0.37728  -0.37473  -0.37312  -0.36722  -0.36575
 Alpha  occ. eigenvalues --   -0.36476  -0.36286  -0.36115  -0.36098  -0.35929
 Alpha  occ. eigenvalues --   -0.35542  -0.35465  -0.35103  -0.34956  -0.34871
 Alpha  occ. eigenvalues --   -0.34695  -0.34309  -0.34002  -0.33874  -0.33841
 Alpha  occ. eigenvalues --   -0.33585  -0.33476  -0.33425  -0.33263  -0.32799
 Alpha  occ. eigenvalues --   -0.32490  -0.32130  -0.31783  -0.31475  -0.31325
 Alpha  occ. eigenvalues --   -0.30599  -0.30219  -0.30137  -0.30066  -0.29750
 Alpha  occ. eigenvalues --   -0.29283  -0.28440  -0.28157  -0.27706  -0.27594
 Alpha  occ. eigenvalues --   -0.27567  -0.27375  -0.26854  -0.26074  -0.25282
 Alpha  occ. eigenvalues --   -0.25174  -0.24149  -0.24030  -0.23208  -0.19282
 Alpha  occ. eigenvalues --   -0.18822
 Alpha virt. eigenvalues --   -0.10655  -0.07243  -0.04678  -0.02452  -0.00569
 Alpha virt. eigenvalues --    0.00236   0.01042   0.01251   0.02130   0.03068
 Alpha virt. eigenvalues --    0.03436   0.03938   0.03975   0.04735   0.04800

 Mulliken charges:
               1
     1  C   -0.052631
     2  C   -0.033053
     3  C   -0.049221
     4  C   -0.090586
     5  N   -0.163027
     6  C   -0.041691
     7  C   -0.111966
     8  C   -0.019863
     9  C   -0.040504
    10  C    0.072426
    11  C    0.105552
    12  C    0.098384
    13  C    0.155247
    14  O   -0.268368
    15  O   -0.334481
    16  N    0.069707
    17  C    0.038922
    18  C   -0.093461
    19  C    0.014921
    20  C    0.099179
    21  C   -0.107509
    22  C   -0.067039
    23  C   -0.023546
    24  N   -0.279836
    25  C    0.087235
    26  C   -0.146475
    27  C   -0.066025
    28  C    0.008795
    29  C    0.140931
    30  C    0.020518
    31  C    0.039577
    32  N   -0.031467
    33  C    0.100185
    34  C   -0.054198
    35  C   -0.067492
    36  C    0.109441
    37  C    0.023484
    38  C    0.019918
    39  O   -0.152116
    40  C   -0.053060
    41  C    0.225969
    42  O   -0.192848
    43  O   -0.328938
    44  C    0.147351
    45  C    0.284472
    46  C   -0.071570
    47  C   -0.134193
    48  C    0.110280
    49  C   -0.011707
    50  C   -0.041384
    51  C    0.075632
    52  C   -0.059037
    53  C    0.046322
    54  C   -0.001574
    55  C    0.154772
    56  C    0.020181
    57  C   -0.174163
    58  C    0.047488
    59  C    0.059482
    60  C   -0.075016
    61  C    0.071610
    62  C   -0.151503
    63  C    0.093846
    64  C    0.123477
    65  H   -0.037019
    66  H   -0.069468
    67  H    0.023410
    68  H    0.047186
    69  H   -0.000297
    70  H   -0.000833
    71  H   -0.004626
    72  H    0.057895
    73  H    0.020893
    74  H    0.007041
    75  H   -0.014556
    76  H    0.006162
    77  H    0.064442
    78  H    0.052961
    79  H    0.066049
    80  H    0.011585
    81  H    0.073972
    82  H    0.007515
    83  H   -0.015000
    84  H    0.018453
    85  H    0.025394
    86  H    0.025417
    87  H    0.003228
    88  H    0.015452
    89  H    0.016891
    90  H   -0.016913
    91  H    0.014158
    92  H    0.045255
    93  H    0.058065
    94  H    0.045492
    95  H    0.039340
    96  H    0.028509
    97  H    0.060760
    98  H   -0.003874
    99  H    0.045093
   100  H   -0.001893
   101  H    0.039550
   102  H    0.043445
   103  H   -0.050508
   104  H    0.029194
   105  H    0.017223
   106  H    0.023445
   107  H    0.028981
   108  H   -0.047083
   109  H   -0.011541
   110  H   -0.001933
   111  H    0.016264
   112  H    0.037540
   113  H   -0.009437
   114  H   -0.002135
   115  H    0.006651
   116  H   -0.068750
   117  H   -0.049829
   118  H    0.004176
   119  H   -0.015511
   120  H   -0.012570
   121  H    0.027890
   122  H   -0.000426
   123  H    0.002287
   124  H   -0.013464
   125  H   -0.013922
   126  H    0.001487
   127  H    0.015057
   128  H   -0.013815
   129  H    0.008369
   130  H   -0.005224
   131  H   -0.003218
   132  H   -0.009184
   133  H   -0.004954
   134  H   -0.041273
   135  H   -0.020441
   136  H    0.020075
   137  H    0.111651
   138  H    0.170034
 Sum of Mulliken charges =  -0.00000

 Dipole moment (field-independent basis, Debye):
    X=              2.2785    Y=              4.3688    Z=              1.9816  Tot=              5.3108
 Quadrupole moment (field-independent basis, Debye-Ang):
   XX=           -341.0508   YY=           -381.7666   ZZ=           -398.5893
   XY=            -35.3373   XZ=              9.6193   YZ=             -2.4318

 Normal termination of Gaussian 16 at Sun Sep  1 11:26:22 2019.
