 Gaussian 16, Revision A.03,
 Gaussian 16:  ES64L-G16RevA.03 25-Dec-2016

 --------------------------
 # td=(NStates=1) B3LYP/SVP
 --------------------------

 --
 TD
 --
 Symbolic Z-matrix:
 Charge =  0 Multiplicity = 1

                         Standard orientation:
 ---------------------------------------------------------------------
 Center     Atomic      Atomic             Coordinates (Angstroms)
 Number     Number       Type             X           Y           Z
 ---------------------------------------------------------------------
      1          6           0       -5.150580   -1.935440    0.506407
      2          6           0       -4.617579    2.719237    1.328576
      3          6           0       -9.145711    3.426081   -0.274588
      4          6           0       -9.940942   -1.396209   -0.870228
      5          7           0       -5.139834    0.396680    0.923715
      6          6           0       -4.594029   -0.737044    0.902146
      7          6           0       -3.033973   -0.663801    1.388877
      8          6           0       -3.008953    0.867710    1.855451
      9          6           0       -4.297099    1.378029    1.292221
     10          6           0       -2.872700    0.863675    3.355907
     11          6           0       -2.081540   -0.819145    0.131636
     12          6           0       -0.666176   -0.840500    0.601024
     13          6           0        0.383504   -1.094854   -0.547042
     14          8           0        0.003927   -1.556417   -1.614121
     15          8           0        1.647373   -0.989761   -0.170185
     16          7           0       -6.858124    2.804888    0.403979
     17          6           0       -5.742982    3.420918    1.004635
     18          6           0       -6.067836    4.712770    1.114004
     19          6           0       -7.245834    5.043783    0.406970
     20          6           0       -7.788157    3.727591    0.099881
     21          6           0       -5.061651    5.746209    1.477627
     22          6           0       -7.872455    6.314624    0.374007
     23          6           0       -8.832459    6.761624   -0.507620
     24          7           0       -9.164195    0.941953   -0.462887
     25          6           0       -9.759044    2.234189   -0.633480
     26          6           0      -11.208274    2.057577   -0.944873
     27          6           0      -11.439139    0.724301   -1.055091
     28          6           0      -10.194324    0.066955   -0.889317
     29          6           0      -12.156438    3.215459   -1.094243
     30          6           0      -12.683647    0.026418   -1.521004
     31          6           0      -12.669001   -0.258745   -2.981748
     32          7           0       -7.635910   -1.222438   -0.246191
     33          6           0       -8.701295   -2.024533   -0.633644
     34          6           0       -8.278391   -3.374455   -0.726754
     35          6           0       -6.962915   -3.398823   -0.266950
     36          6           0       -6.536543   -2.020268    0.031579
     37          6           0       -9.190479   -4.542468   -0.979507
     38          6           0       -5.839830   -4.337235   -0.003807
     39          8           0       -5.736567   -5.462195   -0.042266
     40          6           0       -4.690071   -3.417606    0.459805
     41          6           0       -4.026445   -3.918768    1.751713
     42          8           0       -4.393589   -3.441210    2.807092
     43          8           0       -3.171958   -4.911428    1.461755
     44          6           0       -2.543426   -5.530753    2.625226
     45          6           0        2.570483   -1.288635   -1.181173
     46          6           0        4.024841   -1.117636   -0.650636
     47          6           0        4.903538   -0.257792   -1.104839
     48          6           0        4.691053    0.761109   -2.268707
     49          6           0        6.200087   -0.038351   -0.312287
     50          6           0        7.473155   -0.357806   -1.116247
     51          6           0        8.738152   -0.227118   -0.257840
     52          6           0       10.076717   -0.779783   -0.955324
     53          6           0        9.967390   -2.237677   -1.381311
     54          6           0       11.308289   -0.402017   -0.111483
     55          6           0       12.745726   -0.563602   -0.861674
     56          6           0       13.827707   -0.093394    0.181849
     57          6           0       15.310153   -0.106806   -0.411641
     58          6           0       15.743930   -1.486747   -0.774113
     59          6           0       16.249777    0.582987    0.573574
     60          6           0       17.649731    0.731168    0.065695
     61          6           0       18.622031    1.605864    0.860458
     62          6           0       20.034418    1.709131    0.278621
     63          6           0       19.988504    2.370939   -1.093641
     64          6           0       20.937078    2.542691    1.236595
     65          1           0       -3.798823    3.255121    1.862171
     66          1           0       -9.971602    4.273107   -0.448372
     67          1           0      -10.854137   -1.976097   -1.293105
     68          1           0       -2.902725   -1.366451    2.224264
     69          1           0       -2.119114    1.312435    1.406369
     70          1           0       -2.026657    0.427358    3.658723
     71          1           0       -2.946323    2.018815    3.725456
     72          1           0       -3.542205    0.150426    3.884179
     73          1           0       -2.351757   -1.630525   -0.385441
     74          1           0       -2.354205    0.007825   -0.563844
     75          1           0       -0.410846    0.211491    1.061845
     76          1           0       -0.590187   -1.636328    1.299141
     77          1           0       -4.439916    6.106625    0.606733
     78          1           0       -5.588988    6.797127    1.969391
     79          1           0       -4.329447    5.198419    2.311053
     80          1           0       -7.547041    7.012943    1.060951
     81          1           0       -8.977963    6.078538   -1.478642
     82          1           0       -9.046263    7.706129   -0.545112
     83          1           0      -12.031642    4.112617   -0.235257
     84          1           0      -11.865921    3.703482   -2.139790
     85          1           0      -13.180701    2.802353   -1.047775
     86          1           0      -12.805574   -1.003173   -1.060196
     87          1           0      -13.373567    0.740515   -1.325863
     88          1           0      -12.915555    0.623765   -3.592770
     89          1           0      -11.604720   -0.620621   -3.237101
     90          1           0      -13.391861   -1.109772   -3.301602
     91          1           0       -9.644972   -4.974495    0.325983
     92          1           0      -10.188147   -4.358338   -1.779501
     93          1           0       -8.367359   -5.422868   -1.346600
     94          1           0       -3.872935   -3.532465   -0.365356
     95          1           0       -1.762476   -6.145381    2.116202
     96          1           0       -2.259599   -4.921920    3.582597
     97          1           0       -3.438758   -6.076398    3.117709
     98          1           0        2.497189   -2.354164   -1.482780
     99          1           0        2.236493   -0.688109   -2.044178
    100          1           0        4.134112   -1.775735    0.424096
    101          1           0        5.020173    1.747832   -1.958837
    102          1           0        5.406698    0.512322   -2.954094
    103          1           0        3.597115    0.658275   -2.681485
    104          1           0        6.384150    1.019796   -0.000598
    105          1           0        6.059496   -0.818229    0.700031
    106          1           0        7.370280   -1.529717   -1.398119
    107          1           0        7.559066    0.173356   -2.078634
    108          1           0        8.942499    1.048532   -0.200727
    109          1           0        8.476460   -0.638581    0.658000
    110          1           0       10.403581   -0.332058   -2.012447
    111          1           0        8.756227   -2.309261   -2.011516
    112          1           0       10.748982   -2.806534   -1.753624
    113          1           0       10.094358   -2.823021   -0.409320
    114          1           0       11.342207    0.693246    0.276511
    115          1           0       11.503493   -0.920142    0.880425
    116          1           0       13.004243   -1.447699   -1.002258
    117          1           0       12.679858    0.150287   -1.763563
    118          1           0       13.772890    0.861736    0.422069
    119          1           0       13.512331   -0.688865    1.157422
    120          1           0       14.941621    0.253616   -1.342283
    121          1           0       14.844667   -2.061938   -1.309383
    122          1           0       16.712439   -1.524863   -1.284109
    123          1           0       15.861926   -2.071449    0.160638
    124          1           0       15.889086    1.480540    0.821495
    125          1           0       16.005544   -0.127746    1.534832
    126          1           0       17.986737   -0.390035    0.035543
    127          1           0       17.678379    0.934616   -1.070237
    128          1           0       18.201161    2.709164    1.085065
    129          1           0       18.413287    0.903015    1.912878
    130          1           0       20.648050    0.743300    0.174984
    131          1           0       19.841028    3.410394   -1.230207
    132          1           0       20.978656    2.739955   -1.629452
    133          1           0       19.642866    1.791835   -1.856695
    134          1           0       20.895069    2.191583    2.112928
    135          1           0       22.052172    2.719897    0.981038
    136          1           0       20.525088    3.646940    1.156692
    137          1           0       -6.817339    1.805243    0.382065
    138          1           0       -7.785477   -0.269251   -0.299155
 ---------------------------------------------------------------------

 SCF Done:  E(RB3LYP) =  -2732.89316134     A.U. after   17 cycles

 Excitation energies and oscillator strengths:

 Excited State   1:      Singlet-A      1.9827 eV  625.34 nm  f=0.1458  <S**2>=0.000
     235 -> 237       -0.20171
     235 -> 238       -0.29084
     236 -> 237        0.59210
     236 -> 238       -0.14022
 This state for optimization and/or second-order correction.
 Total Energy, E(TD-HF/TD-DFT) =  -2732.82029954
 Copying the excited state density for this state as the 1-particle RhoCI density.

 The electronic state is 1-A.
 Alpha  occ. eigenvalues --  -19.19514 -19.18901 -19.12995 -19.12977 -19.12286
 Alpha  occ. eigenvalues --  -14.36336 -14.36070 -14.31662 -14.30110 -10.31991
 Alpha  occ. eigenvalues --  -10.31686 -10.27815 -10.26617 -10.25071 -10.25060
 Alpha  occ. eigenvalues --  -10.24421 -10.24244 -10.23434 -10.22496 -10.22310
 Alpha  occ. eigenvalues --  -10.22245 -10.21842 -10.21793 -10.21727 -10.21530
 Alpha  occ. eigenvalues --  -10.21422 -10.21353 -10.21149 -10.21141 -10.21080
 Alpha  occ. eigenvalues --  -10.20929 -10.20857 -10.20798 -10.20795 -10.20526
 Alpha  occ. eigenvalues --  -10.20484 -10.20466 -10.20381 -10.19981 -10.19909
 Alpha  occ. eigenvalues --  -10.19879 -10.19865 -10.19791 -10.19537 -10.19534
 Alpha  occ. eigenvalues --  -10.19368 -10.19338 -10.19211 -10.19090 -10.19033
 Alpha  occ. eigenvalues --  -10.18986 -10.18969 -10.18925 -10.18595 -10.18540
 Alpha  occ. eigenvalues --  -10.18356 -10.18291 -10.18194 -10.18117 -10.17977
 Alpha  occ. eigenvalues --  -10.17699 -10.17536 -10.17521 -10.17402  -1.11352
 Alpha  occ. eigenvalues --   -1.09881  -1.08285  -1.01607  -1.00758  -0.98529
 Alpha  occ. eigenvalues --   -0.97670  -0.96152  -0.91175  -0.83835  -0.82367
 Alpha  occ. eigenvalues --   -0.82174  -0.82056  -0.81457  -0.81018  -0.80437
 Alpha  occ. eigenvalues --   -0.80140  -0.80035  -0.79684  -0.78506  -0.77499
 Alpha  occ. eigenvalues --   -0.76848  -0.76025  -0.75252  -0.75087  -0.74449
 Alpha  occ. eigenvalues --   -0.73525  -0.73007  -0.72265  -0.71921  -0.69747
 Alpha  occ. eigenvalues --   -0.69196  -0.68893  -0.68750  -0.67880  -0.67834
 Alpha  occ. eigenvalues --   -0.67188  -0.67048  -0.66334  -0.65705  -0.65305
 Alpha  occ. eigenvalues --   -0.63822  -0.63705  -0.62434  -0.62016  -0.61459
 Alpha  occ. eigenvalues --   -0.61156  -0.58689  -0.58502  -0.58208  -0.57635
 Alpha  occ. eigenvalues --   -0.57311  -0.56721  -0.56324  -0.56062  -0.55331
 Alpha  occ. eigenvalues --   -0.54847  -0.54667  -0.54104  -0.53755  -0.53189
 Alpha  occ. eigenvalues --   -0.52505  -0.51803  -0.51067  -0.50942  -0.50499
 Alpha  occ. eigenvalues --   -0.50152  -0.49807  -0.49106  -0.48685  -0.48106
 Alpha  occ. eigenvalues --   -0.47879  -0.47780  -0.47606  -0.47388  -0.47193
 Alpha  occ. eigenvalues --   -0.47121  -0.47037  -0.46460  -0.46146  -0.45861
 Alpha  occ. eigenvalues --   -0.45670  -0.45315  -0.45171  -0.44973  -0.44930
 Alpha  occ. eigenvalues --   -0.44756  -0.44512  -0.44202  -0.44154  -0.43878
 Alpha  occ. eigenvalues --   -0.43526  -0.43442  -0.43323  -0.42452  -0.42281
 Alpha  occ. eigenvalues --   -0.42133  -0.42025  -0.41865  -0.41838  -0.41408
 Alpha  occ. eigenvalues --   -0.41148  -0.40971  -0.40725  -0.40597  -0.40422
 Alpha  occ. eigenvalues --   -0.40261  -0.40253  -0.39804  -0.39271  -0.39037
 Alpha  occ. eigenvalues --   -0.38659  -0.38497  -0.38485  -0.38146  -0.37915
 Alpha  occ. eigenvalues --   -0.37862  -0.37735  -0.37452  -0.37415  -0.37214
 Alpha  occ. eigenvalues --   -0.37172  -0.37003  -0.36847  -0.36726  -0.36695
 Alpha  occ. eigenvalues --   -0.36514  -0.36218  -0.36167  -0.35884  -0.35795
 Alpha  occ. eigenvalues --   -0.35639  -0.35564  -0.35283  -0.35195  -0.34835
 Alpha  occ. eigenvalues --   -0.34711  -0.34137  -0.34015  -0.33742  -0.33477
 Alpha  occ. eigenvalues --   -0.33277  -0.33145  -0.32707  -0.32607  -0.32108
 Alpha  occ. eigenvalues --   -0.32082  -0.31637  -0.31579  -0.31062  -0.30958
 Alpha  occ. eigenvalues --   -0.30793  -0.30732  -0.30533  -0.30217  -0.30003
 Alpha  occ. eigenvalues --   -0.29393  -0.29020  -0.28543  -0.28057  -0.27799
 Alpha  occ. eigenvalues --   -0.27765  -0.26971  -0.26623  -0.26182  -0.25992
 Alpha  occ. eigenvalues --   -0.25721  -0.25425  -0.23326  -0.22546  -0.19543
 Alpha  occ. eigenvalues --   -0.19016
 Alpha virt. eigenvalues --   -0.10642  -0.08050  -0.03955  -0.02075  -0.00435
 Alpha virt. eigenvalues --   -0.00067   0.00482   0.00680   0.01628   0.02735
 Alpha virt. eigenvalues --    0.03204   0.03799   0.03958   0.04044   0.04161

 Mulliken charges:
               1
     1  C    0.066804
     2  C   -0.045174
     3  C   -0.105163
     4  C   -0.066961
     5  N   -0.067464
     6  C   -0.130327
     7  C   -0.154702
     8  C   -0.000472
     9  C   -0.056519
    10  C    0.103548
    11  C    0.126323
    12  C    0.058837
    13  C    0.165304
    14  O   -0.254989
    15  O   -0.261785
    16  N   -0.042458
    17  C    0.150079
    18  C   -0.105375
    19  C    0.062094
    20  C    0.116962
    21  C   -0.054194
    22  C   -0.058291
    23  C    0.014358
    24  N   -0.321589
    25  C    0.056698
    26  C   -0.111360
    27  C   -0.112628
    28  C    0.028153
    29  C    0.002159
    30  C    0.154498
    31  C   -0.031860
    32  N   -0.019173
    33  C    0.083808
    34  C   -0.079924
    35  C   -0.076962
    36  C    0.094878
    37  C   -0.118579
    38  C    0.084667
    39  O   -0.063087
    40  C   -0.081318
    41  C    0.195108
    42  O   -0.228237
    43  O   -0.285318
    44  C    0.130887
    45  C    0.223548
    46  C   -0.139368
    47  C   -0.103589
    48  C    0.130828
    49  C    0.005881
    50  C   -0.067800
    51  C    0.049306
    52  C   -0.026611
    53  C   -0.010837
    54  C   -0.040596
    55  C    0.091203
    56  C   -0.008974
    57  C   -0.069701
    58  C    0.008518
    59  C    0.098735
    60  C   -0.017493
    61  C   -0.022618
    62  C   -0.060237
    63  C    0.040387
    64  C    0.076099
    65  H   -0.029304
    66  H    0.016686
    67  H    0.003230
    68  H    0.015195
    69  H   -0.009175
    70  H   -0.031630
    71  H    0.021118
    72  H    0.018790
    73  H   -0.040673
    74  H    0.003868
    75  H    0.037808
    76  H    0.018575
    77  H    0.052249
    78  H    0.041328
    79  H    0.043621
    80  H   -0.035463
    81  H    0.046715
    82  H   -0.027543
    83  H    0.060342
    84  H    0.054009
    85  H    0.025643
    86  H    0.012794
    87  H   -0.043897
    88  H    0.009633
    89  H    0.022814
    90  H    0.018969
    91  H    0.068552
    92  H    0.074898
    93  H    0.082289
    94  H    0.068528
    95  H    0.063024
    96  H    0.057822
    97  H    0.042534
    98  H    0.022122
    99  H    0.012440
   100  H    0.037929
   101  H    0.012400
   102  H   -0.006361
   103  H    0.036458
   104  H    0.013330
   105  H    0.027139
   106  H    0.021598
   107  H    0.011895
   108  H    0.017660
   109  H   -0.008881
   110  H    0.007989
   111  H    0.051917
   112  H   -0.008142
   113  H   -0.015410
   114  H    0.001410
   115  H   -0.009088
   116  H   -0.063184
   117  H    0.020005
   118  H   -0.051800
   119  H   -0.002769
   120  H   -0.025390
   121  H    0.016679
   122  H    0.018495
   123  H   -0.012052
   124  H   -0.048944
   125  H    0.016213
   126  H    0.006193
   127  H    0.009175
   128  H    0.024392
   129  H    0.020159
   130  H    0.014319
   131  H   -0.010948
   132  H   -0.019686
   133  H   -0.006445
   134  H   -0.046144
   135  H    0.015226
   136  H    0.002914
   137  H    0.126243
   138  H    0.089658
 Sum of Mulliken charges =  -0.00000

 Dipole moment (field-independent basis, Debye):
    X=              3.3195    Y=              2.7883    Z=             -0.0297  Tot=              4.3353
 Quadrupole moment (field-independent basis, Debye-Ang):
   XX=           -357.5936   YY=           -381.7021   ZZ=           -397.8117
   XY=             -9.5021   XZ=              8.2335   YZ=             -8.9598

 Normal termination of Gaussian 16 at Sun Sep  1 09:37:57 2019.
