 Gaussian 16, Revision A.03,
 Gaussian 16:  ES64L-G16RevA.03 25-Dec-2016

 --------------------------
 # td=(NStates=1) B3LYP/SVP
 --------------------------

 --
 TD
 --
 Symbolic Z-matrix:
 Charge =  0 Multiplicity = 1

                         Standard orientation:
 ---------------------------------------------------------------------
 Center     Atomic      Atomic             Coordinates (Angstroms)
 Number     Number       Type             X           Y           Z
 ---------------------------------------------------------------------
      1          6           0       -5.047264   -1.923016    0.488799
      2          6           0       -4.785027    2.741082    1.366532
      3          6           0       -9.361178    3.398500   -0.354736
      4          6           0       -9.768161   -1.494097   -1.025119
      5          7           0       -5.183862    0.378664    0.862820
      6          6           0       -4.465054   -0.695039    0.923298
      7          6           0       -3.034527   -0.520454    1.308137
      8          6           0       -3.104680    0.928957    1.934674
      9          6           0       -4.400696    1.426342    1.347909
     10          6           0       -3.077814    0.997406    3.453029
     11          6           0       -2.107566   -0.794871    0.150058
     12          6           0       -0.615377   -0.424605    0.455200
     13          6           0        0.307938   -0.899838   -0.691238
     14          8           0        0.026803   -1.446684   -1.694595
     15          8           0        1.636816   -0.671576   -0.294448
     16          7           0       -7.099866    2.844113    0.475389
     17          6           0       -5.974498    3.399699    1.020752
     18          6           0       -6.282765    4.853587    1.002899
     19          6           0       -7.526330    5.022476    0.448392
     20          6           0       -8.069123    3.680954    0.181731
     21          6           0       -5.256936    5.951163    1.583154
     22          6           0       -8.189902    6.276996    0.329039
     23          6           0       -9.141519    6.592735   -0.588047
     24          7           0       -9.153018    0.878261   -0.511874
     25          6           0       -9.884899    2.029078   -0.508782
     26          6           0      -11.227163    1.802706   -0.978155
     27          6           0      -11.392972    0.499359   -1.232478
     28          6           0      -10.048148   -0.168289   -0.884559
     29          6           0      -12.257048    2.850275   -1.095889
     30          6           0      -12.542791   -0.271109   -1.593935
     31          6           0      -12.763998   -0.730232   -3.061547
     32          7           0       -7.460624   -1.287828   -0.184488
     33          6           0       -8.483241   -2.059492   -0.814196
     34          6           0       -8.042044   -3.438083   -0.673262
     35          6           0       -6.779241   -3.418850   -0.220013
     36          6           0       -6.359041   -2.030986   -0.025266
     37          6           0       -8.856937   -4.651139   -1.071596
     38          6           0       -5.642087   -4.341760    0.050137
     39          8           0       -5.507088   -5.509318   -0.020437
     40          6           0       -4.469217   -3.382344    0.392414
     41          6           0       -3.836425   -3.841283    1.719023
     42          8           0       -4.090052   -3.450187    2.810428
     43          8           0       -2.914725   -4.849338    1.438942
     44          6           0       -2.502806   -5.571969    2.575608
     45          6           0        2.642706   -0.935978   -1.114932
     46          6           0        3.899391   -0.639111   -0.486034
     47          6           0        4.991648    0.047188   -1.065009
     48          6           0        4.781894    0.858126   -2.351345
     49          6           0        6.227298    0.221971   -0.256501
     50          6           0        7.562194   -0.352351   -0.892726
     51          6           0        8.676570   -0.070304    0.012469
     52          6           0       10.023122   -0.698994   -0.607324
     53          6           0        9.966903   -2.253924   -0.805355
     54          6           0       11.272653   -0.342628    0.180273
     55          6           0       12.627321   -0.659752   -0.375986
     56          6           0       13.823336   -0.086795    0.358769
     57          6           0       15.143986   -0.247504   -0.351481
     58          6           0       15.568265   -1.666301   -0.445250
     59          6           0       16.225482    0.646126    0.491377
     60          6           0       17.614970    0.688171   -0.158843
     61          6           0       18.629626    1.551799    0.537147
     62          6           0       19.930652    1.694310   -0.052957
     63          6           0       20.031641    2.193850   -1.503836
     64          6           0       21.080322    2.389495    0.728994
     65          1           0       -4.013101    3.481156    2.129274
     66          1           0      -10.120180    4.290984   -0.558176
     67          1           0      -10.639108   -2.192000   -1.290053
     68          1           0       -2.529886   -1.312564    1.882463
     69          1           0       -2.374980    1.702716    1.517240
     70          1           0       -2.273662    0.371972    3.970047
     71          1           0       -3.065595    2.046759    3.697243
     72          1           0       -3.832015    0.428660    3.901543
     73          1           0       -2.326440   -1.846001   -0.193786
     74          1           0       -2.331156   -0.055434   -0.674633
     75          1           0       -0.213162    0.702739    0.544548
     76          1           0       -0.224755   -0.800363    1.506852
     77          1           0       -4.165803    5.621194    1.200104
     78          1           0       -5.625284    6.933638    1.132533
     79          1           0       -5.161456    5.805257    2.674447
     80          1           0       -7.897820    7.113066    1.029532
     81          1           0       -9.349236    6.005884   -1.457395
     82          1           0       -9.417330    7.533926   -0.508171
     83          1           0      -12.107006    3.550764   -0.183199
     84          1           0      -12.127590    3.331216   -2.119755
     85          1           0      -13.404429    2.490009   -1.091754
     86          1           0      -12.453947   -1.288739   -1.067933
     87          1           0      -13.532537    0.151150   -1.239534
     88          1           0      -13.010336    0.226322   -3.693226
     89          1           0      -11.918195   -1.350026   -3.367885
     90          1           0      -13.840241   -1.477335   -3.120182
     91          1           0       -9.674724   -4.934642   -0.404533
     92          1           0       -9.565627   -4.733056   -2.143319
     93          1           0       -8.090965   -5.452345   -1.003671
     94          1           0       -3.510187   -3.536811   -0.402735
     95          1           0       -1.892128   -6.467399    2.258205
     96          1           0       -1.999872   -4.957466    3.194352
     97          1           0       -3.354816   -5.981504    3.133613
     98          1           0        2.611517   -1.983012   -1.223191
     99          1           0        2.460736   -0.412940   -2.110430
    100          1           0        4.146302   -1.273843    0.505632
    101          1           0        5.285572    1.807574   -2.209696
    102          1           0        5.316968    0.317899   -3.183662
    103          1           0        3.795918    1.199758   -2.718223
    104          1           0        6.385088    1.274125   -0.119023
    105          1           0        6.105084   -0.018046    0.671635
    106          1           0        7.418266   -1.436988   -1.159932
    107          1           0        7.553218    0.191409   -2.058512
    108          1           0        8.735548    0.966994    0.028357
    109          1           0        8.632047   -0.416692    1.036431
    110          1           0       10.116158   -0.370145   -1.686522
    111          1           0        8.899275   -2.535046   -1.319079
    112          1           0       10.666499   -2.846046   -1.559691
    113          1           0       10.014749   -2.485749    0.280618
    114          1           0       11.437915    0.815036    0.304061
    115          1           0       11.371383   -0.734949    1.235565
    116          1           0       12.885144   -1.730065   -0.372202
    117          1           0       12.628032   -0.229408   -1.396772
    118          1           0       13.546248    1.024786    0.542764
    119          1           0       13.755169   -0.535816    1.295365
    120          1           0       15.196671    0.088056   -1.391694
    121          1           0       15.034866   -2.202832   -1.241239
    122          1           0       16.635611   -1.796683   -1.044282
    123          1           0       15.355768   -2.197438    0.497053
    124          1           0       15.742432    1.551928    0.470934
    125          1           0       16.375994    0.329012    1.622707
    126          1           0       18.074815   -0.415318   -0.096184
    127          1           0       17.637533    1.003275   -1.267635
    128          1           0       18.252159    2.376149    0.437469
    129          1           0       18.677577    1.402782    1.758591
    130          1           0       20.425691    0.731609   -0.101111
    131          1           0       19.585311    3.285407   -1.398680
    132          1           0       21.097778    1.984188   -1.732136
    133          1           0       19.281721    1.543426   -2.045465
    134          1           0       21.153410    2.001038    1.813565
    135          1           0       22.099373    2.452443    0.057798
    136          1           0       20.925658    3.389480    0.960671
    137          1           0       -7.204628    1.763167   -0.008214
    138          1           0       -7.392093   -0.343401   -0.260260
 ---------------------------------------------------------------------

 SCF Done:  E(RB3LYP) =  -2733.03763992     A.U. after   17 cycles

 Excitation energies and oscillator strengths:

 Excited State   1:      Singlet-A      2.0398 eV  607.81 nm  f=0.2112  <S**2>=0.000
     235 -> 237       -0.18597
     235 -> 238        0.26479
     236 -> 237        0.61286
     236 -> 238        0.13805
 This state for optimization and/or second-order correction.
 Total Energy, E(TD-HF/TD-DFT) =  -2732.96267728
 Copying the excited state density for this state as the 1-particle RhoCI density.

 The electronic state is 1-A.
 Alpha  occ. eigenvalues --  -19.17036 -19.15848 -19.13762 -19.13458 -19.13070
 Alpha  occ. eigenvalues --  -14.38022 -14.36858 -14.32609 -14.30914 -10.31949
 Alpha  occ. eigenvalues --  -10.31754 -10.28363 -10.24669 -10.23902 -10.23849
 Alpha  occ. eigenvalues --  -10.23613 -10.23196 -10.23145 -10.23116 -10.22844
 Alpha  occ. eigenvalues --  -10.22839 -10.22738 -10.22160 -10.22004 -10.21811
 Alpha  occ. eigenvalues --  -10.21654 -10.21594 -10.21576 -10.21154 -10.21110
 Alpha  occ. eigenvalues --  -10.21015 -10.21013 -10.21007 -10.20950 -10.20869
 Alpha  occ. eigenvalues --  -10.20679 -10.20487 -10.20447 -10.20424 -10.20290
 Alpha  occ. eigenvalues --  -10.19984 -10.19892 -10.19716 -10.19527 -10.19261
 Alpha  occ. eigenvalues --  -10.19154 -10.19054 -10.19040 -10.19005 -10.18823
 Alpha  occ. eigenvalues --  -10.18815 -10.18774 -10.18503 -10.18467 -10.18383
 Alpha  occ. eigenvalues --  -10.18382 -10.18344 -10.18214 -10.17897 -10.17768
 Alpha  occ. eigenvalues --  -10.17533 -10.17447 -10.17305 -10.16458  -1.10291
 Alpha  occ. eigenvalues --   -1.09282  -1.05469  -1.03232  -1.01657  -0.99194
 Alpha  occ. eigenvalues --   -0.98767  -0.95944  -0.92218  -0.84152  -0.82793
 Alpha  occ. eigenvalues --   -0.82363  -0.81798  -0.81725  -0.81533  -0.81431
 Alpha  occ. eigenvalues --   -0.80239  -0.79970  -0.79814  -0.79354  -0.77943
 Alpha  occ. eigenvalues --   -0.77233  -0.76112  -0.75205  -0.75134  -0.74382
 Alpha  occ. eigenvalues --   -0.73784  -0.73147  -0.72424  -0.71714  -0.70301
 Alpha  occ. eigenvalues --   -0.69770  -0.68920  -0.68647  -0.68609  -0.67710
 Alpha  occ. eigenvalues --   -0.67031  -0.66437  -0.66414  -0.66261  -0.65168
 Alpha  occ. eigenvalues --   -0.64043  -0.62805  -0.62250  -0.61783  -0.61131
 Alpha  occ. eigenvalues --   -0.60790  -0.59227  -0.58973  -0.57861  -0.57260
 Alpha  occ. eigenvalues --   -0.56685  -0.56130  -0.55698  -0.55586  -0.55456
 Alpha  occ. eigenvalues --   -0.55366  -0.54899  -0.54625  -0.53395  -0.53207
 Alpha  occ. eigenvalues --   -0.52516  -0.52283  -0.51616  -0.50985  -0.50765
 Alpha  occ. eigenvalues --   -0.49801  -0.49170  -0.49003  -0.48804  -0.48483
 Alpha  occ. eigenvalues --   -0.48319  -0.48195  -0.47649  -0.47444  -0.47149
 Alpha  occ. eigenvalues --   -0.46972  -0.46914  -0.46236  -0.45858  -0.45786
 Alpha  occ. eigenvalues --   -0.45550  -0.45496  -0.45258  -0.45000  -0.44896
 Alpha  occ. eigenvalues --   -0.44760  -0.44676  -0.44471  -0.44245  -0.44126
 Alpha  occ. eigenvalues --   -0.43723  -0.43482  -0.43235  -0.42987  -0.42815
 Alpha  occ. eigenvalues --   -0.42760  -0.42295  -0.42128  -0.42080  -0.41660
 Alpha  occ. eigenvalues --   -0.41402  -0.41242  -0.40798  -0.40648  -0.40307
 Alpha  occ. eigenvalues --   -0.40211  -0.39933  -0.39796  -0.39688  -0.39516
 Alpha  occ. eigenvalues --   -0.38883  -0.38735  -0.38627  -0.38391  -0.38282
 Alpha  occ. eigenvalues --   -0.37984  -0.37890  -0.37764  -0.37625  -0.37565
 Alpha  occ. eigenvalues --   -0.37501  -0.37316  -0.37089  -0.36922  -0.36591
 Alpha  occ. eigenvalues --   -0.36409  -0.36215  -0.36134  -0.36068  -0.35778
 Alpha  occ. eigenvalues --   -0.35504  -0.35457  -0.35262  -0.34908  -0.34747
 Alpha  occ. eigenvalues --   -0.34485  -0.34249  -0.34169  -0.33803  -0.33706
 Alpha  occ. eigenvalues --   -0.33597  -0.33472  -0.33379  -0.32740  -0.32654
 Alpha  occ. eigenvalues --   -0.32525  -0.32109  -0.31830  -0.31391  -0.31109
 Alpha  occ. eigenvalues --   -0.31066  -0.30462  -0.30365  -0.30268  -0.29788
 Alpha  occ. eigenvalues --   -0.29457  -0.29042  -0.28680  -0.28561  -0.28282
 Alpha  occ. eigenvalues --   -0.28251  -0.27838  -0.27284  -0.26634  -0.26219
 Alpha  occ. eigenvalues --   -0.25702  -0.23961  -0.23328  -0.22916  -0.20368
 Alpha  occ. eigenvalues --   -0.18783
 Alpha virt. eigenvalues --   -0.10482  -0.07866  -0.04427  -0.02647  -0.00521
 Alpha virt. eigenvalues --   -0.00301  -0.00131   0.00512   0.00829   0.02091
 Alpha virt. eigenvalues --    0.02835   0.03869   0.04039   0.04146   0.04489

 Mulliken charges:
               1
     1  C    0.017199
     2  C   -0.108179
     3  C   -0.135804
     4  C   -0.105723
     5  N   -0.141452
     6  C   -0.035740
     7  C   -0.046174
     8  C   -0.030345
     9  C   -0.015578
    10  C    0.127743
    11  C    0.066107
    12  C   -0.076700
    13  C    0.180975
    14  O   -0.176761
    15  O   -0.322268
    16  N   -0.091845
    17  C    0.084858
    18  C   -0.145961
    19  C    0.052781
    20  C    0.067767
    21  C    0.046972
    22  C   -0.132066
    23  C    0.050707
    24  N   -0.291379
    25  C    0.073905
    26  C   -0.140036
    27  C    0.006791
    28  C    0.075851
    29  C    0.016220
    30  C   -0.015179
    31  C   -0.059093
    32  N    0.017613
    33  C    0.088887
    34  C   -0.124569
    35  C   -0.049898
    36  C    0.053831
    37  C    0.007521
    38  C    0.114005
    39  O   -0.116075
    40  C   -0.148971
    41  C    0.195336
    42  O   -0.185883
    43  O   -0.330173
    44  C    0.230627
    45  C    0.317834
    46  C   -0.141896
    47  C   -0.149332
    48  C    0.058005
    49  C    0.191502
    50  C   -0.091543
    51  C    0.143751
    52  C   -0.054302
    53  C   -0.062438
    54  C    0.015069
    55  C    0.026270
    56  C    0.030915
    57  C   -0.049858
    58  C    0.002938
    59  C    0.070963
    60  C   -0.069918
    61  C    0.204283
    62  C   -0.102873
    63  C   -0.010544
    64  C    0.004180
    65  H    0.027057
    66  H    0.037711
    67  H    0.011585
    68  H   -0.003476
    69  H    0.007187
    70  H    0.010259
    71  H    0.011390
    72  H   -0.003743
    73  H    0.039206
    74  H    0.007913
    75  H    0.060931
    76  H    0.050445
    77  H    0.042874
    78  H    0.049667
    79  H    0.042514
    80  H    0.013584
    81  H    0.026400
    82  H   -0.022348
    83  H    0.046954
    84  H    0.038023
    85  H    0.029324
    86  H    0.007262
    87  H    0.009070
    88  H    0.035570
    89  H    0.027833
    90  H    0.024839
    91  H    0.027460
    92  H    0.047838
    93  H    0.044909
    94  H    0.106912
    95  H    0.035010
    96  H   -0.012011
    97  H    0.016880
    98  H   -0.023473
    99  H    0.000879
   100  H    0.014212
   101  H    0.000979
   102  H    0.031301
   103  H    0.026140
   104  H   -0.022694
   105  H   -0.077319
   106  H    0.016277
   107  H    0.015599
   108  H   -0.022653
   109  H   -0.002720
   110  H   -0.009834
   111  H    0.020824
   112  H    0.048843
   113  H    0.014836
   114  H   -0.008605
   115  H   -0.011261
   116  H   -0.008230
   117  H   -0.017878
   118  H   -0.012256
   119  H   -0.029930
   120  H   -0.017226
   121  H    0.001439
   122  H    0.021589
   123  H    0.011575
   124  H   -0.031042
   125  H    0.010531
   126  H    0.012253
   127  H    0.007985
   128  H   -0.115766
   129  H   -0.001254
   130  H   -0.024272
   131  H    0.023274
   132  H    0.028377
   133  H    0.017523
   134  H    0.008574
   135  H    0.020573
   136  H   -0.027880
   137  H    0.234557
   138  H    0.098277
 Sum of Mulliken charges =  -0.00000

 Dipole moment (field-independent basis, Debye):
    X=              1.0906    Y=              4.4802    Z=              0.7305  Tot=              4.6685
 Quadrupole moment (field-independent basis, Debye-Ang):
   XX=           -382.7513   YY=           -384.3754   ZZ=           -396.2602
   XY=            -18.9627   XZ=              8.4310   YZ=             -1.6535

 Normal termination of Gaussian 16 at Wed Aug 28 00:04:23 2019.
