 Gaussian 16, Revision A.03,
 Gaussian 16:  ES64L-G16RevA.03 25-Dec-2016

 --------------------------
 # td=(NStates=1) B3LYP/SVP
 --------------------------

 --
 TD
 --
 Symbolic Z-matrix:
 Charge =  0 Multiplicity = 1

                         Standard orientation:
 ---------------------------------------------------------------------
 Center     Atomic      Atomic             Coordinates (Angstroms)
 Number     Number       Type             X           Y           Z
 ---------------------------------------------------------------------
      1          6           0       -5.200056   -1.963878    0.407911
      2          6           0       -4.653110    2.683705    1.561759
      3          6           0       -9.220780    3.476294   -0.126584
      4          6           0       -9.844110   -1.308389   -0.960795
      5          7           0       -5.141834    0.392444    0.824598
      6          6           0       -4.569279   -0.771276    0.757797
      7          6           0       -3.138229   -0.714268    1.227410
      8          6           0       -3.093180    0.736192    1.915071
      9          6           0       -4.381497    1.331966    1.402391
     10          6           0       -2.969926    0.721135    3.458969
     11          6           0       -2.075941   -0.924044    0.096624
     12          6           0       -0.662456   -0.851906    0.552739
     13          6           0        0.289198   -1.299863   -0.541544
     14          8           0        0.063376   -1.677094   -1.654012
     15          8           0        1.565393   -0.940229   -0.252502
     16          7           0       -6.959101    2.786725    0.554651
     17          6           0       -5.781439    3.362650    0.998477
     18          6           0       -6.017000    4.799497    1.127588
     19          6           0       -7.331003    4.981817    0.720992
     20          6           0       -7.899478    3.746374    0.219616
     21          6           0       -4.982532    5.904751    1.402253
     22          6           0       -7.931705    6.283219    0.493173
     23          6           0       -8.905506    6.684507   -0.357622
     24          7           0       -9.116554    1.041227   -0.525465
     25          6           0       -9.781433    2.240421   -0.562058
     26          6           0      -11.171366    2.068659   -1.021201
     27          6           0      -11.383914    0.674073   -1.192130
     28          6           0      -10.046006    0.109520   -0.981196
     29          6           0      -12.220570    3.105790   -1.194400
     30          6           0      -12.559470   -0.133775   -1.667468
     31          6           0      -12.550039   -0.290575   -3.207425
     32          7           0       -7.547079   -1.230660   -0.348409
     33          6           0       -8.628039   -1.973225   -0.654127
     34          6           0       -8.352155   -3.267570   -0.680968
     35          6           0       -6.999438   -3.422368   -0.333945
     36          6           0       -6.557921   -2.095505   -0.123131
     37          6           0       -9.127542   -4.576492   -0.942664
     38          6           0       -5.949737   -4.350174    0.002458
     39          8           0       -5.835185   -5.538623    0.075675
     40          6           0       -4.612658   -3.424908    0.380959
     41          6           0       -4.055788   -3.900862    1.746009
     42          8           0       -4.256197   -3.431272    2.849683
     43          8           0       -3.270355   -4.919352    1.473339
     44          6           0       -2.529883   -5.491936    2.606925
     45          6           0        2.632011   -1.176754   -1.136589
     46          6           0        3.980157   -0.789170   -0.577834
     47          6           0        5.059697    0.060432   -1.074006
     48          6           0        4.814386    0.698034   -2.463755
     49          6           0        6.178277    0.183009   -0.257440
     50          6           0        7.503660   -0.305718   -1.029314
     51          6           0        8.773865   -0.028993   -0.275471
     52          6           0        9.962882   -0.578862   -0.800824
     53          6           0       10.016094   -2.114679   -1.024976
     54          6           0       11.226670   -0.075348    0.057308
     55          6           0       12.552289   -0.343180   -0.527714
     56          6           0       13.690706    0.218490    0.298537
     57          6           0       15.151629   -0.169408   -0.406116
     58          6           0       15.562900   -1.579697   -0.550191
     59          6           0       16.324662    0.554834    0.483470
     60          6           0       17.585878    0.668799   -0.199809
     61          6           0       18.630312    1.506516    0.589956
     62          6           0       20.081392    1.463333    0.108512
     63          6           0       20.281615    2.165522   -1.247080
     64          6           0       21.070318    2.084475    1.109079
     65          1           0       -3.895925    3.340867    2.033751
     66          1           0       -9.920310    4.319132   -0.100417
     67          1           0      -10.729250   -1.874499   -1.352965
     68          1           0       -2.682420   -1.618002    1.912006
     69          1           0       -2.277400    1.255444    1.358067
     70          1           0       -1.939014    0.381214    3.808444
     71          1           0       -2.946069    1.686846    3.905399
     72          1           0       -3.745396    0.156494    3.765789
     73          1           0       -2.360775   -1.990943   -0.179403
     74          1           0       -2.265707   -0.061208   -0.659096
     75          1           0       -0.340041    0.056881    0.844044
     76          1           0       -0.343533   -1.607552    1.266359
     77          1           0       -4.085196    5.607438    0.721241
     78          1           0       -5.234304    6.885293    1.111290
     79          1           0       -4.749959    5.759285    2.399920
     80          1           0       -7.524565    6.831690    1.285847
     81          1           0       -9.105744    6.022083   -1.200466
     82          1           0       -9.393086    7.609174   -0.599658
     83          1           0      -12.460333    3.711794   -0.374229
     84          1           0      -11.851397    3.777177   -1.821005
     85          1           0      -13.220457    2.678669   -1.557984
     86          1           0      -12.470050   -1.098210   -1.245081
     87          1           0      -13.640926    0.329339   -1.387367
     88          1           0      -12.402784    0.623493   -3.747118
     89          1           0      -11.695432   -0.845064   -3.496051
     90          1           0      -13.363821   -0.957696   -3.612503
     91          1           0       -9.978819   -4.711652   -0.066014
     92          1           0       -9.486156   -4.816268   -2.053856
     93          1           0       -8.358999   -5.477639   -0.642739
     94          1           0       -3.779961   -3.598360   -0.240244
     95          1           0       -1.804508   -6.172357    2.017360
     96          1           0       -2.322648   -4.554913    3.247380
     97          1           0       -3.393547   -6.169205    3.201173
     98          1           0        2.657799   -2.186451   -1.267623
     99          1           0        2.314260   -0.765079   -2.144879
    100          1           0        3.898504   -1.018025    0.658661
    101          1           0        5.045200    1.749455   -2.361780
    102          1           0        5.477189    0.308167   -3.271532
    103          1           0        3.863608    0.679623   -3.013500
    104          1           0        6.392112    1.401764    0.024026
    105          1           0        6.201997   -0.290508    0.737202
    106          1           0        7.328800   -1.457244   -1.043601
    107          1           0        7.729899    0.352432   -2.144114
    108          1           0        8.958479    1.047342    0.211800
    109          1           0        8.727404   -0.624325    0.784786
    110          1           0       10.127352   -0.251348   -1.933958
    111          1           0        9.388288   -2.646730   -1.701232
    112          1           0       11.163451   -2.473939   -1.690901
    113          1           0        9.859434   -2.776381   -0.145382
    114          1           0       10.967716    1.109744    0.261655
    115          1           0       11.086984   -0.706185    1.177724
    116          1           0       12.851409   -1.382455   -0.503138
    117          1           0       12.903589    0.033581   -1.564451
    118          1           0       13.678665    1.332373    0.230365
    119          1           0       13.696931    0.029001    1.391955
    120          1           0       15.345108    0.495615   -1.433433
    121          1           0       14.874334   -2.300073   -1.076802
    122          1           0       16.665872   -1.965365   -0.713977
    123          1           0       15.341015   -2.005846    0.386669
    124          1           0       15.927706    1.633839    0.771626
    125          1           0       16.235114    0.088254    1.440501
    126          1           0       18.111945   -0.218702   -0.294376
    127          1           0       17.769694    1.151351   -1.202587
    128          1           0       18.276776    2.605177    0.763491
    129          1           0       18.776104    1.083759    1.569341
    130          1           0       20.310776    0.420687    0.118789
    131          1           0       19.710424    3.206619   -1.517873
    132          1           0       21.370131    2.218390   -1.703290
    133          1           0       19.604496    1.505839   -1.968565
    134          1           0       20.839843    1.799231    1.996809
    135          1           0       22.249437    2.142514    0.953284
    136          1           0       20.828928    3.279168    1.226796
    137          1           0       -7.193613    1.680793    0.477102
    138          1           0       -7.491375   -0.187548   -0.148176
 ---------------------------------------------------------------------

 SCF Done:  E(RB3LYP) =  -2733.00513421     A.U. after   16 cycles

 Excitation energies and oscillator strengths:

 Excited State   1:      Singlet-A      2.1079 eV  588.18 nm  f=0.1444  <S**2>=0.000
     235 -> 237        0.43617
     235 -> 238       -0.21899
     236 -> 237       -0.43268
     236 -> 238       -0.26482
 This state for optimization and/or second-order correction.
 Total Energy, E(TD-HF/TD-DFT) =  -2732.92766954
 Copying the excited state density for this state as the 1-particle RhoCI density.

 The electronic state is 1-A.
 Alpha  occ. eigenvalues --  -19.17449 -19.16164 -19.12408 -19.11803 -19.11664
 Alpha  occ. eigenvalues --  -14.37738 -14.37187 -14.31847 -14.30726 -10.30994
 Alpha  occ. eigenvalues --  -10.30610 -10.28132 -10.26703 -10.24837 -10.23841
 Alpha  occ. eigenvalues --  -10.23728 -10.23289 -10.22847 -10.22736 -10.22449
 Alpha  occ. eigenvalues --  -10.22272 -10.22142 -10.21882 -10.21762 -10.21750
 Alpha  occ. eigenvalues --  -10.21639 -10.21158 -10.21124 -10.20986 -10.20877
 Alpha  occ. eigenvalues --  -10.20803 -10.20774 -10.20595 -10.20453 -10.20444
 Alpha  occ. eigenvalues --  -10.20432 -10.20391 -10.20380 -10.20374 -10.20341
 Alpha  occ. eigenvalues --  -10.20305 -10.20199 -10.20079 -10.20070 -10.20055
 Alpha  occ. eigenvalues --  -10.19971 -10.19851 -10.19709 -10.19673 -10.19617
 Alpha  occ. eigenvalues --  -10.19331 -10.19152 -10.19140 -10.19106 -10.18757
 Alpha  occ. eigenvalues --  -10.18498 -10.18379 -10.18285 -10.18173 -10.18131
 Alpha  occ. eigenvalues --  -10.17954 -10.17841 -10.17837 -10.17645  -1.09525
 Alpha  occ. eigenvalues --   -1.09484  -1.03653  -1.00633  -1.00209  -0.99742
 Alpha  occ. eigenvalues --   -0.97489  -0.95758  -0.92613  -0.83386  -0.82960
 Alpha  occ. eigenvalues --   -0.82024  -0.81901  -0.81738  -0.81430  -0.81060
 Alpha  occ. eigenvalues --   -0.80337  -0.79570  -0.79558  -0.78865  -0.77700
 Alpha  occ. eigenvalues --   -0.76995  -0.76438  -0.75646  -0.75023  -0.74562
 Alpha  occ. eigenvalues --   -0.73571  -0.73013  -0.72577  -0.71747  -0.70966
 Alpha  occ. eigenvalues --   -0.69782  -0.69354  -0.68587  -0.68240  -0.67431
 Alpha  occ. eigenvalues --   -0.67111  -0.66619  -0.66550  -0.66013  -0.64654
 Alpha  occ. eigenvalues --   -0.64193  -0.63466  -0.62765  -0.62464  -0.61665
 Alpha  occ. eigenvalues --   -0.60727  -0.59179  -0.57918  -0.57380  -0.57172
 Alpha  occ. eigenvalues --   -0.56079  -0.55835  -0.55761  -0.55454  -0.55252
 Alpha  occ. eigenvalues --   -0.54748  -0.54232  -0.54216  -0.53305  -0.52994
 Alpha  occ. eigenvalues --   -0.52839  -0.51791  -0.51619  -0.51016  -0.50550
 Alpha  occ. eigenvalues --   -0.50119  -0.49665  -0.48798  -0.48411  -0.48269
 Alpha  occ. eigenvalues --   -0.48001  -0.47643  -0.47406  -0.47247  -0.46923
 Alpha  occ. eigenvalues --   -0.46709  -0.46363  -0.46230  -0.46108  -0.45859
 Alpha  occ. eigenvalues --   -0.45395  -0.45367  -0.44905  -0.44829  -0.44713
 Alpha  occ. eigenvalues --   -0.44468  -0.44320  -0.44219  -0.44063  -0.43932
 Alpha  occ. eigenvalues --   -0.43652  -0.43215  -0.43179  -0.42920  -0.42603
 Alpha  occ. eigenvalues --   -0.42410  -0.42143  -0.41951  -0.41666  -0.41584
 Alpha  occ. eigenvalues --   -0.41307  -0.41237  -0.40924  -0.40501  -0.40305
 Alpha  occ. eigenvalues --   -0.40202  -0.40049  -0.39901  -0.39847  -0.39706
 Alpha  occ. eigenvalues --   -0.39442  -0.39208  -0.38933  -0.38715  -0.38564
 Alpha  occ. eigenvalues --   -0.38351  -0.38249  -0.38146  -0.37996  -0.37868
 Alpha  occ. eigenvalues --   -0.37327  -0.37018  -0.36817  -0.36703  -0.36668
 Alpha  occ. eigenvalues --   -0.36625  -0.36378  -0.36172  -0.35942  -0.35560
 Alpha  occ. eigenvalues --   -0.35063  -0.34982  -0.34868  -0.34801  -0.34529
 Alpha  occ. eigenvalues --   -0.34223  -0.33931  -0.33691  -0.33575  -0.33560
 Alpha  occ. eigenvalues --   -0.33284  -0.32965  -0.32837  -0.32662  -0.32242
 Alpha  occ. eigenvalues --   -0.32082  -0.31623  -0.31597  -0.31385  -0.31224
 Alpha  occ. eigenvalues --   -0.31074  -0.30703  -0.29751  -0.29678  -0.29590
 Alpha  occ. eigenvalues --   -0.29245  -0.29189  -0.28320  -0.27694  -0.27603
 Alpha  occ. eigenvalues --   -0.27385  -0.27311  -0.26875  -0.26676  -0.25998
 Alpha  occ. eigenvalues --   -0.24675  -0.24024  -0.22847  -0.22402  -0.19974
 Alpha  occ. eigenvalues --   -0.19403
 Alpha virt. eigenvalues --   -0.10715  -0.07900  -0.04244  -0.02312  -0.02061
 Alpha virt. eigenvalues --    0.00104   0.00888   0.01115   0.02339   0.02885
 Alpha virt. eigenvalues --    0.03576   0.03620   0.04362   0.04405   0.04845

 Mulliken charges:
               1
     1  C    0.051288
     2  C   -0.072208
     3  C   -0.092531
     4  C   -0.104497
     5  N   -0.116545
     6  C   -0.019288
     7  C   -0.177789
     8  C   -0.003563
     9  C   -0.025186
    10  C    0.138022
    11  C    0.029500
    12  C    0.143348
    13  C    0.124424
    14  O   -0.217954
    15  O   -0.329386
    16  N   -0.146954
    17  C    0.108725
    18  C   -0.164292
    19  C   -0.024207
    20  C    0.113656
    21  C    0.136677
    22  C    0.011930
    23  C   -0.027301
    24  N   -0.280341
    25  C    0.072784
    26  C   -0.154770
    27  C   -0.104694
    28  C    0.051273
    29  C    0.191497
    30  C    0.053204
    31  C    0.042218
    32  N   -0.002543
    33  C    0.107652
    34  C   -0.092971
    35  C    0.007355
    36  C   -0.011407
    37  C   -0.047345
    38  C    0.072963
    39  O   -0.147010
    40  C   -0.067059
    41  C    0.177703
    42  O   -0.239521
    43  O   -0.291073
    44  C    0.093403
    45  C    0.318004
    46  C   -0.174303
    47  C   -0.075626
    48  C    0.072553
    49  C    0.044910
    50  C   -0.043891
    51  C   -0.007874
    52  C   -0.038163
    53  C   -0.050976
    54  C   -0.035427
    55  C    0.089939
    56  C   -0.008113
    57  C   -0.144115
    58  C    0.053003
    59  C    0.026390
    60  C    0.133361
    61  C   -0.057526
    62  C   -0.045779
    63  C   -0.056427
    64  C    0.054836
    65  H   -0.014115
    66  H   -0.014903
    67  H   -0.001508
    68  H    0.029763
    69  H   -0.011222
    70  H    0.010771
    71  H   -0.008469
    72  H    0.013412
    73  H    0.027386
    74  H    0.020031
    75  H   -0.003326
    76  H    0.009821
    77  H    0.041344
    78  H    0.018109
    79  H    0.021624
    80  H   -0.019408
    81  H    0.021394
    82  H    0.022048
    83  H   -0.004212
    84  H   -0.031503
    85  H    0.018508
    86  H   -0.004212
    87  H    0.024856
    88  H    0.006863
    89  H   -0.019808
    90  H    0.015279
    91  H    0.050692
    92  H    0.063138
    93  H    0.064066
    94  H    0.036413
    95  H    0.071835
    96  H    0.072100
    97  H    0.063434
    98  H   -0.021673
    99  H    0.011847
   100  H    0.027015
   101  H    0.008919
   102  H    0.023308
   103  H    0.014975
   104  H    0.014555
   105  H    0.012804
   106  H    0.035021
   107  H    0.038204
   108  H    0.012949
   109  H   -0.017941
   110  H   -0.000991
   111  H    0.009481
   112  H    0.016726
   113  H    0.005781
   114  H    0.022624
   115  H    0.021245
   116  H   -0.008278
   117  H    0.016151
   118  H   -0.006350
   119  H   -0.001389
   120  H    0.012420
   121  H    0.007569
   122  H    0.036138
   123  H   -0.029870
   124  H   -0.006209
   125  H   -0.018588
   126  H   -0.042985
   127  H    0.001669
   128  H    0.004937
   129  H   -0.022567
   130  H   -0.009058
   131  H    0.030410
   132  H    0.034520
   133  H    0.004368
   134  H   -0.056042
   135  H    0.032387
   136  H   -0.005864
   137  H    0.210616
   138  H    0.169001
 Sum of Mulliken charges =  -0.00000

 Dipole moment (field-independent basis, Debye):
    X=              1.5411    Y=              4.2155    Z=              0.8338  Tot=              4.5652
 Quadrupole moment (field-independent basis, Debye-Ang):
   XX=           -368.1571   YY=           -381.9937   ZZ=           -398.1017
   XY=            -37.0474   XZ=             18.0448   YZ=             -1.4911

 Normal termination of Gaussian 16 at Mon Aug 19 18:49:40 2019.
