 Gaussian 16, Revision A.03,
 Gaussian 16:  ES64L-G16RevA.03 25-Dec-2016

 --------------------------
 # td=(NStates=1) B3LYP/SVP
 --------------------------

 --
 TD
 --
 Symbolic Z-matrix:
 Charge =  0 Multiplicity = 1

                         Standard orientation:
 ---------------------------------------------------------------------
 Center     Atomic      Atomic             Coordinates (Angstroms)
 Number     Number       Type             X           Y           Z
 ---------------------------------------------------------------------
      1          6           0       -5.173612   -2.061682    0.573489
      2          6           0       -4.592277    2.769121    1.473111
      3          6           0       -9.127591    3.410631   -0.284192
      4          6           0       -9.754816   -1.357083   -1.159137
      5          7           0       -5.195024    0.369400    0.867698
      6          6           0       -4.569958   -0.889720    0.939001
      7          6           0       -3.129624   -0.777252    1.443666
      8          6           0       -3.170519    0.741423    2.132989
      9          6           0       -4.411597    1.393122    1.419509
     10          6           0       -3.190055    0.610150    3.556905
     11          6           0       -2.119162   -0.840152    0.231875
     12          6           0       -0.693281   -0.907183    0.695427
     13          6           0        0.174142   -1.115136   -0.471590
     14          8           0       -0.062234   -1.254503   -1.694559
     15          8           0        1.513515   -0.921789   -0.076380
     16          7           0       -6.938629    2.779068    0.534603
     17          6           0       -5.778353    3.318965    1.163666
     18          6           0       -6.069712    4.780429    1.296254
     19          6           0       -7.346195    4.995137    0.632753
     20          6           0       -7.812290    3.650146    0.224655
     21          6           0       -5.092678    5.708194    1.897791
     22          6           0       -7.983566    6.330363    0.512176
     23          6           0       -8.743569    6.790747   -0.411433
     24          7           0       -9.011955    0.979356   -0.713869
     25          6           0       -9.736197    2.167933   -0.592624
     26          6           0      -11.032021    2.099516   -1.148366
     27          6           0      -11.271474    0.801066   -1.437647
     28          6           0       -9.920498    0.074892   -1.073069
     29          6           0      -12.029527    3.197675   -1.245858
     30          6           0      -12.475453    0.107497   -2.040125
     31          6           0      -12.554994   -0.284559   -3.515839
     32          7           0       -7.464827   -1.199735   -0.357771
     33          6           0       -8.580553   -1.927057   -0.855480
     34          6           0       -8.235108   -3.340023   -0.661999
     35          6           0       -6.900533   -3.370671   -0.338363
     36          6           0       -6.578677   -2.121798    0.071228
     37          6           0       -9.042442   -4.685842   -1.100269
     38          6           0       -5.848369   -4.263638    0.016547
     39          8           0       -5.825240   -5.418210   -0.170540
     40          6           0       -4.669187   -3.418075    0.463159
     41          6           0       -3.997798   -3.934990    1.737231
     42          8           0       -4.270184   -3.583216    2.818574
     43          8           0       -3.390437   -5.138761    1.395895
     44          6           0       -2.865659   -5.748425    2.598537
     45          6           0        2.532044   -0.876659   -1.097209
     46          6           0        3.952276   -0.752088   -0.455449
     47          6           0        4.958952    0.145129   -0.836187
     48          6           0        4.796828    0.948431   -1.985502
     49          6           0        6.223940    0.231966    0.000725
     50          6           0        7.330492   -0.260163   -0.856609
     51          6           0        8.714523   -0.199918   -0.149363
     52          6           0       10.029459   -0.735699   -0.862821
     53          6           0        9.951633   -2.181075   -1.019589
     54          6           0       11.214917   -0.302549   -0.045876
     55          6           0       12.674468   -0.659186   -0.642128
     56          6           0       13.837006   -0.124128    0.180808
     57          6           0       15.248494   -0.273437   -0.527284
     58          6           0       15.706658   -1.690061   -0.666362
     59          6           0       16.230271    0.538777    0.388904
     60          6           0       17.643918    0.562653   -0.181835
     61          6           0       18.662097    1.592850    0.545269
     62          6           0       20.164138    1.632789    0.056693
     63          6           0       20.249609    2.224323   -1.454351
     64          6           0       20.893134    2.625636    0.994471
     65          1           0       -3.671552    3.438661    1.660244
     66          1           0       -9.725798    4.296820   -0.441576
     67          1           0      -10.736552   -1.985680   -1.527419
     68          1           0       -2.833162   -1.771406    2.263655
     69          1           0       -2.179997    1.454260    1.903924
     70          1           0       -2.299360    0.120456    3.895564
     71          1           0       -2.971891    1.720217    3.877973
     72          1           0       -3.962055    0.035591    3.807714
     73          1           0       -2.337650   -1.632756   -0.489179
     74          1           0       -2.331494   -0.146835   -0.570974
     75          1           0       -0.396243    0.032511    1.314327
     76          1           0       -0.568469   -1.857990    1.501524
     77          1           0       -4.059614    5.555482    1.354835
     78          1           0       -5.578660    6.583012    1.665132
     79          1           0       -5.086938    5.626579    2.990380
     80          1           0       -7.714661    6.967719    1.423300
     81          1           0       -9.083255    6.195903   -1.378106
     82          1           0       -9.086090    7.709238   -0.497115
     83          1           0      -11.791082    3.820697   -0.323644
     84          1           0      -11.827975    4.064974   -2.355916
     85          1           0      -13.065239    2.927435   -1.141450
     86          1           0      -12.687804   -0.895338   -1.393911
     87          1           0      -13.297706    0.649922   -1.780321
     88          1           0      -12.384998    0.681626   -4.148231
     89          1           0      -11.961046   -1.195674   -3.726594
     90          1           0      -13.563006   -0.597787   -3.912406
     91          1           0      -10.057174   -4.279338   -0.627810
     92          1           0       -9.193982   -4.787224   -2.247861
     93          1           0       -8.591132   -5.533544   -0.435511
     94          1           0       -4.035833   -3.527103   -0.405675
     95          1           0       -2.589379   -6.852065    2.021835
     96          1           0       -1.768569   -5.282535    3.074084
     97          1           0       -3.630295   -5.601243    3.607494
     98          1           0        2.501360   -1.855542   -1.689794
     99          1           0        2.023458   -0.057479   -1.875818
    100          1           0        4.180862   -1.266666    0.467065
    101          1           0        5.107749    1.987852   -1.813360
    102          1           0        5.644070    0.606761   -2.591443
    103          1           0        3.806293    1.018657   -2.496179
    104          1           0        6.365662    1.253202    0.339841
    105          1           0        6.006271   -0.460250    1.175127
    106          1           0        7.273046   -1.400045   -1.302093
    107          1           0        7.409937    0.435862   -1.702579
    108          1           0        8.882093    0.760345   -0.054232
    109          1           0        8.687429   -0.696194    0.905350
    110          1           0       10.139819   -0.147550   -1.699565
    111          1           0        9.150777   -2.635783   -1.739580
    112          1           0       10.885990   -2.675738   -1.443596
    113          1           0        9.671135   -2.537079   -0.001023
    114          1           0       11.344057    0.714406    0.063661
    115          1           0       11.227383   -0.651370    0.853883
    116          1           0       12.778619   -1.778778   -0.710420
    117          1           0       12.743206   -0.343133   -1.664957
    118          1           0       13.664503    0.970268    0.285830
    119          1           0       13.812295   -0.509878    1.128848
    120          1           0       15.187846    0.217124   -1.559575
    121          1           0       15.088452   -2.307784   -1.341476
    122          1           0       16.703355   -1.722453   -1.243313
    123          1           0       15.866017   -2.059280    0.248473
    124          1           0       15.777267    1.514416    0.768498
    125          1           0       16.328896   -0.222069    1.172916
    126          1           0       18.068890   -0.437572   -0.148301
    127          1           0       17.587314    0.893166   -1.233693
    128          1           0       18.272286    2.544836    0.347558
    129          1           0       18.672428    1.149080    1.468098
    130          1           0       20.684492    0.625444   -0.009022
    131          1           0       20.079426    3.368818   -1.545018
    132          1           0       21.298146    2.139677   -1.890665
    133          1           0       19.575274    1.746447   -2.176643
    134          1           0       21.092725    2.074813    2.010245
    135          1           0       22.055531    2.590538    0.645192
    136          1           0       20.513239    3.529108    1.272780
    137          1           0       -7.025049    1.793185    0.533036
    138          1           0       -7.664136   -0.176617    0.007412
 ---------------------------------------------------------------------

 SCF Done:  E(RB3LYP) =  -2732.95550114     A.U. after   17 cycles

 Excitation energies and oscillator strengths:

 Excited State   1:      Singlet-A      1.9443 eV  637.67 nm  f=0.1939  <S**2>=0.000
     235 -> 237       -0.14095
     235 -> 238       -0.23145
     236 -> 237        0.64271
     236 -> 238       -0.11929
 This state for optimization and/or second-order correction.
 Total Energy, E(TD-HF/TD-DFT) =  -2732.88404851
 Copying the excited state density for this state as the 1-particle RhoCI density.

 The electronic state is 1-A.
 Alpha  occ. eigenvalues --  -19.18408 -19.16133 -19.14399 -19.12986 -19.12054
 Alpha  occ. eigenvalues --  -14.37431 -14.36623 -14.32757 -14.30831 -10.32047
 Alpha  occ. eigenvalues --  -10.31944 -10.28000 -10.27079 -10.25653 -10.24110
 Alpha  occ. eigenvalues --  -10.23760 -10.23559 -10.23187 -10.23001 -10.22972
 Alpha  occ. eigenvalues --  -10.22483 -10.22202 -10.22076 -10.21923 -10.21736
 Alpha  occ. eigenvalues --  -10.21607 -10.21549 -10.21370 -10.21346 -10.21323
 Alpha  occ. eigenvalues --  -10.21291 -10.20984 -10.20920 -10.20608 -10.20366
 Alpha  occ. eigenvalues --  -10.20326 -10.20127 -10.20032 -10.19934 -10.19900
 Alpha  occ. eigenvalues --  -10.19815 -10.19706 -10.19552 -10.19211 -10.19168
 Alpha  occ. eigenvalues --  -10.19076 -10.18880 -10.18722 -10.18524 -10.18489
 Alpha  occ. eigenvalues --  -10.18477 -10.18388 -10.18352 -10.18155 -10.17837
 Alpha  occ. eigenvalues --  -10.17682 -10.17609 -10.17608 -10.17541 -10.17422
 Alpha  occ. eigenvalues --  -10.17315 -10.17271 -10.17155 -10.15996  -1.10647
 Alpha  occ. eigenvalues --   -1.06536  -1.05494  -1.02705  -0.99691  -0.98224
 Alpha  occ. eigenvalues --   -0.98010  -0.93706  -0.91599  -0.86197  -0.83203
 Alpha  occ. eigenvalues --   -0.82204  -0.81950  -0.81456  -0.80989  -0.80621
 Alpha  occ. eigenvalues --   -0.80250  -0.79409  -0.78959  -0.78601  -0.78311
 Alpha  occ. eigenvalues --   -0.77068  -0.76395  -0.76239  -0.74751  -0.74436
 Alpha  occ. eigenvalues --   -0.73296  -0.72320  -0.72137  -0.71855  -0.71431
 Alpha  occ. eigenvalues --   -0.69094  -0.68281  -0.67883  -0.67818  -0.67617
 Alpha  occ. eigenvalues --   -0.66839  -0.66438  -0.66307  -0.65750  -0.64571
 Alpha  occ. eigenvalues --   -0.63923  -0.63103  -0.61900  -0.61628  -0.61436
 Alpha  occ. eigenvalues --   -0.60705  -0.58498  -0.58242  -0.57533  -0.57139
 Alpha  occ. eigenvalues --   -0.56330  -0.56111  -0.55260  -0.55158  -0.54997
 Alpha  occ. eigenvalues --   -0.54982  -0.54571  -0.54182  -0.53485  -0.52801
 Alpha  occ. eigenvalues --   -0.52487  -0.51940  -0.51251  -0.50981  -0.50419
 Alpha  occ. eigenvalues --   -0.49760  -0.48942  -0.48865  -0.48770  -0.48268
 Alpha  occ. eigenvalues --   -0.48232  -0.47913  -0.47456  -0.47272  -0.47150
 Alpha  occ. eigenvalues --   -0.46849  -0.46606  -0.46217  -0.45978  -0.45954
 Alpha  occ. eigenvalues --   -0.45536  -0.45394  -0.45171  -0.44679  -0.44641
 Alpha  occ. eigenvalues --   -0.44366  -0.44217  -0.43956  -0.43642  -0.43569
 Alpha  occ. eigenvalues --   -0.43501  -0.43148  -0.43061  -0.42860  -0.42534
 Alpha  occ. eigenvalues --   -0.42369  -0.42278  -0.42125  -0.41806  -0.41423
 Alpha  occ. eigenvalues --   -0.41263  -0.40956  -0.40757  -0.40652  -0.40405
 Alpha  occ. eigenvalues --   -0.40108  -0.39939  -0.39884  -0.39817  -0.39573
 Alpha  occ. eigenvalues --   -0.39429  -0.39309  -0.39175  -0.38885  -0.38794
 Alpha  occ. eigenvalues --   -0.38673  -0.38070  -0.37745  -0.37551  -0.37198
 Alpha  occ. eigenvalues --   -0.37136  -0.36745  -0.36675  -0.36608  -0.36409
 Alpha  occ. eigenvalues --   -0.35965  -0.35773  -0.35727  -0.35663  -0.35397
 Alpha  occ. eigenvalues --   -0.35188  -0.35089  -0.34590  -0.34541  -0.34418
 Alpha  occ. eigenvalues --   -0.34259  -0.34028  -0.33909  -0.33874  -0.33729
 Alpha  occ. eigenvalues --   -0.33243  -0.32903  -0.32808  -0.32611  -0.32361
 Alpha  occ. eigenvalues --   -0.32195  -0.32021  -0.31790  -0.31408  -0.31335
 Alpha  occ. eigenvalues --   -0.31333  -0.30790  -0.30463  -0.29952  -0.29869
 Alpha  occ. eigenvalues --   -0.29410  -0.29108  -0.28795  -0.28668  -0.27919
 Alpha  occ. eigenvalues --   -0.27812  -0.27125  -0.26680  -0.26497  -0.25564
 Alpha  occ. eigenvalues --   -0.25173  -0.24204  -0.23483  -0.22875  -0.20471
 Alpha  occ. eigenvalues --   -0.18222
 Alpha virt. eigenvalues --   -0.10429  -0.07818  -0.03961  -0.02417  -0.01846
 Alpha virt. eigenvalues --   -0.00960   0.00161   0.00323   0.01307   0.02356
 Alpha virt. eigenvalues --    0.03141   0.03386   0.03756   0.03825   0.04660

 Mulliken charges:
               1
     1  C    0.017888
     2  C   -0.128683
     3  C   -0.083937
     4  C   -0.126470
     5  N   -0.234746
     6  C   -0.047517
     7  C   -0.150290
     8  C   -0.140089
     9  C    0.058023
    10  C    0.202876
    11  C    0.065201
    12  C   -0.003826
    13  C    0.229159
    14  O   -0.265347
    15  O   -0.353503
    16  N    0.040408
    17  C    0.145997
    18  C   -0.200057
    19  C   -0.022270
    20  C    0.050341
    21  C    0.149584
    22  C   -0.025923
    23  C   -0.010274
    24  N   -0.249159
    25  C    0.097700
    26  C   -0.092061
    27  C   -0.080606
    28  C    0.005357
    29  C    0.004467
    30  C    0.069551
    31  C    0.002158
    32  N   -0.088717
    33  C    0.128857
    34  C   -0.178026
    35  C    0.005001
    36  C    0.056496
    37  C    0.004880
    38  C    0.016750
    39  O   -0.117975
    40  C    0.047041
    41  C    0.194611
    42  O   -0.170843
    43  O   -0.296528
    44  C    0.018084
    45  C    0.192631
    46  C   -0.046299
    47  C   -0.178477
    48  C    0.123909
    49  C    0.033717
    50  C   -0.008946
    51  C    0.035160
    52  C    0.037860
    53  C    0.016673
    54  C    0.110270
    55  C    0.012265
    56  C    0.066182
    57  C   -0.119860
    58  C    0.075511
    59  C    0.028687
    60  C   -0.000030
    61  C    0.101089
    62  C   -0.097055
    63  C   -0.033242
    64  C    0.024800
    65  H    0.023395
    66  H   -0.035750
    67  H    0.041326
    68  H    0.057401
    69  H    0.001120
    70  H   -0.007768
    71  H    0.007861
    72  H   -0.011733
    73  H   -0.002366
    74  H   -0.000598
    75  H    0.063496
    76  H    0.063004
    77  H    0.056062
    78  H   -0.020695
    79  H    0.033929
    80  H    0.022647
    81  H    0.043043
    82  H   -0.022901
    83  H    0.031857
    84  H    0.035100
    85  H    0.019389
    86  H    0.007174
    87  H   -0.041619
    88  H    0.030601
    89  H    0.018740
    90  H    0.009871
    91  H    0.036363
    92  H    0.070839
    93  H    0.075287
    94  H    0.050729
    95  H    0.076455
    96  H    0.045853
    97  H    0.090134
    98  H    0.032466
    99  H    0.048374
   100  H   -0.017721
   101  H   -0.007135
   102  H    0.013664
   103  H    0.025464
   104  H    0.008859
   105  H    0.021661
   106  H    0.030273
   107  H    0.003852
   108  H   -0.062604
   109  H    0.001950
   110  H   -0.051961
   111  H    0.016383
   112  H    0.018598
   113  H    0.003026
   114  H   -0.042025
   115  H   -0.072313
   116  H   -0.004250
   117  H   -0.025308
   118  H   -0.016027
   119  H   -0.035210
   120  H   -0.007244
   121  H    0.011845
   122  H    0.011931
   123  H   -0.025870
   124  H    0.011382
   125  H   -0.018680
   126  H   -0.002894
   127  H   -0.011038
   128  H   -0.010213
   129  H   -0.021079
   130  H    0.008527
   131  H    0.011347
   132  H    0.009058
   133  H    0.014967
   134  H    0.000425
   135  H    0.015021
   136  H    0.002739
   137  H    0.119865
   138  H    0.203220
 Sum of Mulliken charges =  -0.00000

 Dipole moment (field-independent basis, Debye):
    X=              1.2015    Y=              4.5974    Z=              1.7253  Tot=              5.0553
 Quadrupole moment (field-independent basis, Debye-Ang):
   XX=           -346.2150   YY=           -384.2191   ZZ=           -395.7477
   XY=            -22.5644   XZ=              4.5969   YZ=              0.7334

 Normal termination of Gaussian 16 at Wed Aug 21 03:49:33 2019.
