 Gaussian 16, Revision A.03,
 Gaussian 16:  ES64L-G16RevA.03 25-Dec-2016

 --------------------------
 # td=(NStates=1) B3LYP/SVP
 --------------------------

 --
 TD
 --
 Symbolic Z-matrix:
 Charge =  0 Multiplicity = 1

                         Standard orientation:
 ---------------------------------------------------------------------
 Center     Atomic      Atomic             Coordinates (Angstroms)
 Number     Number       Type             X           Y           Z
 ---------------------------------------------------------------------
      1          6           0       -5.222900   -1.919096    0.246697
      2          6           0       -4.630874    2.756512    1.487187
      3          6           0       -9.279301    3.524098   -0.179689
      4          6           0       -9.834049   -1.174802   -1.011125
      5          7           0       -5.174995    0.470165    0.594071
      6          6           0       -4.531134   -0.819101    0.730569
      7          6           0       -3.297260   -0.768480    1.385534
      8          6           0       -3.156047    0.811675    1.873151
      9          6           0       -4.333988    1.346234    1.247001
     10          6           0       -3.156186    0.781021    3.488164
     11          6           0       -1.996986   -0.912856    0.311176
     12          6           0       -0.523903   -1.090850    0.913534
     13          6           0        0.424638   -1.445356   -0.188372
     14          8           0        0.153148   -1.735940   -1.398740
     15          8           0        1.627889   -1.110834    0.083075
     16          7           0       -6.941538    2.851234    0.382357
     17          6           0       -5.818031    3.379643    1.049198
     18          6           0       -6.034167    4.791458    1.079615
     19          6           0       -7.322666    5.040947    0.806890
     20          6           0       -7.879642    3.802871    0.204100
     21          6           0       -4.953122    5.790207    1.371775
     22          6           0       -7.891593    6.304794    0.678372
     23          6           0       -8.960485    6.717923   -0.220875
     24          7           0       -9.220774    1.107541   -0.598225
     25          6           0       -9.803934    2.259416   -0.590146
     26          6           0      -11.274632    2.062812   -1.091843
     27          6           0      -11.366072    0.719072   -1.231094
     28          6           0      -10.176626    0.142444   -0.898104
     29          6           0      -12.319297    3.131169   -1.161649
     30          6           0      -12.602651    0.082686   -1.848196
     31          6           0      -12.622352   -0.052120   -3.436289
     32          7           0       -7.585430   -1.180532   -0.454366
     33          6           0       -8.648631   -1.948747   -0.788224
     34          6           0       -8.287921   -3.334783   -0.736537
     35          6           0       -6.967063   -3.329071   -0.499856
     36          6           0       -6.501663   -2.022466   -0.196812
     37          6           0       -9.196596   -4.553854   -1.058682
     38          6           0       -5.937754   -4.291127   -0.121523
     39          8           0       -5.930635   -5.481485   -0.145264
     40          6           0       -4.759840   -3.449377    0.353458
     41          6           0       -4.010182   -3.978241    1.698198
     42          8           0       -4.223490   -3.533085    2.782480
     43          8           0       -3.298511   -5.042676    1.338775
     44          6           0       -2.595780   -5.703685    2.533640
     45          6           0        2.744953   -1.306834   -0.887503
     46          6           0        4.004759   -0.915353   -0.297751
     47          6           0        4.972514   -0.127425   -0.897103
     48          6           0        4.802716    0.632787   -2.129052
     49          6           0        6.316542    0.023075   -0.161170
     50          6           0        7.510263   -0.441832   -0.851853
     51          6           0        8.780356   -0.459231    0.037813
     52          6           0       10.200144   -0.713081   -0.630648
     53          6           0       10.131380   -2.133359   -0.957999
     54          6           0       11.371749   -0.334211    0.250566
     55          6           0       12.676996   -0.619152   -0.421977
     56          6           0       13.874134    0.171884    0.211257
     57          6           0       15.247194   -0.015312   -0.374875
     58          6           0       15.425644   -1.570190   -0.549933
     59          6           0       16.328825    0.701895    0.383589
     60          6           0       17.699621    0.879208   -0.393749
     61          6           0       18.650131    1.662920    0.382205
     62          6           0       20.132111    1.779851   -0.285302
     63          6           0       20.114494    2.357933   -1.520245
     64          6           0       20.961967    2.506185    0.841276
     65          1           0       -3.884624    3.319015    1.978523
     66          1           0       -9.947486    4.338037   -0.076209
     67          1           0      -10.750116   -1.819293   -1.373597
     68          1           0       -2.986335   -1.505824    2.111034
     69          1           0       -2.286249    1.283616    1.625436
     70          1           0       -2.333639    0.067795    3.904913
     71          1           0       -3.094531    1.771384    3.877801
     72          1           0       -3.958401    0.319396    3.853794
     73          1           0       -2.065975   -1.894267   -0.247782
     74          1           0       -1.995516   -0.283202   -0.567974
     75          1           0        0.058609   -0.308623    1.509742
     76          1           0       -0.455758   -1.931383    1.524809
     77          1           0       -4.113873    5.725898    0.554943
     78          1           0       -5.331239    6.705605    1.311815
     79          1           0       -4.363822    5.868176    2.433447
     80          1           0       -7.471829    7.176436    1.207334
     81          1           0       -9.174309    6.132821   -1.044940
     82          1           0       -9.421112    7.794215   -0.001245
     83          1           0      -12.559946    3.574699   -0.068935
     84          1           0      -11.761322    4.071769   -1.763156
     85          1           0      -13.205482    2.904970   -1.522843
     86          1           0      -12.635601   -1.025619   -1.361652
     87          1           0      -13.464836    0.518200   -1.427361
     88          1           0      -12.127098    0.970676   -3.607815
     89          1           0      -11.986865   -0.934475   -3.727093
     90          1           0      -13.517527   -0.315212   -4.116803
     91          1           0      -10.098773   -4.551239   -0.517632
     92          1           0       -9.319103   -4.492792   -2.219823
     93          1           0       -8.828165   -5.474635   -0.827604
     94          1           0       -3.980999   -3.625291   -0.466758
     95          1           0       -2.251732   -6.600793    2.136060
     96          1           0       -1.966281   -4.982805    3.153955
     97          1           0       -3.424542   -5.972914    3.302549
     98          1           0        2.800388   -2.344502   -1.097976
     99          1           0        2.611545   -0.949234   -1.962844
    100          1           0        4.219394   -1.501916    0.627202
    101          1           0        4.986242    1.702673   -2.303158
    102          1           0        5.492391    0.298488   -3.032100
    103          1           0        3.887445    0.685007   -2.538253
    104          1           0        6.420302    1.065093    0.235271
    105          1           0        6.211240   -0.536024    0.793825
    106          1           0        7.333176   -1.460383   -1.439910
    107          1           0        7.800743    0.226421   -1.806328
    108          1           0        8.826234    0.513878    0.459502
    109          1           0        8.613937   -1.218346    0.878163
    110          1           0        9.995640   -0.250668   -1.528761
    111          1           0        9.474275   -2.424922   -1.619926
    112          1           0       11.213464   -2.429706   -1.271958
    113          1           0        9.929544   -2.778444   -0.031074
    114          1           0       11.100115    0.643024    0.355626
    115          1           0       11.242760   -0.715014    1.317402
    116          1           0       12.713337   -1.698197   -0.429830
    117          1           0       12.703611   -0.188575   -1.318990
    118          1           0       13.728908    1.304703    0.232926
    119          1           0       14.104793   -0.047479    1.236414
    120          1           0       14.983964    0.271794   -1.318107
    121          1           0       14.775215   -1.924175   -1.370371
    122          1           0       16.511921   -1.646605   -0.772938
    123          1           0       15.280420   -2.082487    0.597893
    124          1           0       15.804248    1.746201    0.556187
    125          1           0       16.505739    0.393605    1.421525
    126          1           0       18.238119   -0.247108   -0.470005
    127          1           0       17.334882    1.283152   -1.275056
    128          1           0       18.285783    2.597873    0.787620
    129          1           0       18.562899    1.180714    1.268143
    130          1           0       20.396996    0.727875   -0.267686
    131          1           0       19.993577    3.447068   -1.534501
    132          1           0       21.206801    2.014526   -2.079315
    133          1           0       19.329319    1.792600   -2.242213
    134          1           0       20.862607    2.078975    2.025582
    135          1           0       22.147791    2.488545    0.482902
    136          1           0       20.905659    3.651012    0.761236
    137          1           0       -7.157493    1.844102    0.404675
    138          1           0       -7.708309   -0.228950   -0.707947
 ---------------------------------------------------------------------

 SCF Done:  E(RB3LYP) =  -2732.97805971     A.U. after   17 cycles

 Excitation energies and oscillator strengths:

 Excited State   1:      Singlet-A      1.9531 eV  634.82 nm  f=0.1715  <S**2>=0.000
     235 -> 238        0.27881
     236 -> 237        0.64444
 This state for optimization and/or second-order correction.
 Total Energy, E(TD-HF/TD-DFT) =  -2732.90628634
 Copying the excited state density for this state as the 1-particle RhoCI density.

 The electronic state is 1-A.
 Alpha  occ. eigenvalues --  -19.19009 -19.18186 -19.13183 -19.11301 -19.10199
 Alpha  occ. eigenvalues --  -14.37061 -14.35942 -14.32679 -14.29373 -10.32205
 Alpha  occ. eigenvalues --  -10.30864 -10.26594 -10.26232 -10.25132 -10.24469
 Alpha  occ. eigenvalues --  -10.23661 -10.22784 -10.22686 -10.22597 -10.22450
 Alpha  occ. eigenvalues --  -10.21698 -10.21519 -10.21011 -10.20984 -10.20974
 Alpha  occ. eigenvalues --  -10.20881 -10.20718 -10.20613 -10.20594 -10.20524
 Alpha  occ. eigenvalues --  -10.20484 -10.20434 -10.20323 -10.20204 -10.20124
 Alpha  occ. eigenvalues --  -10.20022 -10.20012 -10.19983 -10.19915 -10.19854
 Alpha  occ. eigenvalues --  -10.19839 -10.19768 -10.19737 -10.19533 -10.19473
 Alpha  occ. eigenvalues --  -10.19457 -10.19248 -10.19171 -10.19053 -10.18979
 Alpha  occ. eigenvalues --  -10.18904 -10.18797 -10.18596 -10.18512 -10.18421
 Alpha  occ. eigenvalues --  -10.17709 -10.17698 -10.17667 -10.17656 -10.17633
 Alpha  occ. eigenvalues --  -10.17453 -10.17337 -10.16558 -10.16500  -1.10332
 Alpha  occ. eigenvalues --   -1.09528  -1.03273  -1.01622  -0.98389  -0.98122
 Alpha  occ. eigenvalues --   -0.96211  -0.94363  -0.92616  -0.84709  -0.83694
 Alpha  occ. eigenvalues --   -0.83033  -0.82736  -0.82329  -0.81038  -0.80488
 Alpha  occ. eigenvalues --   -0.79775  -0.79744  -0.79092  -0.78257  -0.77925
 Alpha  occ. eigenvalues --   -0.77053  -0.76351  -0.75616  -0.74347  -0.74251
 Alpha  occ. eigenvalues --   -0.73268  -0.72973  -0.72782  -0.72318  -0.70516
 Alpha  occ. eigenvalues --   -0.70423  -0.69707  -0.68954  -0.68534  -0.67593
 Alpha  occ. eigenvalues --   -0.67395  -0.66740  -0.66184  -0.65986  -0.65579
 Alpha  occ. eigenvalues --   -0.64019  -0.63453  -0.62922  -0.62187  -0.61839
 Alpha  occ. eigenvalues --   -0.61269  -0.59439  -0.58592  -0.57711  -0.57320
 Alpha  occ. eigenvalues --   -0.56766  -0.56539  -0.56503  -0.56085  -0.55947
 Alpha  occ. eigenvalues --   -0.55479  -0.55119  -0.54763  -0.54646  -0.53726
 Alpha  occ. eigenvalues --   -0.53118  -0.52039  -0.51577  -0.50660  -0.50093
 Alpha  occ. eigenvalues --   -0.49971  -0.49610  -0.48944  -0.48643  -0.48481
 Alpha  occ. eigenvalues --   -0.47972  -0.47697  -0.47542  -0.47481  -0.47043
 Alpha  occ. eigenvalues --   -0.46733  -0.46514  -0.46389  -0.45865  -0.45714
 Alpha  occ. eigenvalues --   -0.45451  -0.45420  -0.45052  -0.44703  -0.44517
 Alpha  occ. eigenvalues --   -0.44467  -0.44259  -0.44023  -0.43924  -0.43520
 Alpha  occ. eigenvalues --   -0.43384  -0.43353  -0.43181  -0.42923  -0.42586
 Alpha  occ. eigenvalues --   -0.42559  -0.42406  -0.42027  -0.41807  -0.41287
 Alpha  occ. eigenvalues --   -0.41123  -0.40791  -0.40651  -0.40448  -0.40237
 Alpha  occ. eigenvalues --   -0.40203  -0.39889  -0.39725  -0.39490  -0.39372
 Alpha  occ. eigenvalues --   -0.39234  -0.39142  -0.38980  -0.38793  -0.38529
 Alpha  occ. eigenvalues --   -0.38346  -0.38033  -0.37937  -0.37637  -0.37449
 Alpha  occ. eigenvalues --   -0.37377  -0.37132  -0.37094  -0.37042  -0.36508
 Alpha  occ. eigenvalues --   -0.36461  -0.36410  -0.36330  -0.36175  -0.35996
 Alpha  occ. eigenvalues --   -0.35898  -0.35785  -0.35578  -0.35169  -0.34984
 Alpha  occ. eigenvalues --   -0.34861  -0.34829  -0.34350  -0.34203  -0.33361
 Alpha  occ. eigenvalues --   -0.33239  -0.33231  -0.33093  -0.32645  -0.32493
 Alpha  occ. eigenvalues --   -0.32006  -0.31972  -0.31497  -0.31332  -0.31313
 Alpha  occ. eigenvalues --   -0.30836  -0.30751  -0.30096  -0.30074  -0.29789
 Alpha  occ. eigenvalues --   -0.29248  -0.28983  -0.28486  -0.27996  -0.27443
 Alpha  occ. eigenvalues --   -0.27436  -0.26441  -0.26318  -0.26069  -0.25801
 Alpha  occ. eigenvalues --   -0.24983  -0.24362  -0.22851  -0.22585  -0.19340
 Alpha  occ. eigenvalues --   -0.18234
 Alpha virt. eigenvalues --   -0.09910  -0.07535  -0.04612  -0.02864  -0.01995
 Alpha virt. eigenvalues --   -0.00277   0.00234   0.00521   0.01912   0.03397
 Alpha virt. eigenvalues --    0.03888   0.04370   0.04435   0.04738   0.04772

 Mulliken charges:
               1
     1  C    0.017489
     2  C   -0.077101
     3  C   -0.049694
     4  C   -0.115555
     5  N   -0.220276
     6  C    0.003383
     7  C   -0.044090
     8  C    0.023657
     9  C    0.034679
    10  C    0.086349
    11  C   -0.015981
    12  C    0.090395
    13  C    0.124817
    14  O   -0.319243
    15  O   -0.270357
    16  N   -0.053218
    17  C    0.133739
    18  C   -0.119903
    19  C    0.092294
    20  C    0.031375
    21  C    0.104067
    22  C   -0.134818
    23  C   -0.039616
    24  N   -0.199053
    25  C    0.030355
    26  C   -0.131839
    27  C   -0.088573
    28  C    0.089962
    29  C    0.079239
    30  C    0.045597
    31  C   -0.025192
    32  N   -0.014738
    33  C    0.003791
    34  C   -0.151241
    35  C   -0.025978
    36  C    0.119851
    37  C    0.159673
    38  C    0.069321
    39  O   -0.143944
    40  C   -0.068202
    41  C    0.196073
    42  O   -0.207228
    43  O   -0.300482
    44  C    0.169457
    45  C    0.281857
    46  C   -0.099557
    47  C   -0.082608
    48  C    0.078079
    49  C    0.103618
    50  C   -0.052061
    51  C    0.000051
    52  C   -0.054148
    53  C    0.078908
    54  C    0.112930
    55  C    0.131096
    56  C   -0.011371
    57  C   -0.024617
    58  C   -0.010654
    59  C   -0.017525
    60  C    0.046729
    61  C    0.060634
    62  C   -0.014077
    63  C   -0.004746
    64  C   -0.066054
    65  H   -0.039128
    66  H   -0.033287
    67  H   -0.000566
    68  H    0.003302
    69  H   -0.018723
    70  H    0.018400
    71  H    0.006342
    72  H   -0.012725
    73  H    0.026784
    74  H    0.015011
    75  H    0.040797
    76  H   -0.003528
    77  H    0.042061
    78  H   -0.042175
    79  H    0.040294
    80  H    0.011554
    81  H    0.020749
    82  H    0.051995
    83  H    0.042020
    84  H    0.039292
    85  H   -0.026451
    86  H   -0.001463
    87  H   -0.004915
    88  H    0.038348
    89  H    0.016456
    90  H    0.032557
    91  H    0.005963
    92  H    0.045696
    93  H   -0.005859
    94  H    0.066747
    95  H    0.039889
    96  H    0.058015
    97  H    0.048589
    98  H    0.006759
    99  H    0.036916
   100  H    0.005045
   101  H    0.008269
   102  H    0.025376
   103  H   -0.035809
   104  H    0.010360
   105  H   -0.013928
   106  H    0.015360
   107  H    0.003248
   108  H   -0.028784
   109  H    0.000151
   110  H   -0.044477
   111  H   -0.042163
   112  H   -0.008068
   113  H   -0.010681
   114  H   -0.051958
   115  H    0.000243
   116  H    0.028987
   117  H   -0.045784
   118  H   -0.010010
   119  H   -0.035131
   120  H   -0.051072
   121  H    0.030181
   122  H    0.000695
   123  H    0.015814
   124  H   -0.004476
   125  H   -0.005892
   126  H    0.021251
   127  H   -0.014891
   128  H   -0.034881
   129  H   -0.058558
   130  H   -0.008537
   131  H    0.020111
   132  H    0.018980
   133  H    0.034827
   134  H    0.050527
   135  H    0.004195
   136  H    0.017230
   137  H    0.158431
   138  H    0.124377
 Sum of Mulliken charges =  -0.00000

 Dipole moment (field-independent basis, Debye):
    X=              4.4858    Y=              3.6601    Z=              1.7567  Tot=              6.0502
 Quadrupole moment (field-independent basis, Debye-Ang):
   XX=           -380.3428   YY=           -378.3769   ZZ=           -390.7894
   XY=            -13.2724   XZ=              0.9577   YZ=             -5.8144

 Normal termination of Gaussian 16 at Sat Aug 10 05:53:57 2019.
