 Gaussian 16, Revision A.03,
 Gaussian 16:  ES64L-G16RevA.03 25-Dec-2016

 --------------------------
 # td=(NStates=1) B3LYP/SVP
 --------------------------

 --
 TD
 --
 Symbolic Z-matrix:
 Charge =  0 Multiplicity = 1

                         Standard orientation:
 ---------------------------------------------------------------------
 Center     Atomic      Atomic             Coordinates (Angstroms)
 Number     Number       Type             X           Y           Z
 ---------------------------------------------------------------------
      1          6           0       -5.121801   -1.983630    0.489023
      2          6           0       -4.592596    2.546004    1.507254
      3          6           0       -9.157955    3.441124   -0.173848
      4          6           0       -9.783779   -1.259562   -0.948174
      5          7           0       -5.183601    0.355797    0.903245
      6          6           0       -4.506696   -0.805328    0.766313
      7          6           0       -3.112572   -0.754637    1.296144
      8          6           0       -3.105975    0.634905    2.037714
      9          6           0       -4.314705    1.296900    1.451903
     10          6           0       -3.076199    0.447824    3.507890
     11          6           0       -2.153372   -0.867181    0.251791
     12          6           0       -0.679522   -0.847906    0.650159
     13          6           0        0.330144   -1.067225   -0.500514
     14          8           0        0.039670   -1.422302   -1.591395
     15          8           0        1.585632   -0.713646   -0.143731
     16          7           0       -6.889974    2.714177    0.481244
     17          6           0       -5.774665    3.237380    1.065789
     18          6           0       -6.086835    4.716345    1.186182
     19          6           0       -7.233260    5.016656    0.657843
     20          6           0       -7.839789    3.664578    0.247420
     21          6           0       -5.030402    5.710052    1.773992
     22          6           0       -7.717191    6.266328    0.408257
     23          6           0       -8.807025    6.771467   -0.217096
     24          7           0       -9.018075    0.998695   -0.509547
     25          6           0       -9.727969    2.169033   -0.612204
     26          6           0      -11.061116    2.118229   -1.114059
     27          6           0      -11.341664    0.751564   -1.229011
     28          6           0      -10.062930    0.139638   -0.915037
     29          6           0      -11.913935    3.376755   -1.419200
     30          6           0      -12.557446    0.130683   -1.814775
     31          6           0      -12.651181   -0.162913   -3.310955
     32          7           0       -7.503222   -1.295101   -0.184466
     33          6           0       -8.596198   -1.925817   -0.720560
     34          6           0       -8.243019   -3.390200   -0.712192
     35          6           0       -6.887542   -3.430955   -0.301135
     36          6           0       -6.459185   -2.095802    0.116645
     37          6           0       -9.073097   -4.539704   -1.155625
     38          6           0       -5.741859   -4.292342   -0.077823
     39          8           0       -5.750738   -5.512366   -0.310608
     40          6           0       -4.614107   -3.413619    0.403084
     41          6           0       -4.015467   -4.003077    1.666539
     42          8           0       -4.244907   -3.704930    2.760860
     43          8           0       -3.147057   -4.982616    1.282935
     44          6           0       -2.617531   -5.824799    2.392295
     45          6           0        2.622765   -1.140060   -1.067601
     46          6           0        3.905230   -0.652180   -0.368635
     47          6           0        4.900835    0.196897   -0.891706
     48          6           0        4.774075    0.993317   -2.163360
     49          6           0        6.164013    0.352734   -0.056684
     50          6           0        7.298848   -0.241097   -0.874108
     51          6           0        8.591999   -0.230240    0.018352
     52          6           0        9.986893   -0.779859   -0.712586
     53          6           0        9.849754   -2.240681   -0.958592
     54          6           0       11.222899   -0.461344    0.053379
     55          6           0       12.484356   -0.542351   -0.642849
     56          6           0       13.708873    0.012768    0.250867
     57          6           0       15.181168   -0.240997   -0.359214
     58          6           0       15.466775   -1.709928   -0.553486
     59          6           0       16.166613    0.595879    0.484238
     60          6           0       17.537418    0.769242   -0.294765
     61          6           0       18.409941    1.709173    0.505175
     62          6           0       19.988926    1.737254    0.015282
     63          6           0       20.167041    2.097515   -1.448857
     64          6           0       20.989474    2.497347    0.849033
     65          1           0       -3.899240    3.313478    1.963157
     66          1           0       -9.906860    4.310467   -0.141786
     67          1           0      -10.507181   -1.935880   -1.723048
     68          1           0       -2.829589   -1.481942    2.033342
     69          1           0       -2.285768    1.290200    1.700005
     70          1           0       -2.252951   -0.111453    3.727435
     71          1           0       -3.069005    1.199142    4.049605
     72          1           0       -4.189748   -0.053267    3.836666
     73          1           0       -2.259765   -1.970845   -0.192435
     74          1           0       -2.125970   -0.121396   -0.423582
     75          1           0       -0.403128   -0.022638    1.126245
     76          1           0       -0.507508   -1.604333    1.354887
     77          1           0       -4.068054    5.387275    1.222285
     78          1           0       -5.411568    6.896440    1.521384
     79          1           0       -5.023129    5.622470    2.862330
     80          1           0       -7.137665    7.061061    1.063839
     81          1           0       -9.651683    6.186137   -0.907421
     82          1           0       -9.093063    7.960270   -0.313789
     83          1           0      -11.811261    4.161842   -0.577519
     84          1           0      -11.136390    3.789629   -2.525036
     85          1           0      -12.909058    3.058076   -1.501089
     86          1           0      -12.904886   -0.870302   -1.151339
     87          1           0      -13.297748    0.817298   -1.560464
     88          1           0      -12.681150    0.944317   -3.908550
     89          1           0      -11.661665   -0.747618   -3.735467
     90          1           0      -13.563901   -0.372521   -3.514859
     91          1           0      -10.039522   -4.663556   -0.854040
     92          1           0       -9.326012   -4.467719   -2.341244
     93          1           0       -8.543509   -5.495043   -1.103722
     94          1           0       -3.628388   -3.437713   -0.180772
     95          1           0       -2.021377   -6.556824    1.832284
     96          1           0       -2.032599   -5.226605    2.979483
     97          1           0       -3.395593   -6.330067    2.719734
     98          1           0        2.721061   -2.388245   -1.132336
     99          1           0        2.490920   -0.744355   -2.289369
    100          1           0        4.082555   -1.211737    0.569655
    101          1           0        4.636028    2.061747   -1.923932
    102          1           0        5.581694    0.757206   -2.963662
    103          1           0        3.828487    0.879501   -2.772037
    104          1           0        6.582500    1.329538    0.006737
    105          1           0        6.260003   -0.264324    0.797758
    106          1           0        7.068701   -1.227260   -1.229986
    107          1           0        7.641767    0.369634   -1.884266
    108          1           0        8.805161    0.820798    0.028332
    109          1           0        8.428511   -0.650459    1.009778
    110          1           0       10.071581   -0.424338   -1.876673
    111          1           0        8.750980   -2.426137   -1.361907
    112          1           0       10.901760   -2.341515   -1.655064
    113          1           0       10.183483   -2.856558   -0.046275
    114          1           0       11.165805    0.689248    0.353766
    115          1           0       11.495408   -0.946581    1.102185
    116          1           0       12.881927   -1.631466   -0.906627
    117          1           0       12.593010   -0.033279   -1.558502
    118          1           0       13.512552    1.213504    0.363207
    119          1           0       13.501607   -0.667709    1.131165
    120          1           0       15.379087    0.304588   -1.279088
    121          1           0       14.824224   -2.325309   -1.047967
    122          1           0       16.359634   -1.808710   -1.154706
    123          1           0       15.592833   -2.125140    0.429043
    124          1           0       15.874353    1.607646    0.561557
    125          1           0       16.310146    0.076190    1.287074
    126          1           0       18.301137   -0.130447   -0.248609
    127          1           0       17.444899    0.946741   -1.226548
    128          1           0       18.417316    2.853154    0.375620
    129          1           0       18.314503    1.389595    1.471172
    130          1           0       19.955816    0.631341    0.278443
    131          1           0       19.687175    3.168838   -1.446781
    132          1           0       20.979644    1.709850   -1.797764
    133          1           0       19.586897    1.563776   -2.073322
    134          1           0       20.764179    2.183198    1.936230
    135          1           0       21.973091    2.194226    0.455178
    136          1           0       20.855873    3.704116    0.777932
    137          1           0       -6.896135    1.703171    0.529124
    138          1           0       -7.568664   -0.175464   -0.370348
 ---------------------------------------------------------------------

 SCF Done:  E(RB3LYP) =  -2732.82769694     A.U. after   17 cycles

 Excitation energies and oscillator strengths:

 Excited State   1:      Singlet-A      2.0198 eV  613.84 nm  f=0.1541  <S**2>=0.000
     235 -> 237        0.15350
     235 -> 238       -0.30932
     236 -> 237        0.60211
     236 -> 238        0.12231
 This state for optimization and/or second-order correction.
 Total Energy, E(TD-HF/TD-DFT) =  -2732.75347026
 Copying the excited state density for this state as the 1-particle RhoCI density.

 The electronic state is 1-A.
 Alpha  occ. eigenvalues --  -19.18002 -19.16430 -19.12555 -19.12457 -19.11064
 Alpha  occ. eigenvalues --  -14.38125 -14.36222 -14.31885 -14.30744 -10.31210
 Alpha  occ. eigenvalues --  -10.30718 -10.27578 -10.27038 -10.24861 -10.24353
 Alpha  occ. eigenvalues --  -10.23100 -10.23065 -10.22887 -10.22599 -10.22319
 Alpha  occ. eigenvalues --  -10.22317 -10.22305 -10.22256 -10.21666 -10.21518
 Alpha  occ. eigenvalues --  -10.21375 -10.21224 -10.21168 -10.21150 -10.21050
 Alpha  occ. eigenvalues --  -10.20759 -10.20627 -10.20209 -10.20204 -10.20151
 Alpha  occ. eigenvalues --  -10.20073 -10.19969 -10.19908 -10.19741 -10.19661
 Alpha  occ. eigenvalues --  -10.19616 -10.19494 -10.19373 -10.19322 -10.19288
 Alpha  occ. eigenvalues --  -10.19226 -10.19221 -10.19128 -10.18910 -10.18888
 Alpha  occ. eigenvalues --  -10.18885 -10.18740 -10.18694 -10.18684 -10.18674
 Alpha  occ. eigenvalues --  -10.18594 -10.18568 -10.18067 -10.17739 -10.17703
 Alpha  occ. eigenvalues --  -10.17607 -10.16951 -10.16894 -10.16439  -1.09909
 Alpha  occ. eigenvalues --   -1.09643  -1.01428  -1.01217  -1.00329  -0.99005
 Alpha  occ. eigenvalues --   -0.97213  -0.94333  -0.92954  -0.85238  -0.83826
 Alpha  occ. eigenvalues --   -0.83012  -0.82586  -0.82012  -0.81091  -0.80971
 Alpha  occ. eigenvalues --   -0.79737  -0.79527  -0.79037  -0.78591  -0.78054
 Alpha  occ. eigenvalues --   -0.76981  -0.76403  -0.75578  -0.75233  -0.74618
 Alpha  occ. eigenvalues --   -0.73922  -0.73661  -0.73080  -0.72186  -0.70742
 Alpha  occ. eigenvalues --   -0.70521  -0.69514  -0.68949  -0.68833  -0.68177
 Alpha  occ. eigenvalues --   -0.67633  -0.67521  -0.65909  -0.65489  -0.64879
 Alpha  occ. eigenvalues --   -0.64599  -0.63714  -0.62632  -0.62177  -0.61669
 Alpha  occ. eigenvalues --   -0.61008  -0.59084  -0.58424  -0.58141  -0.57405
 Alpha  occ. eigenvalues --   -0.57356  -0.55880  -0.55364  -0.55159  -0.54871
 Alpha  occ. eigenvalues --   -0.54115  -0.54030  -0.53585  -0.53460  -0.52956
 Alpha  occ. eigenvalues --   -0.52513  -0.52239  -0.51276  -0.50739  -0.50506
 Alpha  occ. eigenvalues --   -0.50308  -0.50072  -0.49676  -0.49238  -0.48984
 Alpha  occ. eigenvalues --   -0.48389  -0.48315  -0.48120  -0.47473  -0.47175
 Alpha  occ. eigenvalues --   -0.46868  -0.46641  -0.46472  -0.46417  -0.46351
 Alpha  occ. eigenvalues --   -0.46146  -0.45525  -0.45306  -0.45095  -0.44984
 Alpha  occ. eigenvalues --   -0.44771  -0.44452  -0.44155  -0.43800  -0.43622
 Alpha  occ. eigenvalues --   -0.43531  -0.43152  -0.42850  -0.42603  -0.42534
 Alpha  occ. eigenvalues --   -0.42383  -0.42355  -0.42277  -0.42207  -0.41398
 Alpha  occ. eigenvalues --   -0.41197  -0.41071  -0.40738  -0.40672  -0.40645
 Alpha  occ. eigenvalues --   -0.40537  -0.40376  -0.39980  -0.39700  -0.39259
 Alpha  occ. eigenvalues --   -0.38988  -0.38807  -0.38620  -0.38506  -0.38238
 Alpha  occ. eigenvalues --   -0.38182  -0.37866  -0.37845  -0.37565  -0.37472
 Alpha  occ. eigenvalues --   -0.37391  -0.37210  -0.37018  -0.36712  -0.36604
 Alpha  occ. eigenvalues --   -0.36328  -0.36189  -0.36125  -0.35970  -0.35773
 Alpha  occ. eigenvalues --   -0.35540  -0.35401  -0.35144  -0.34909  -0.34712
 Alpha  occ. eigenvalues --   -0.34610  -0.34449  -0.34250  -0.33848  -0.33618
 Alpha  occ. eigenvalues --   -0.33579  -0.33132  -0.33086  -0.32761  -0.32231
 Alpha  occ. eigenvalues --   -0.32045  -0.31881  -0.31792  -0.31507  -0.31381
 Alpha  occ. eigenvalues --   -0.31149  -0.30989  -0.30807  -0.30806  -0.30307
 Alpha  occ. eigenvalues --   -0.28812  -0.28529  -0.28151  -0.28087  -0.27689
 Alpha  occ. eigenvalues --   -0.27605  -0.27257  -0.26223  -0.25131  -0.25057
 Alpha  occ. eigenvalues --   -0.24510  -0.24253  -0.24013  -0.22696  -0.19964
 Alpha  occ. eigenvalues --   -0.18601
 Alpha virt. eigenvalues --   -0.09990  -0.08452  -0.04055  -0.02324  -0.00750
 Alpha virt. eigenvalues --    0.00084   0.00877   0.01576   0.01908   0.02202
 Alpha virt. eigenvalues --    0.02883   0.03189   0.03647   0.04082   0.04298

 Mulliken charges:
               1
     1  C    0.065864
     2  C   -0.057325
     3  C   -0.116542
     4  C   -0.083163
     5  N   -0.212580
     6  C   -0.042037
     7  C   -0.026155
     8  C   -0.018930
     9  C    0.036797
    10  C    0.210156
    11  C    0.069898
    12  C    0.120532
    13  C    0.144910
    14  O   -0.196429
    15  O   -0.301004
    16  N   -0.001882
    17  C   -0.008972
    18  C   -0.141537
    19  C    0.119068
    20  C    0.096177
    21  C    0.021457
    22  C   -0.070974
    23  C   -0.163835
    24  N   -0.281954
    25  C    0.078060
    26  C   -0.149725
    27  C   -0.075709
    28  C    0.055778
    29  C    0.037699
    30  C    0.027095
    31  C    0.053627
    32  N   -0.092257
    33  C    0.011395
    34  C   -0.099428
    35  C   -0.003620
    36  C    0.053985
    37  C    0.095542
    38  C    0.099445
    39  O   -0.199585
    40  C   -0.051779
    41  C    0.147440
    42  O   -0.162998
    43  O   -0.362287
    44  C    0.291076
    45  C    0.126247
    46  C   -0.074467
    47  C   -0.118680
    48  C    0.038346
    49  C    0.195257
    50  C   -0.122291
    51  C    0.049654
    52  C   -0.090846
    53  C   -0.036222
    54  C    0.042722
    55  C   -0.020980
    56  C   -0.047170
    57  C   -0.081272
    58  C    0.108259
    59  C    0.160235
    60  C    0.036098
    61  C    0.025932
    62  C   -0.217654
    63  C    0.190147
    64  C    0.030086
    65  H   -0.022727
    66  H    0.000897
    67  H    0.034380
    68  H   -0.013272
    69  H   -0.019940
    70  H   -0.009863
    71  H   -0.074230
    72  H    0.036334
    73  H    0.031002
    74  H   -0.031734
    75  H   -0.031673
    76  H   -0.011013
    77  H    0.061448
    78  H    0.046070
    79  H    0.043010
    80  H    0.022223
    81  H    0.053732
    82  H    0.052684
    83  H    0.051493
    84  H    0.068739
    85  H    0.010438
    86  H    0.018599
    87  H   -0.025509
    88  H    0.000747
    89  H    0.057959
    90  H   -0.031259
    91  H   -0.003651
    92  H    0.024142
    93  H    0.035959
    94  H    0.068715
    95  H    0.023563
    96  H    0.016661
    97  H   -0.000382
    98  H    0.049559
    99  H    0.069655
   100  H    0.002917
   101  H    0.028560
   102  H    0.046689
   103  H    0.002252
   104  H   -0.013068
   105  H   -0.011864
   106  H   -0.003042
   107  H    0.018927
   108  H   -0.010424
   109  H    0.006270
   110  H    0.014527
   111  H    0.044525
   112  H    0.019988
   113  H    0.011027
   114  H   -0.004672
   115  H    0.008517
   116  H    0.005944
   117  H   -0.023541
   118  H    0.022158
   119  H    0.002723
   120  H   -0.026925
   121  H   -0.011966
   122  H   -0.005148
   123  H   -0.006742
   124  H   -0.001877
   125  H   -0.057494
   126  H   -0.006419
   127  H   -0.059657
   128  H   -0.005441
   129  H   -0.023734
   130  H   -0.010983
   131  H    0.021950
   132  H   -0.044609
   133  H   -0.056379
   134  H    0.018327
   135  H    0.022360
   136  H    0.020626
   137  H    0.143548
   138  H    0.210699
 Sum of Mulliken charges =  -0.00000

 Dipole moment (field-independent basis, Debye):
    X=              2.5922    Y=              4.2968    Z=              1.0859  Tot=              5.1343
 Quadrupole moment (field-independent basis, Debye-Ang):
   XX=           -351.5457   YY=           -386.2658   ZZ=           -394.7163
   XY=            -36.8459   XZ=              4.0669   YZ=             -4.4143

 Normal termination of Gaussian 16 at Wed Aug 28 08:40:01 2019.
