 Gaussian 16, Revision A.03,
 Gaussian 16:  ES64L-G16RevA.03 25-Dec-2016

 --------------------------
 # td=(NStates=1) B3LYP/SVP
 --------------------------

 --
 TD
 --
 Symbolic Z-matrix:
 Charge =  0 Multiplicity = 1

                         Standard orientation:
 ---------------------------------------------------------------------
 Center     Atomic      Atomic             Coordinates (Angstroms)
 Number     Number       Type             X           Y           Z
 ---------------------------------------------------------------------
      1          6           0       -5.099441   -1.994739    0.441826
      2          6           0       -4.794069    2.752047    1.558831
      3          6           0       -9.381347    3.234528   -0.148290
      4          6           0       -9.731768   -1.546850   -1.107729
      5          7           0       -5.258379    0.315101    0.828089
      6          6           0       -4.509572   -0.763483    0.954382
      7          6           0       -3.005571   -0.505816    1.398491
      8          6           0       -3.105851    0.962253    1.908908
      9          6           0       -4.522322    1.357021    1.492994
     10          6           0       -2.818096    1.067969    3.291451
     11          6           0       -2.188612   -0.672265    0.136222
     12          6           0       -0.571279   -0.562537    0.473760
     13          6           0        0.373133   -0.732184   -0.705497
     14          8           0        0.024490   -1.051934   -1.739494
     15          8           0        1.581315   -0.627462   -0.154870
     16          7           0       -7.161104    2.748038    0.646106
     17          6           0       -6.054471    3.434033    1.130040
     18          6           0       -6.474780    4.761379    1.198280
     19          6           0       -7.669626    4.896169    0.695795
     20          6           0       -8.174074    3.626631    0.278206
     21          6           0       -5.572728    5.777283    1.798407
     22          6           0       -8.451034    6.077221    0.439672
     23          6           0       -9.229263    6.509399   -0.514947
     24          7           0       -9.147841    0.784564   -0.464659
     25          6           0       -9.803559    2.000586   -0.542498
     26          6           0      -11.178762    1.748727   -1.206523
     27          6           0      -11.394213    0.455342   -1.407626
     28          6           0      -10.023570   -0.160554   -0.941161
     29          6           0      -12.255127    2.802790   -1.360300
     30          6           0      -12.490645   -0.363594   -1.998458
     31          6           0      -12.423038   -0.803903   -3.399812
     32          7           0       -7.414603   -1.304096   -0.337382
     33          6           0       -8.477755   -2.043334   -0.809636
     34          6           0       -8.039062   -3.540898   -0.837695
     35          6           0       -6.765929   -3.475050   -0.295164
     36          6           0       -6.436275   -2.136776    0.041171
     37          6           0       -8.856727   -4.720804   -1.160191
     38          6           0       -5.660533   -4.402470    0.016897
     39          8           0       -5.531169   -5.551693    0.048848
     40          6           0       -4.450507   -3.397430    0.498383
     41          6           0       -3.970940   -3.869796    1.860310
     42          8           0       -4.230568   -3.323664    2.947646
     43          8           0       -3.250717   -4.899750    1.757682
     44          6           0       -2.704870   -5.489785    2.848822
     45          6           0        2.668196   -0.694064   -1.260386
     46          6           0        4.045646   -0.404851   -0.568622
     47          6           0        4.991226    0.496311   -0.952081
     48          6           0        4.916734    1.467163   -2.212645
     49          6           0        6.328959    0.566326   -0.205879
     50          6           0        7.530805    0.023830   -1.008978
     51          6           0        8.783471   -0.049496   -0.256433
     52          6           0       10.057988   -0.663400   -0.777699
     53          6           0        9.969268   -2.245024   -0.842130
     54          6           0       11.262596   -0.296235    0.002260
     55          6           0       12.643206   -0.618234   -0.614771
     56          6           0       13.888470   -0.022366    0.202182
     57          6           0       15.228805   -0.358454   -0.346296
     58          6           0       15.553992   -1.947491   -0.200342
     59          6           0       16.420679    0.589407    0.339901
     60          6           0       17.772401    0.476877   -0.252581
     61          6           0       18.719186    1.393027    0.487238
     62          6           0       20.108303    1.422896   -0.090823
     63          6           0       19.980001    2.300394   -1.481731
     64          6           0       21.175556    2.035416    0.904725
     65          1           0       -4.005776    3.370428    2.151364
     66          1           0      -10.118436    4.040665   -0.302916
     67          1           0      -10.431482   -2.169726   -1.488549
     68          1           0       -2.615754   -1.361121    1.934545
     69          1           0       -2.323464    1.689085    1.368257
     70          1           0       -1.829442    0.557393    3.537452
     71          1           0       -2.722855    2.131700    3.517066
     72          1           0       -3.604017    0.664788    3.925731
     73          1           0       -2.478710   -1.610965   -0.429635
     74          1           0       -2.368026    0.274665   -0.571602
     75          1           0       -0.197631    0.258322    1.048943
     76          1           0       -0.276768   -1.487764    1.000998
     77          1           0       -4.983072    6.376433    0.906339
     78          1           0       -6.409891    6.758705    2.440590
     79          1           0       -4.974350    5.153453    2.622133
     80          1           0       -8.159473    6.846211    1.350368
     81          1           0       -9.416938    5.977891   -1.380669
     82          1           0       -9.698142    7.539899   -0.450066
     83          1           0      -12.596918    3.396726   -0.536431
     84          1           0      -11.702464    3.609559   -2.005027
     85          1           0      -13.072349    2.348005   -1.809238
     86          1           0      -12.470308   -1.381363   -1.252370
     87          1           0      -13.418664    0.050951   -1.643279
     88          1           0      -12.030798    0.156315   -3.863977
     89          1           0      -11.526636   -1.440090   -3.599862
     90          1           0      -13.019583   -1.394311   -3.995342
     91          1           0       -9.946172   -4.615862   -0.755421
     92          1           0       -9.148932   -4.776523   -2.353510
     93          1           0       -8.376412   -5.718401   -0.876947
     94          1           0       -3.714161   -3.580155   -0.328078
     95          1           0       -2.174943   -6.401295    2.535306
     96          1           0       -2.173828   -4.876952    3.229420
     97          1           0       -3.484697   -5.869224    3.309025
     98          1           0        2.618424   -1.665669   -1.751469
     99          1           0        2.260198   -0.163182   -2.199332
    100          1           0        4.219155   -1.120672    0.540844
    101          1           0        5.034276    2.559767   -1.758269
    102          1           0        5.745112    1.352476   -2.821449
    103          1           0        4.093376    1.630347   -2.844441
    104          1           0        6.651293    1.686068    0.254413
    105          1           0        6.161850   -0.065019    0.800723
    106          1           0        7.365051   -1.027696   -1.260300
    107          1           0        7.472962    0.635720   -1.892910
    108          1           0        8.798475    0.974048    0.123454
    109          1           0        8.385301   -0.507407    0.744620
    110          1           0       10.448263   -0.339773   -1.828776
    111          1           0        9.199165   -2.529235   -1.450923
    112          1           0       10.843723   -2.659497   -1.451768
    113          1           0        9.904210   -2.715766    0.195471
    114          1           0       11.200307    0.863552    0.089213
    115          1           0       11.348964   -0.794040    1.122527
    116          1           0       12.710584   -1.798917   -0.432877
    117          1           0       12.740496    0.036234   -1.528895
    118          1           0       13.662569    1.008379    0.365201
    119          1           0       13.691746   -0.362320    1.312948
    120          1           0       15.475393   -0.249789   -1.328042
    121          1           0       14.898742   -2.505106   -0.832775
    122          1           0       16.678369   -2.037703   -0.539939
    123          1           0       15.514953   -2.099365    0.968205
    124          1           0       15.907947    1.693308    0.431554
    125          1           0       16.426431    0.122846    1.364009
    126          1           0       18.246439   -0.613788    0.049563
    127          1           0       17.565841    0.596369   -1.266105
    128          1           0       18.286093    2.352531    0.777411
    129          1           0       18.884251    1.035424    1.592708
    130          1           0       20.505262    0.402507   -0.358654
    131          1           0       19.720182    3.170438   -1.260073
    132          1           0       21.048090    2.042270   -1.784234
    133          1           0       19.262374    1.850342   -2.160162
    134          1           0       21.513690    1.455316    1.868477
    135          1           0       22.181249    2.322595    0.446472
    136          1           0       20.739973    2.904107    1.262765
    137          1           0       -7.085795    1.651406    0.389176
    138          1           0       -7.526441   -0.296642   -0.119945
 ---------------------------------------------------------------------

 SCF Done:  E(RB3LYP) =  -2732.93205345     A.U. after   17 cycles

 Excitation energies and oscillator strengths:

 Excited State   1:      Singlet-A      2.0126 eV  616.03 nm  f=0.2151  <S**2>=0.000
     235 -> 238        0.27338
     236 -> 237        0.64621
 This state for optimization and/or second-order correction.
 Total Energy, E(TD-HF/TD-DFT) =  -2732.85809092
 Copying the excited state density for this state as the 1-particle RhoCI density.

 The electronic state is 1-A.
 Alpha  occ. eigenvalues --  -19.17973 -19.17660 -19.13736 -19.12560 -19.10522
 Alpha  occ. eigenvalues --  -14.37032 -14.36636 -14.33042 -14.30972 -10.30894
 Alpha  occ. eigenvalues --  -10.30205 -10.28488 -10.26466 -10.24128 -10.23458
 Alpha  occ. eigenvalues --  -10.23453 -10.23328 -10.23326 -10.23067 -10.22695
 Alpha  occ. eigenvalues --  -10.22532 -10.22355 -10.22223 -10.22088 -10.21988
 Alpha  occ. eigenvalues --  -10.21913 -10.21823 -10.21423 -10.21021 -10.20859
 Alpha  occ. eigenvalues --  -10.20795 -10.20698 -10.20331 -10.20275 -10.20239
 Alpha  occ. eigenvalues --  -10.20235 -10.20061 -10.20019 -10.19765 -10.19715
 Alpha  occ. eigenvalues --  -10.19470 -10.19469 -10.19187 -10.19174 -10.19111
 Alpha  occ. eigenvalues --  -10.19000 -10.18983 -10.18860 -10.18819 -10.18691
 Alpha  occ. eigenvalues --  -10.18622 -10.18610 -10.18606 -10.18555 -10.18501
 Alpha  occ. eigenvalues --  -10.18479 -10.18471 -10.18462 -10.18399 -10.18342
 Alpha  occ. eigenvalues --  -10.18337 -10.18278 -10.17827 -10.16864  -1.13516
 Alpha  occ. eigenvalues --   -1.10652  -1.07079  -1.02657  -0.98741  -0.98564
 Alpha  occ. eigenvalues --   -0.97260  -0.93540  -0.91997  -0.84102  -0.82890
 Alpha  occ. eigenvalues --   -0.81810  -0.81458  -0.81415  -0.80946  -0.80743
 Alpha  occ. eigenvalues --   -0.80081  -0.80045  -0.79002  -0.78950  -0.78344
 Alpha  occ. eigenvalues --   -0.77221  -0.76703  -0.75527  -0.75165  -0.74924
 Alpha  occ. eigenvalues --   -0.74446  -0.73270  -0.71711  -0.71319  -0.70300
 Alpha  occ. eigenvalues --   -0.69770  -0.69442  -0.68312  -0.68241  -0.67905
 Alpha  occ. eigenvalues --   -0.66818  -0.66716  -0.65844  -0.65034  -0.64780
 Alpha  occ. eigenvalues --   -0.63933  -0.62656  -0.62560  -0.62054  -0.61460
 Alpha  occ. eigenvalues --   -0.60576  -0.58777  -0.58368  -0.58161  -0.57149
 Alpha  occ. eigenvalues --   -0.56593  -0.56217  -0.56149  -0.55620  -0.55311
 Alpha  occ. eigenvalues --   -0.54994  -0.54390  -0.53901  -0.53682  -0.52691
 Alpha  occ. eigenvalues --   -0.52350  -0.51897  -0.51541  -0.51140  -0.50303
 Alpha  occ. eigenvalues --   -0.49610  -0.49518  -0.48958  -0.48806  -0.48362
 Alpha  occ. eigenvalues --   -0.48275  -0.48041  -0.47679  -0.47365  -0.47118
 Alpha  occ. eigenvalues --   -0.46956  -0.46717  -0.46433  -0.46300  -0.45850
 Alpha  occ. eigenvalues --   -0.45624  -0.45187  -0.44966  -0.44943  -0.44800
 Alpha  occ. eigenvalues --   -0.44507  -0.44438  -0.44401  -0.44068  -0.43846
 Alpha  occ. eigenvalues --   -0.43784  -0.43572  -0.43522  -0.43287  -0.43088
 Alpha  occ. eigenvalues --   -0.42657  -0.42112  -0.41854  -0.41824  -0.41300
 Alpha  occ. eigenvalues --   -0.41257  -0.41039  -0.40882  -0.40768  -0.40688
 Alpha  occ. eigenvalues --   -0.40610  -0.40211  -0.39946  -0.39684  -0.39614
 Alpha  occ. eigenvalues --   -0.39212  -0.39129  -0.38975  -0.38920  -0.38652
 Alpha  occ. eigenvalues --   -0.38585  -0.38320  -0.38242  -0.38020  -0.37722
 Alpha  occ. eigenvalues --   -0.37409  -0.37196  -0.37146  -0.36892  -0.36812
 Alpha  occ. eigenvalues --   -0.36619  -0.36439  -0.35779  -0.35495  -0.35355
 Alpha  occ. eigenvalues --   -0.35013  -0.34913  -0.34774  -0.34543  -0.34429
 Alpha  occ. eigenvalues --   -0.34006  -0.33880  -0.33789  -0.33720  -0.32992
 Alpha  occ. eigenvalues --   -0.32965  -0.32758  -0.32723  -0.32526  -0.32232
 Alpha  occ. eigenvalues --   -0.31950  -0.31812  -0.31656  -0.31348  -0.30974
 Alpha  occ. eigenvalues --   -0.30779  -0.30447  -0.30435  -0.30211  -0.30035
 Alpha  occ. eigenvalues --   -0.29444  -0.28389  -0.28231  -0.27978  -0.27473
 Alpha  occ. eigenvalues --   -0.27351  -0.26744  -0.26692  -0.26405  -0.25858
 Alpha  occ. eigenvalues --   -0.25603  -0.24937  -0.24108  -0.23589  -0.19763
 Alpha  occ. eigenvalues --   -0.18170
 Alpha virt. eigenvalues --   -0.09814  -0.07157  -0.03810  -0.01147  -0.00935
 Alpha virt. eigenvalues --    0.00684   0.01269   0.01719   0.01937   0.02746
 Alpha virt. eigenvalues --    0.03296   0.03801   0.04033   0.04337   0.04528

 Mulliken charges:
               1
     1  C   -0.039883
     2  C   -0.095636
     3  C   -0.102075
     4  C   -0.034698
     5  N   -0.205179
     6  C   -0.020735
     7  C    0.044536
     8  C   -0.072624
     9  C    0.052433
    10  C    0.102127
    11  C   -0.015924
    12  C    0.018186
    13  C    0.128245
    14  O   -0.156651
    15  O   -0.338557
    16  N   -0.164903
    17  C    0.067835
    18  C   -0.065272
    19  C    0.079793
    20  C    0.091550
    21  C   -0.079810
    22  C   -0.069417
    23  C   -0.018934
    24  N   -0.257511
    25  C    0.099786
    26  C   -0.154863
    27  C   -0.091003
    28  C    0.052542
    29  C    0.110927
    30  C    0.028347
    31  C    0.083889
    32  N   -0.013634
    33  C    0.084595
    34  C   -0.099269
    35  C   -0.049330
    36  C    0.103549
    37  C   -0.002451
    38  C    0.057655
    39  O   -0.091194
    40  C   -0.105272
    41  C    0.175765
    42  O   -0.282789
    43  O   -0.214230
    44  C    0.386847
    45  C    0.202917
    46  C   -0.097761
    47  C   -0.077109
    48  C    0.080277
    49  C   -0.080493
    50  C    0.066119
    51  C    0.053799
    52  C   -0.001294
    53  C    0.035948
    54  C   -0.066291
    55  C   -0.009239
    56  C    0.039704
    57  C   -0.010922
    58  C   -0.041333
    59  C   -0.071623
    60  C    0.057767
    61  C    0.015469
    62  C   -0.105948
    63  C    0.092901
    64  C    0.009745
    65  H    0.014233
    66  H   -0.029903
    67  H   -0.077862
    68  H   -0.013611
    69  H    0.026715
    70  H    0.017756
    71  H   -0.008489
    72  H    0.016681
    73  H    0.030107
    74  H    0.023212
    75  H    0.016764
    76  H    0.017407
    77  H    0.073911
    78  H    0.034520
    79  H    0.064975
    80  H    0.007708
    81  H   -0.002593
    82  H    0.034457
    83  H    0.020277
    84  H    0.019176
    85  H   -0.007897
    86  H    0.004620
    87  H    0.001821
    88  H    0.012583
    89  H   -0.012773
    90  H    0.002038
    91  H    0.046081
    92  H    0.043242
    93  H    0.064082
    94  H    0.058422
    95  H    0.009839
    96  H   -0.067665
    97  H   -0.024573
    98  H    0.023480
    99  H    0.036965
   100  H    0.057003
   101  H    0.023155
   102  H    0.007331
   103  H    0.003111
   104  H    0.030453
   105  H    0.015830
   106  H   -0.012736
   107  H   -0.010271
   108  H   -0.035477
   109  H   -0.011016
   110  H   -0.002255
   111  H   -0.019195
   112  H    0.013088
   113  H    0.023556
   114  H   -0.002409
   115  H    0.004192
   116  H    0.042452
   117  H    0.011866
   118  H   -0.030128
   119  H   -0.012055
   120  H   -0.043318
   121  H    0.027127
   122  H    0.019790
   123  H    0.025285
   124  H    0.021239
   125  H   -0.005241
   126  H    0.031791
   127  H   -0.008769
   128  H   -0.015802
   129  H   -0.011384
   130  H    0.000097
   131  H   -0.046927
   132  H    0.024370
   133  H    0.006942
   134  H    0.022617
   135  H    0.010304
   136  H   -0.011865
   137  H    0.207799
   138  H    0.154352
 Sum of Mulliken charges =  -0.00000

 Dipole moment (field-independent basis, Debye):
    X=              3.0908    Y=              1.0172    Z=             -1.5843  Tot=              3.6191
 Quadrupole moment (field-independent basis, Debye-Ang):
   XX=           -359.8286   YY=           -380.9016   ZZ=           -397.0166
   XY=              0.6611   XZ=             13.9350   YZ=             -0.5966

 Normal termination of Gaussian 16 at Sun Sep  1 13:17:45 2019.
