 Gaussian 16, Revision A.03,
 Gaussian 16:  ES64L-G16RevA.03 25-Dec-2016

 --------------------------
 # td=(NStates=1) B3LYP/SVP
 --------------------------

 --
 TD
 --
 Symbolic Z-matrix:
 Charge =  0 Multiplicity = 1

                         Standard orientation:
 ---------------------------------------------------------------------
 Center     Atomic      Atomic             Coordinates (Angstroms)
 Number     Number       Type             X           Y           Z
 ---------------------------------------------------------------------
      1          6           0       -5.121030   -1.960262    0.403788
      2          6           0       -4.639969    2.748373    1.395153
      3          6           0       -9.217535    3.344706   -0.300945
      4          6           0       -9.858540   -1.517348   -0.794951
      5          7           0       -5.240620    0.430477    0.810216
      6          6           0       -4.532654   -0.729231    0.775684
      7          6           0       -3.075138   -0.674818    1.145038
      8          6           0       -3.073889    0.825813    1.816725
      9          6           0       -4.349026    1.444487    1.303260
     10          6           0       -2.985108    0.898645    3.375668
     11          6           0       -2.076659   -0.715968   -0.104622
     12          6           0       -0.614724   -0.842338    0.454529
     13          6           0        0.371633   -0.904993   -0.690048
     14          8           0        0.182493   -1.361222   -1.864726
     15          8           0        1.566303   -0.717582   -0.315696
     16          7           0       -6.998479    2.769342    0.405260
     17          6           0       -5.893206    3.410305    0.933810
     18          6           0       -6.166736    4.760343    0.867867
     19          6           0       -7.558579    5.050857    0.609432
     20          6           0       -7.950458    3.663899    0.170557
     21          6           0       -5.231680    5.828991    1.550643
     22          6           0       -8.165248    6.285697    0.521351
     23          6           0       -9.165194    6.731148   -0.311357
     24          7           0       -9.199530    0.926625   -0.520245
     25          6           0       -9.814955    2.145976   -0.622846
     26          6           0      -11.209407    1.905539   -1.021089
     27          6           0      -11.398676    0.566488   -1.037660
     28          6           0      -10.103467   -0.132408   -0.793105
     29          6           0      -12.313103    2.960877   -1.080700
     30          6           0      -12.566028   -0.299640   -1.592734
     31          6           0      -12.449982   -0.561021   -3.132039
     32          7           0       -7.425743   -1.310739   -0.218510
     33          6           0       -8.653887   -2.073965   -0.552882
     34          6           0       -8.191912   -3.482762   -0.562998
     35          6           0       -6.859610   -3.444557   -0.168920
     36          6           0       -6.397971   -2.130459    0.027023
     37          6           0       -9.047081   -4.618406   -1.005314
     38          6           0       -5.735545   -4.418742    0.102694
     39          8           0       -5.562687   -5.581057    0.030140
     40          6           0       -4.537507   -3.325619    0.396001
     41          6           0       -3.834431   -3.821447    1.620654
     42          8           0       -3.954392   -3.385072    2.782462
     43          8           0       -3.019976   -4.850345    1.423000
     44          6           0       -2.629597   -5.652872    2.488181
     45          6           0        2.655007   -0.843085   -1.282281
     46          6           0        4.024989   -0.739615   -0.676736
     47          6           0        5.016268    0.178208   -0.964239
     48          6           0        4.855951    1.038355   -2.268359
     49          6           0        6.261469    0.279504   -0.155156
     50          6           0        7.466579   -0.319740   -0.877547
     51          6           0        8.676190   -0.119809   -0.011498
     52          6           0        9.981995   -0.672352   -0.634822
     53          6           0        9.920341   -2.177132   -0.857982
     54          6           0       11.222950   -0.130546    0.040984
     55          6           0       12.550070   -0.509364   -0.527286
     56          6           0       13.754075    0.168472    0.218301
     57          6           0       15.171017   -0.231537   -0.331865
     58          6           0       15.524821   -1.736986   -0.194200
     59          6           0       16.174492    0.606110    0.341312
     60          6           0       17.592220    0.561987   -0.240450
     61          6           0       18.635940    1.440403    0.550035
     62          6           0       20.119167    1.555725   -0.043928
     63          6           0       20.167999    2.085684   -1.328464
     64          6           0       20.905501    2.377910    1.038280
     65          1           0       -3.843327    3.415456    1.521373
     66          1           0       -9.878309    4.160076   -0.510815
     67          1           0      -10.778427   -2.070203   -1.039776
     68          1           0       -2.910265   -1.335843    1.928047
     69          1           0       -2.231845    1.493660    1.367561
     70          1           0       -2.144711    0.232626    3.860829
     71          1           0       -2.846411    1.798338    3.807248
     72          1           0       -4.030273    0.271224    3.655601
     73          1           0       -2.433978   -1.529518   -0.722795
     74          1           0       -2.322340    0.275501   -0.773019
     75          1           0       -0.387294    0.103392    1.002328
     76          1           0       -0.609909   -1.570379    1.093226
     77          1           0       -4.344346    6.090052    0.852678
     78          1           0       -5.843923    6.635584    1.861540
     79          1           0       -4.762495    5.446281    2.429263
     80          1           0       -7.780389    6.935366    1.273613
     81          1           0       -9.476547    5.867313   -0.967569
     82          1           0       -9.744404    7.663414   -0.122364
     83          1           0      -12.441903    3.614661   -0.125131
     84          1           0      -11.900814    3.754484   -1.837551
     85          1           0      -13.184596    2.507726   -1.651216
     86          1           0      -12.606682   -1.254932   -1.108365
     87          1           0      -13.553460    0.279105   -1.461625
     88          1           0      -12.178634    0.343740   -3.719451
     89          1           0      -11.602092   -1.414259   -3.075552
     90          1           0      -13.518280   -0.793014   -3.404794
     91          1           0       -9.906214   -4.668321   -0.487224
     92          1           0       -9.042818   -4.594457   -2.192258
     93          1           0       -8.321167   -5.480267   -0.581335
     94          1           0       -3.912621   -3.334530   -0.588821
     95          1           0       -2.181374   -6.728256    2.045473
     96          1           0       -1.715034   -5.182329    3.248362
     97          1           0       -3.489504   -6.055246    3.037975
     98          1           0        2.671537   -1.996189   -1.615971
     99          1           0        2.246419   -0.041047   -1.950269
    100          1           0        4.159924   -1.412020    0.244695
    101          1           0        5.019671    2.012735   -1.744024
    102          1           0        5.746020    0.637206   -2.793973
    103          1           0        3.833447    0.938687   -2.787053
    104          1           0        6.417426    1.440853   -0.016821
    105          1           0        6.078536   -0.320643    0.779443
    106          1           0        7.098808   -1.416910   -1.162556
    107          1           0        7.525455    0.097374   -1.862688
    108          1           0        8.823169    0.979141    0.125991
    109          1           0        8.639895   -0.560902    0.976236
    110          1           0       10.221499   -0.212978   -1.621550
    111          1           0        9.007478   -2.633297   -1.384040
    112          1           0       10.738324   -2.493599   -1.565246
    113          1           0       10.068047   -2.702083    0.160217
    114          1           0       11.091090    1.003925    0.049565
    115          1           0       11.117765   -0.571762    1.159229
    116          1           0       12.722297   -1.607678   -0.487222
    117          1           0       12.532016   -0.025191   -1.532210
    118          1           0       13.501039    1.275835    0.095987
    119          1           0       13.725999   -0.157629    1.199289
    120          1           0       15.255536    0.110931   -1.457993
    121          1           0       14.772825   -2.513996   -0.731598
    122          1           0       16.658735   -1.943861   -0.526355
    123          1           0       15.559897   -2.100226    0.862620
    124          1           0       15.728819    1.548394    0.600837
    125          1           0       16.535073    0.317560    1.409840
    126          1           0       18.146427   -0.343497   -0.133024
    127          1           0       17.593775    0.895849   -1.236756
    128          1           0       18.283241    2.492560    0.520615
    129          1           0       18.662914    1.024067    1.579718
    130          1           0       20.633991    0.495437    0.088144
    131          1           0       20.199346    3.154291   -1.449217
    132          1           0       21.214165    1.945208   -1.745062
    133          1           0       19.551619    1.526244   -2.170103
    134          1           0       20.911742    1.866801    2.031768
    135          1           0       21.972978    2.553883    0.782166
    136          1           0       20.328255    3.335193    1.172644
    137          1           0       -6.938642    1.795101    0.110933
    138          1           0       -7.556337   -0.282819   -0.249833
 ---------------------------------------------------------------------

 SCF Done:  E(RB3LYP) =  -2733.13076064     A.U. after   17 cycles

 Excitation energies and oscillator strengths:

 Excited State   1:      Singlet-A      1.9979 eV  620.58 nm  f=0.2304  <S**2>=0.000
     235 -> 237        0.17802
     235 -> 238       -0.26004
     236 -> 237        0.61753
     236 -> 238        0.12545
 This state for optimization and/or second-order correction.
 Total Energy, E(TD-HF/TD-DFT) =  -2733.05734043
 Copying the excited state density for this state as the 1-particle RhoCI density.

 The electronic state is 1-A.
 Alpha  occ. eigenvalues --  -19.18037 -19.17806 -19.14597 -19.11459 -19.09983
 Alpha  occ. eigenvalues --  -14.37289 -14.36272 -14.32657 -14.29908 -10.31735
 Alpha  occ. eigenvalues --  -10.30722 -10.29619 -10.26677 -10.26177 -10.23962
 Alpha  occ. eigenvalues --  -10.23772 -10.23549 -10.23412 -10.22976 -10.22470
 Alpha  occ. eigenvalues --  -10.22400 -10.22009 -10.21706 -10.21137 -10.21057
 Alpha  occ. eigenvalues --  -10.21041 -10.20965 -10.20860 -10.20732 -10.20718
 Alpha  occ. eigenvalues --  -10.20559 -10.20524 -10.20419 -10.20316 -10.20166
 Alpha  occ. eigenvalues --  -10.20077 -10.20027 -10.19934 -10.19917 -10.19876
 Alpha  occ. eigenvalues --  -10.19840 -10.19833 -10.19818 -10.19720 -10.19671
 Alpha  occ. eigenvalues --  -10.19584 -10.19494 -10.19402 -10.19361 -10.19351
 Alpha  occ. eigenvalues --  -10.19295 -10.19207 -10.18979 -10.18857 -10.18765
 Alpha  occ. eigenvalues --  -10.18444 -10.18399 -10.18367 -10.18328 -10.18299
 Alpha  occ. eigenvalues --  -10.18156 -10.18067 -10.17794 -10.17167  -1.11226
 Alpha  occ. eigenvalues --   -1.10403  -1.06418  -0.99132  -0.98654  -0.97000
 Alpha  occ. eigenvalues --   -0.96074  -0.92658  -0.91712  -0.85349  -0.83219
 Alpha  occ. eigenvalues --   -0.82105  -0.82095  -0.81414  -0.81330  -0.80529
 Alpha  occ. eigenvalues --   -0.80340  -0.80085  -0.79585  -0.78153  -0.77844
 Alpha  occ. eigenvalues --   -0.77195  -0.76196  -0.75667  -0.74864  -0.74466
 Alpha  occ. eigenvalues --   -0.73776  -0.73362  -0.72720  -0.71858  -0.70751
 Alpha  occ. eigenvalues --   -0.69870  -0.68818  -0.68459  -0.67978  -0.67905
 Alpha  occ. eigenvalues --   -0.66720  -0.66654  -0.66417  -0.66030  -0.65468
 Alpha  occ. eigenvalues --   -0.64347  -0.63464  -0.62333  -0.61937  -0.61149
 Alpha  occ. eigenvalues --   -0.60284  -0.59481  -0.58687  -0.58562  -0.57375
 Alpha  occ. eigenvalues --   -0.57045  -0.55773  -0.55423  -0.55343  -0.55007
 Alpha  occ. eigenvalues --   -0.54606  -0.54267  -0.54039  -0.53876  -0.52957
 Alpha  occ. eigenvalues --   -0.52422  -0.52299  -0.51746  -0.51138  -0.50665
 Alpha  occ. eigenvalues --   -0.49727  -0.49474  -0.49218  -0.48901  -0.48685
 Alpha  occ. eigenvalues --   -0.48341  -0.48258  -0.47897  -0.47470  -0.47196
 Alpha  occ. eigenvalues --   -0.46739  -0.46593  -0.46055  -0.45943  -0.45710
 Alpha  occ. eigenvalues --   -0.45547  -0.45387  -0.44902  -0.44824  -0.44679
 Alpha  occ. eigenvalues --   -0.44631  -0.44300  -0.44157  -0.44029  -0.43955
 Alpha  occ. eigenvalues --   -0.43876  -0.43465  -0.43415  -0.42923  -0.42586
 Alpha  occ. eigenvalues --   -0.42492  -0.42407  -0.42027  -0.41873  -0.41691
 Alpha  occ. eigenvalues --   -0.41490  -0.41383  -0.41126  -0.41107  -0.40820
 Alpha  occ. eigenvalues --   -0.40549  -0.40125  -0.40002  -0.39745  -0.39264
 Alpha  occ. eigenvalues --   -0.39049  -0.38929  -0.38718  -0.38421  -0.38252
 Alpha  occ. eigenvalues --   -0.38027  -0.37950  -0.37893  -0.37767  -0.37733
 Alpha  occ. eigenvalues --   -0.37281  -0.37186  -0.37169  -0.36565  -0.36500
 Alpha  occ. eigenvalues --   -0.36382  -0.36065  -0.35956  -0.35788  -0.35728
 Alpha  occ. eigenvalues --   -0.35389  -0.35290  -0.35104  -0.34759  -0.34626
 Alpha  occ. eigenvalues --   -0.34288  -0.34244  -0.34036  -0.33513  -0.33361
 Alpha  occ. eigenvalues --   -0.33063  -0.33050  -0.32851  -0.32628  -0.32528
 Alpha  occ. eigenvalues --   -0.32252  -0.32148  -0.31993  -0.31681  -0.31453
 Alpha  occ. eigenvalues --   -0.30820  -0.30468  -0.30188  -0.29888  -0.29557
 Alpha  occ. eigenvalues --   -0.29205  -0.29174  -0.28601  -0.28288  -0.27544
 Alpha  occ. eigenvalues --   -0.27320  -0.27002  -0.26297  -0.25919  -0.25713
 Alpha  occ. eigenvalues --   -0.24991  -0.23875  -0.23599  -0.22309  -0.20129
 Alpha  occ. eigenvalues --   -0.19145
 Alpha virt. eigenvalues --   -0.10960  -0.08092  -0.04362  -0.02514  -0.00799
 Alpha virt. eigenvalues --   -0.00545   0.00224   0.01017   0.01740   0.03363
 Alpha virt. eigenvalues --    0.03755   0.04171   0.04354   0.04574   0.04688

 Mulliken charges:
               1
     1  C    0.045994
     2  C   -0.018419
     3  C   -0.039423
     4  C   -0.066398
     5  N   -0.217555
     6  C   -0.093622
     7  C    0.003783
     8  C   -0.081187
     9  C    0.062029
    10  C    0.041858
    11  C    0.017545
    12  C    0.146105
    13  C    0.168923
    14  O   -0.321825
    15  O   -0.252075
    16  N    0.005229
    17  C    0.043418
    18  C   -0.146721
    19  C    0.043804
    20  C    0.073485
    21  C    0.099199
    22  C   -0.068311
    23  C   -0.028665
    24  N   -0.284688
    25  C    0.036845
    26  C   -0.126814
    27  C   -0.071375
    28  C    0.011099
    29  C    0.060446
    30  C    0.006222
    31  C   -0.014712
    32  N   -0.104155
    33  C    0.148847
    34  C   -0.165192
    35  C   -0.049953
    36  C    0.105314
    37  C    0.092258
    38  C    0.100051
    39  O   -0.106111
    40  C   -0.104893
    41  C    0.213417
    42  O   -0.268841
    43  O   -0.246464
    44  C    0.099522
    45  C    0.233822
    46  C   -0.102873
    47  C   -0.205318
    48  C    0.059184
    49  C    0.067133
    50  C   -0.014381
    51  C    0.106525
    52  C   -0.066302
    53  C   -0.007177
    54  C   -0.029011
    55  C    0.049412
    56  C    0.032763
    57  C   -0.025644
    58  C   -0.048090
    59  C    0.025225
    60  C    0.085323
    61  C   -0.042949
    62  C   -0.114680
    63  C    0.062126
    64  C    0.013195
    65  H   -0.038914
    66  H   -0.065640
    67  H   -0.015711
    68  H   -0.008815
    69  H    0.003705
    70  H    0.024845
    71  H   -0.003493
    72  H    0.049195
    73  H    0.012779
    74  H    0.033360
    75  H    0.022411
    76  H   -0.013878
    77  H    0.032342
    78  H   -0.002168
    79  H    0.010559
    80  H   -0.014794
    81  H    0.039267
    82  H    0.041003
    83  H    0.052829
    84  H    0.011979
    85  H    0.024824
    86  H    0.004290
    87  H    0.004567
    88  H    0.027336
    89  H    0.030191
    90  H    0.026630
    91  H    0.008387
    92  H    0.074554
    93  H    0.056226
    94  H    0.085490
    95  H    0.041625
    96  H    0.055084
    97  H    0.037487
    98  H    0.053459
    99  H    0.035128
   100  H    0.003774
   101  H    0.026226
   102  H    0.039824
   103  H    0.044061
   104  H    0.017268
   105  H    0.012730
   106  H    0.015211
   107  H   -0.013550
   108  H   -0.011289
   109  H   -0.010559
   110  H   -0.027913
   111  H    0.021937
   112  H    0.015846
   113  H    0.011200
   114  H    0.000032
   115  H   -0.014189
   116  H    0.009865
   117  H   -0.009847
   118  H    0.003740
   119  H   -0.023952
   120  H    0.000828
   121  H    0.034183
   122  H    0.029742
   123  H    0.008458
   124  H   -0.022189
   125  H   -0.019767
   126  H   -0.004234
   127  H   -0.025616
   128  H   -0.011169
   129  H   -0.000224
   130  H    0.002511
   131  H   -0.004036
   132  H   -0.010561
   133  H    0.031323
   134  H    0.008762
   135  H    0.010882
   136  H    0.006695
   137  H    0.148652
   138  H    0.142934
 Sum of Mulliken charges =  -0.00000

 Dipole moment (field-independent basis, Debye):
    X=              2.9274    Y=              3.1931    Z=              0.1840  Tot=              4.3358
 Quadrupole moment (field-independent basis, Debye-Ang):
   XX=           -331.4197   YY=           -382.5436   ZZ=           -403.3530
   XY=             -7.0746   XZ=             10.0084   YZ=              0.2002

 Normal termination of Gaussian 16 at Sat Aug 31 13:08:52 2019.
