 Gaussian 16, Revision A.03,
 Gaussian 16:  ES64L-G16RevA.03 25-Dec-2016

 --------------------------
 # td=(NStates=1) B3LYP/SVP
 --------------------------

 --
 TD
 --
 Symbolic Z-matrix:
 Charge =  0 Multiplicity = 1

                         Standard orientation:
 ---------------------------------------------------------------------
 Center     Atomic      Atomic             Coordinates (Angstroms)
 Number     Number       Type             X           Y           Z
 ---------------------------------------------------------------------
      1          6           0       -5.067477   -1.970918    0.518894
      2          6           0       -4.712205    2.748268    1.339969
      3          6           0       -9.290033    3.186065   -0.387451
      4          6           0       -9.796597   -1.529314   -0.941598
      5          7           0       -5.249693    0.377984    0.813988
      6          6           0       -4.478158   -0.743576    0.834654
      7          6           0       -3.040061   -0.598928    1.402080
      8          6           0       -3.173225    0.805773    1.935363
      9          6           0       -4.435806    1.313476    1.376483
     10          6           0       -3.112890    0.851879    3.441463
     11          6           0       -2.098494   -0.697749    0.184962
     12          6           0       -0.590785   -0.809172    0.638374
     13          6           0        0.440155   -0.877691   -0.573748
     14          8           0        0.065966   -1.128983   -1.731712
     15          8           0        1.681297   -0.916140   -0.067982
     16          7           0       -7.075722    2.790865    0.484416
     17          6           0       -5.921061    3.348626    0.896320
     18          6           0       -6.248865    4.785518    0.998568
     19          6           0       -7.517871    5.070491    0.474803
     20          6           0       -7.972639    3.688126    0.107673
     21          6           0       -5.249446    5.810381    1.500525
     22          6           0       -8.141604    6.372205    0.466707
     23          6           0       -9.286973    6.673053   -0.321278
     24          7           0       -9.148756    0.831245   -0.483965
     25          6           0       -9.884688    1.995428   -0.661842
     26          6           0      -11.185279    1.803884   -1.076825
     27          6           0      -11.362499    0.435590   -1.240352
     28          6           0      -10.069039   -0.146960   -0.835425
     29          6           0      -12.298404    2.908324   -1.193208
     30          6           0      -12.636880   -0.355407   -1.530869
     31          6           0      -12.807843   -0.557414   -3.145561
     32          7           0       -7.456790   -1.412999   -0.187163
     33          6           0       -8.539983   -2.133731   -0.614364
     34          6           0       -8.129309   -3.458530   -0.716837
     35          6           0       -6.754707   -3.445412   -0.341009
     36          6           0       -6.461326   -2.135811    0.064426
     37          6           0       -8.821167   -4.668072   -1.099430
     38          6           0       -5.573419   -4.349774   -0.093389
     39          8           0       -5.473198   -5.498140   -0.093474
     40          6           0       -4.375466   -3.299942    0.461739
     41          6           0       -3.882123   -3.818108    1.709303
     42          8           0       -4.105243   -3.406370    2.805465
     43          8           0       -3.038856   -4.820423    1.481534
     44          6           0       -2.571470   -5.351799    2.686824
     45          6           0        2.750330   -0.939444   -1.083714
     46          6           0        4.071988   -0.571603   -0.403254
     47          6           0        5.032234    0.217953   -0.793067
     48          6           0        4.659268    1.161795   -2.186520
     49          6           0        6.302800    0.509219   -0.087692
     50          6           0        7.409498   -0.249007   -0.820108
     51          6           0        8.713005   -0.147908   -0.103685
     52          6           0       10.041540   -0.616646   -0.816894
     53          6           0       10.067366   -2.063099   -1.140684
     54          6           0       11.228173   -0.197219   -0.033486
     55          6           0       12.578328   -0.429386   -0.717253
     56          6           0       13.839312   -0.035301    0.073006
     57          6           0       15.248973   -0.162212   -0.543157
     58          6           0       15.422416   -1.732593   -0.716207
     59          6           0       16.299861    0.535106    0.338111
     60          6           0       17.690750    0.681603   -0.303454
     61          6           0       18.611698    1.353953    0.571921
     62          6           0       20.139159    1.461434    0.123854
     63          6           0       20.174185    2.365926   -1.167515
     64          6           0       21.122291    1.951102    1.280911
     65          1           0       -4.116775    3.413446    1.653182
     66          1           0       -9.896307    4.070591   -0.671275
     67          1           0      -10.555491   -2.112937   -1.349992
     68          1           0       -2.941991   -1.158948    2.153368
     69          1           0       -2.390967    1.549927    1.490367
     70          1           0       -2.090265    0.403558    3.786474
     71          1           0       -3.351139    1.821229    3.984766
     72          1           0       -3.974958    0.290259    3.773226
     73          1           0       -2.437765   -1.563926   -0.514923
     74          1           0       -2.209115    0.224509   -0.483012
     75          1           0       -0.438568   -0.036696    1.357325
     76          1           0       -0.655032   -1.795048    1.272520
     77          1           0       -4.246727    5.724068    1.092141
     78          1           0       -5.717993    6.850559    1.413797
     79          1           0       -4.983469    5.572790    2.415463
     80          1           0       -7.656506    7.131822    0.887195
     81          1           0       -9.647049    5.912692   -0.953403
     82          1           0       -9.948411    7.676426   -0.464402
     83          1           0      -12.552515    3.402911   -0.348757
     84          1           0      -11.682660    3.577624   -1.814529
     85          1           0      -13.126571    2.458948   -1.840607
     86          1           0      -12.547559   -1.498127   -1.074976
     87          1           0      -13.726420    0.016909   -1.100711
     88          1           0      -12.928060    0.552812   -3.490061
     89          1           0      -11.870749   -1.108614   -3.662684
     90          1           0      -13.854919   -0.934547   -3.585315
     91          1           0       -9.868401   -4.724012   -0.588043
     92          1           0       -8.985087   -4.621890   -2.224461
     93          1           0       -8.320448   -5.658330   -0.871708
     94          1           0       -3.705913   -3.509764   -0.352554
     95          1           0       -2.184004   -6.514026    2.447879
     96          1           0       -1.550393   -4.615963    3.057889
     97          1           0       -3.465885   -5.142638    3.492439
     98          1           0        2.660860   -2.032918   -1.504064
     99          1           0        2.423125   -0.173998   -1.984387
    100          1           0        4.325073   -1.190509    0.559574
    101          1           0        4.753587    2.293628   -1.781526
    102          1           0        5.337745    1.072090   -2.966124
    103          1           0        3.489139    0.873750   -2.427892
    104          1           0        6.084325    1.547213   -0.134003
    105          1           0        6.142939    0.209307    0.848946
    106          1           0        7.202809   -1.382235   -0.933898
    107          1           0        7.427361    0.249578   -1.809192
    108          1           0        9.010105    0.801109   -0.151343
    109          1           0        8.638024   -0.516456    0.891140
    110          1           0        9.812342   -0.075591   -1.808717
    111          1           0        9.456582   -2.339926   -2.068936
    112          1           0       11.186432   -2.565536   -1.191273
    113          1           0        9.232776   -2.896603   -0.404457
    114          1           0       11.169751    0.877360    0.020123
    115          1           0       11.099736   -0.962535    0.788300
    116          1           0       12.837858   -1.413788   -1.121666
    117          1           0       12.488040    0.224987   -1.584470
    118          1           0       13.650751    0.873704    0.319058
    119          1           0       13.688005   -0.491362    1.029142
    120          1           0       15.288904    0.275963   -1.520766
    121          1           0       14.531950   -2.166100   -1.211473
    122          1           0       16.450453   -1.992965   -1.215369
    123          1           0       15.128166   -2.158363    0.304271
    124          1           0       15.895921    1.591457    0.431830
    125          1           0       16.495926    0.088059    1.303603
    126          1           0       17.913696   -0.396511   -0.408463
    127          1           0       17.621689    0.980208   -1.381800
    128          1           0       18.387522    2.381163    0.691423
    129          1           0       18.822855    0.993463    1.652003
    130          1           0       20.302455    0.434520   -0.276415
    131          1           0       19.502593    3.463046   -0.910231
    132          1           0       21.285738    2.690286   -1.520648
    133          1           0       19.654655    1.890522   -2.082923
    134          1           0       21.012406    1.315471    2.172918
    135          1           0       22.193257    1.959930    1.019974
    136          1           0       20.849436    2.999248    1.573608
    137          1           0       -7.027184    1.808289    0.059129
    138          1           0       -7.455925   -0.398517   -0.115539
 ---------------------------------------------------------------------

 SCF Done:  E(RB3LYP) =  -2732.96798272     A.U. after   17 cycles

 Excitation energies and oscillator strengths:

 Excited State   1:      Singlet-A      2.0095 eV  616.99 nm  f=0.1558  <S**2>=0.000
     235 -> 237       -0.23062
     235 -> 238        0.23241
     236 -> 237        0.59929
     236 -> 238        0.17040
 This state for optimization and/or second-order correction.
 Total Energy, E(TD-HF/TD-DFT) =  -2732.89413485
 Copying the excited state density for this state as the 1-particle RhoCI density.

 The electronic state is 1-A.
 Alpha  occ. eigenvalues --  -19.18816 -19.17546 -19.13603 -19.13033 -19.11815
 Alpha  occ. eigenvalues --  -14.37470 -14.36896 -14.32934 -14.29714 -10.32536
 Alpha  occ. eigenvalues --  -10.30294 -10.28585 -10.27378 -10.26530 -10.24784
 Alpha  occ. eigenvalues --  -10.23746 -10.23422 -10.23023 -10.22654 -10.22645
 Alpha  occ. eigenvalues --  -10.22610 -10.21538 -10.21459 -10.21286 -10.21236
 Alpha  occ. eigenvalues --  -10.21207 -10.21158 -10.21132 -10.20968 -10.20947
 Alpha  occ. eigenvalues --  -10.20923 -10.20906 -10.20721 -10.20476 -10.20411
 Alpha  occ. eigenvalues --  -10.20365 -10.20283 -10.20153 -10.20151 -10.20049
 Alpha  occ. eigenvalues --  -10.20025 -10.19926 -10.19916 -10.19675 -10.19558
 Alpha  occ. eigenvalues --  -10.19486 -10.19269 -10.19181 -10.19143 -10.19139
 Alpha  occ. eigenvalues --  -10.19018 -10.18941 -10.18932 -10.18909 -10.18773
 Alpha  occ. eigenvalues --  -10.18708 -10.18489 -10.18359 -10.18286 -10.18133
 Alpha  occ. eigenvalues --  -10.17959 -10.17877 -10.17067 -10.16125  -1.11427
 Alpha  occ. eigenvalues --   -1.09005  -1.07045  -1.01589  -1.01338  -0.99938
 Alpha  occ. eigenvalues --   -0.99711  -0.95168  -0.92863  -0.84108  -0.83763
 Alpha  occ. eigenvalues --   -0.82687  -0.82052  -0.81814  -0.81695  -0.81413
 Alpha  occ. eigenvalues --   -0.80086  -0.79621  -0.79246  -0.78074  -0.77713
 Alpha  occ. eigenvalues --   -0.76912  -0.75922  -0.75688  -0.75039  -0.73740
 Alpha  occ. eigenvalues --   -0.72965  -0.72939  -0.72104  -0.71356  -0.71117
 Alpha  occ. eigenvalues --   -0.70129  -0.68783  -0.68159  -0.67790  -0.67274
 Alpha  occ. eigenvalues --   -0.67164  -0.66776  -0.66438  -0.66010  -0.65602
 Alpha  occ. eigenvalues --   -0.63992  -0.62971  -0.62744  -0.62298  -0.61013
 Alpha  occ. eigenvalues --   -0.60392  -0.60071  -0.58813  -0.57979  -0.57907
 Alpha  occ. eigenvalues --   -0.57093  -0.56198  -0.56191  -0.55844  -0.55500
 Alpha  occ. eigenvalues --   -0.55181  -0.54619  -0.54392  -0.53882  -0.53271
 Alpha  occ. eigenvalues --   -0.52715  -0.52109  -0.51540  -0.51023  -0.50684
 Alpha  occ. eigenvalues --   -0.50502  -0.49611  -0.49525  -0.49307  -0.48877
 Alpha  occ. eigenvalues --   -0.48422  -0.47963  -0.47671  -0.47362  -0.46941
 Alpha  occ. eigenvalues --   -0.46888  -0.46551  -0.46234  -0.46176  -0.45964
 Alpha  occ. eigenvalues --   -0.45710  -0.45417  -0.45140  -0.45043  -0.44945
 Alpha  occ. eigenvalues --   -0.44676  -0.44562  -0.44294  -0.44095  -0.43782
 Alpha  occ. eigenvalues --   -0.43612  -0.43434  -0.42922  -0.42799  -0.42609
 Alpha  occ. eigenvalues --   -0.42410  -0.42197  -0.41732  -0.41622  -0.41217
 Alpha  occ. eigenvalues --   -0.41041  -0.40953  -0.40783  -0.40699  -0.40510
 Alpha  occ. eigenvalues --   -0.40326  -0.40182  -0.40037  -0.39931  -0.39843
 Alpha  occ. eigenvalues --   -0.39535  -0.39277  -0.39029  -0.38991  -0.38870
 Alpha  occ. eigenvalues --   -0.38491  -0.38442  -0.38112  -0.37917  -0.37629
 Alpha  occ. eigenvalues --   -0.37476  -0.37342  -0.37267  -0.36708  -0.36636
 Alpha  occ. eigenvalues --   -0.36440  -0.36021  -0.35951  -0.35817  -0.35667
 Alpha  occ. eigenvalues --   -0.35467  -0.35086  -0.35041  -0.34877  -0.34797
 Alpha  occ. eigenvalues --   -0.34723  -0.34426  -0.34176  -0.34027  -0.33789
 Alpha  occ. eigenvalues --   -0.33644  -0.32936  -0.32796  -0.32457  -0.32408
 Alpha  occ. eigenvalues --   -0.32339  -0.32163  -0.32008  -0.31555  -0.31254
 Alpha  occ. eigenvalues --   -0.31120  -0.30906  -0.30900  -0.30528  -0.30048
 Alpha  occ. eigenvalues --   -0.29631  -0.28950  -0.28642  -0.28221  -0.28031
 Alpha  occ. eigenvalues --   -0.27948  -0.27706  -0.27326  -0.26393  -0.26218
 Alpha  occ. eigenvalues --   -0.25937  -0.24715  -0.23352  -0.22571  -0.19798
 Alpha  occ. eigenvalues --   -0.18609
 Alpha virt. eigenvalues --   -0.10472  -0.07642  -0.04019  -0.02486  -0.01575
 Alpha virt. eigenvalues --   -0.00369   0.00604   0.00816   0.02236   0.03370
 Alpha virt. eigenvalues --    0.03516   0.03642   0.03889   0.04238   0.04556

 Mulliken charges:
               1
     1  C    0.059108
     2  C    0.044978
     3  C   -0.067338
     4  C   -0.053962
     5  N   -0.176913
     6  C   -0.137116
     7  C    0.176184
     8  C   -0.073577
     9  C    0.016783
    10  C    0.054365
    11  C   -0.000314
    12  C    0.020172
    13  C    0.232434
    14  O   -0.258850
    15  O   -0.300240
    16  N   -0.005456
    17  C    0.053759
    18  C   -0.192622
    19  C    0.076728
    20  C   -0.017834
    21  C    0.181280
    22  C    0.016117
    23  C   -0.064462
    24  N   -0.277005
    25  C    0.103105
    26  C   -0.152060
    27  C   -0.039313
    28  C    0.067373
    29  C    0.145582
    30  C   -0.064696
    31  C   -0.087840
    32  N    0.108059
    33  C    0.079248
    34  C   -0.120184
    35  C   -0.071539
    36  C   -0.007287
    37  C    0.039164
    38  C    0.048924
    39  O   -0.085633
    40  C   -0.085785
    41  C    0.195058
    42  O   -0.225272
    43  O   -0.253341
    44  C    0.023975
    45  C    0.174129
    46  C   -0.064117
    47  C   -0.217175
    48  C   -0.029611
    49  C    0.225845
    50  C    0.006673
    51  C    0.140990
    52  C   -0.089475
    53  C   -0.099099
    54  C    0.085975
    55  C    0.018380
    56  C    0.121496
    57  C   -0.026090
    58  C    0.005840
    59  C    0.023234
    60  C    0.058623
    61  C    0.040676
    62  C   -0.094568
    63  C   -0.097116
    64  C    0.032728
    65  H   -0.153329
    66  H   -0.058180
    67  H   -0.052538
    68  H   -0.096805
    69  H    0.007730
    70  H    0.037815
    71  H    0.016223
    72  H    0.015419
    73  H    0.038831
    74  H    0.017288
    75  H    0.007367
    76  H    0.049615
    77  H    0.011704
    78  H    0.031889
    79  H   -0.030295
    80  H   -0.061219
    81  H    0.020643
    82  H    0.059941
    83  H    0.011521
    84  H    0.019073
    85  H    0.026729
    86  H    0.032542
    87  H    0.045066
    88  H    0.020742
    89  H    0.052000
    90  H    0.031819
    91  H    0.032930
    92  H    0.038562
    93  H    0.049102
    94  H    0.047147
    95  H    0.065019
    96  H    0.033871
    97  H    0.091029
    98  H    0.054677
    99  H    0.064351
   100  H    0.008974
   101  H    0.033448
   102  H    0.025981
   103  H    0.036584
   104  H   -0.002913
   105  H   -0.056422
   106  H    0.018702
   107  H   -0.005434
   108  H   -0.062184
   109  H   -0.015763
   110  H   -0.012391
   111  H    0.025839
   112  H    0.050247
   113  H   -0.001521
   114  H   -0.005309
   115  H    0.012381
   116  H   -0.019034
   117  H   -0.027654
   118  H   -0.095731
   119  H   -0.032409
   120  H   -0.022930
   121  H    0.001166
   122  H    0.039011
   123  H    0.000577
   124  H   -0.003591
   125  H   -0.006701
   126  H   -0.022540
   127  H   -0.001175
   128  H   -0.028346
   129  H    0.000822
   130  H   -0.003532
   131  H    0.015211
   132  H    0.031742
   133  H    0.035534
   134  H    0.013196
   135  H    0.018233
   136  H    0.015698
   137  H    0.189832
   138  H    0.133029
 Sum of Mulliken charges =  -0.00000

 Dipole moment (field-independent basis, Debye):
    X=              2.9365    Y=              4.7207    Z=              0.0975  Tot=              5.5603
 Quadrupole moment (field-independent basis, Debye-Ang):
   XX=           -352.9970   YY=           -386.5060   ZZ=           -399.8795
   XY=            -17.1968   XZ=             12.5923   YZ=              4.3676

 Normal termination of Gaussian 16 at Wed Aug 28 17:58:01 2019.
