 Gaussian 16, Revision A.03,
 Gaussian 16:  ES64L-G16RevA.03 25-Dec-2016

 --------------------------
 # td=(NStates=1) B3LYP/SVP
 --------------------------

 --
 TD
 --
 Symbolic Z-matrix:
 Charge =  0 Multiplicity = 1

                         Standard orientation:
 ---------------------------------------------------------------------
 Center     Atomic      Atomic             Coordinates (Angstroms)
 Number     Number       Type             X           Y           Z
 ---------------------------------------------------------------------
      1          6           0       -5.267307   -2.035775    0.553108
      2          6           0       -4.636911    2.676137    1.462918
      3          6           0       -9.242459    3.473476   -0.215467
      4          6           0       -9.860005   -1.255251   -1.026950
      5          7           0       -5.195835    0.344508    0.972727
      6          6           0       -4.567885   -0.843747    0.885164
      7          6           0       -3.014120   -0.708719    1.245105
      8          6           0       -3.008629    0.701188    1.866959
      9          6           0       -4.379108    1.308431    1.460973
     10          6           0       -2.777990    0.747963    3.380068
     11          6           0       -2.100465   -0.790081    0.041907
     12          6           0       -0.622061   -0.927254    0.570183
     13          6           0        0.358238   -1.349126   -0.446887
     14          8           0        0.141779   -1.788143   -1.557027
     15          8           0        1.647405   -0.933270   -0.132931
     16          7           0       -6.854516    2.728215    0.476591
     17          6           0       -5.737307    3.402583    1.143630
     18          6           0       -5.991185    4.853904    1.154749
     19          6           0       -7.317013    4.977525    0.667407
     20          6           0       -7.918565    3.672462    0.245400
     21          6           0       -5.072722    5.918835    1.634575
     22          6           0       -7.955200    6.277471    0.497927
     23          6           0       -8.832067    6.680648   -0.482006
     24          7           0       -9.127025    1.054448   -0.487499
     25          6           0       -9.700186    2.225045   -0.550338
     26          6           0      -11.191804    2.121540   -1.026130
     27          6           0      -11.289939    0.697585   -1.278368
     28          6           0      -10.184036    0.134666   -0.917402
     29          6           0      -12.193574    3.137195   -1.320061
     30          6           0      -12.515737    0.109992   -1.696462
     31          6           0      -12.636272   -0.307214   -3.200566
     32          7           0       -7.537950   -1.155034   -0.416522
     33          6           0       -8.606088   -1.887958   -0.736433
     34          6           0       -8.258640   -3.320840   -0.716828
     35          6           0       -6.961883   -3.369618   -0.276959
     36          6           0       -6.520074   -2.077949   -0.027650
     37          6           0       -9.167342   -4.398999   -1.195338
     38          6           0       -5.855186   -4.251799   -0.041311
     39          8           0       -5.909683   -5.484482   -0.171769
     40          6           0       -4.694195   -3.426651    0.474073
     41          6           0       -4.101390   -4.030431    1.769289
     42          8           0       -4.249310   -3.623679    2.869970
     43          8           0       -3.151607   -4.914795    1.419560
     44          6           0       -2.577140   -5.685930    2.496209
     45          6           0        2.696854   -1.176151   -0.970955
     46          6           0        3.907632   -0.700945   -0.376977
     47          6           0        4.913316   -0.028126   -1.127075
     48          6           0        4.865932    0.474532   -2.484889
     49          6           0        6.166509    0.237670   -0.292395
     50          6           0        7.378456   -0.449308   -0.944636
     51          6           0        8.701464   -0.121003   -0.118209
     52          6           0       10.041538   -0.744769   -0.611522
     53          6           0        9.988268   -2.249854   -0.705480
     54          6           0       11.241421   -0.307138    0.248008
     55          6           0       12.628063   -0.678509   -0.444522
     56          6           0       13.823128   -0.091998    0.383698
     57          6           0       15.180359   -0.135905   -0.359177
     58          6           0       15.713763   -1.612264   -0.425544
     59          6           0       16.222815    0.658334    0.346750
     60          6           0       17.636883    0.660082   -0.272135
     61          6           0       18.538312    1.687921    0.499250
     62          6           0       19.985528    1.763127   -0.055320
     63          6           0       20.137791    2.194397   -1.551960
     64          6           0       20.680591    2.816048    0.855394
     65          1           0       -3.899909    3.329809    2.028892
     66          1           0       -9.784421    4.314827   -0.403509
     67          1           0      -10.487908   -1.735877   -1.548480
     68          1           0       -2.916601   -1.525248    1.921557
     69          1           0       -2.383286    1.235813    1.311754
     70          1           0       -1.891159    0.399258    3.694579
     71          1           0       -2.708319    1.820364    3.822762
     72          1           0       -3.546566    0.329359    3.976949
     73          1           0       -2.249194   -1.669669   -0.756256
     74          1           0       -2.074032    0.241763   -0.583321
     75          1           0       -0.176520    0.080308    0.898774
     76          1           0       -0.549126   -1.650437    1.492143
     77          1           0       -4.033412    5.970433    0.970549
     78          1           0       -5.525269    6.900887    1.584565
     79          1           0       -4.797726    5.821873    2.719675
     80          1           0       -7.686751    7.216296    1.067322
     81          1           0       -9.089581    6.245230   -1.538123
     82          1           0       -9.219080    7.616687   -0.431876
     83          1           0      -12.533870    3.439626   -0.321745
     84          1           0      -11.905805    4.140761   -1.877194
     85          1           0      -13.191041    2.923260   -1.830887
     86          1           0      -12.726005   -0.953194   -1.169037
     87          1           0      -13.392963    0.807089   -1.073078
     88          1           0      -12.420488    0.521686   -3.857710
     89          1           0      -11.848119   -1.264012   -3.387183
     90          1           0      -13.728551   -0.550327   -3.493936
     91          1           0       -9.906975   -4.639795   -0.304125
     92          1           0       -9.850911   -4.186564   -2.182272
     93          1           0       -8.436217   -5.371731   -1.453896
     94          1           0       -3.838263   -3.530645   -0.463194
     95          1           0       -1.799246   -6.217920    2.033044
     96          1           0       -2.017110   -5.064152    3.325465
     97          1           0       -3.176384   -6.542177    2.977909
     98          1           0        2.864122   -2.301791   -1.051250
     99          1           0        2.435229   -0.584129   -1.865442
    100          1           0        4.095623   -1.094998    0.456484
    101          1           0        5.221256    1.622650   -2.464032
    102          1           0        5.618339   -0.101661   -3.063063
    103          1           0        3.990494    0.238289   -3.050628
    104          1           0        6.535154    1.318650   -0.248934
    105          1           0        6.269964   -0.150324    0.729126
    106          1           0        7.243469   -1.701477   -1.031752
    107          1           0        7.775140   -0.043739   -1.865600
    108          1           0        8.824121    0.976994   -0.137043
    109          1           0        8.741846   -0.589965    1.049833
    110          1           0        9.905636   -0.400280   -1.693236
    111          1           0        9.148328   -2.822311   -1.274688
    112          1           0       10.828030   -2.587596   -1.381111
    113          1           0       10.197880   -2.911069    0.184730
    114          1           0       11.065268    0.716905    0.471875
    115          1           0       11.295224   -0.653221    1.296701
    116          1           0       12.754401   -1.812362   -0.708792
    117          1           0       12.665099   -0.149695   -1.477008
    118          1           0       13.455280    0.859083    0.555766
    119          1           0       14.135199   -0.675846    1.306254
    120          1           0       15.158464    0.238068   -1.465872
    121          1           0       14.688765   -2.180100   -0.780379
    122          1           0       16.488615   -2.075016   -1.232986
    123          1           0       15.846406   -2.191095    0.584598
    124          1           0       15.731654    1.638354    0.289698
    125          1           0       16.359950    0.236914    1.438823
    126          1           0       17.951643   -0.424897   -0.566866
    127          1           0       17.708603    1.041266   -1.348857
    128          1           0       18.171668    2.854147    0.431896
    129          1           0       18.510532    1.588154    1.524765
    130          1           0       20.326398    0.707816   -0.182875
    131          1           0       19.721021    3.250182   -1.543694
    132          1           0       21.107176    2.349992   -1.632115
    133          1           0       19.722634    1.633055   -2.279075
    134          1           0       20.574009    2.348151    1.985045
    135          1           0       21.777981    3.034998    0.681719
    136          1           0       20.104819    3.986978    0.853265
    137          1           0       -6.952734    1.759562    0.544278
    138          1           0       -7.407533   -0.124893   -0.349927
 ---------------------------------------------------------------------

 SCF Done:  E(RB3LYP) =  -2732.99130701     A.U. after   17 cycles

 Excitation energies and oscillator strengths:

 Excited State   1:      Singlet-A      1.9123 eV  648.36 nm  f=0.1423  <S**2>=0.000
     235 -> 237       -0.11161
     235 -> 238       -0.29372
     236 -> 237        0.62200
     236 -> 238       -0.10939
 This state for optimization and/or second-order correction.
 Total Energy, E(TD-HF/TD-DFT) =  -2732.92103227
 Copying the excited state density for this state as the 1-particle RhoCI density.

 The electronic state is 1-A.
 Alpha  occ. eigenvalues --  -19.18472 -19.16159 -19.13312 -19.12545 -19.11547
 Alpha  occ. eigenvalues --  -14.37013 -14.36275 -14.32482 -14.29230 -10.32226
 Alpha  occ. eigenvalues --  -10.31516 -10.27302 -10.25297 -10.24599 -10.24277
 Alpha  occ. eigenvalues --  -10.23624 -10.23438 -10.23307 -10.23139 -10.22927
 Alpha  occ. eigenvalues --  -10.22894 -10.22120 -10.21972 -10.21917 -10.21708
 Alpha  occ. eigenvalues --  -10.21613 -10.21485 -10.21392 -10.21382 -10.21151
 Alpha  occ. eigenvalues --  -10.21132 -10.20812 -10.20684 -10.20609 -10.20467
 Alpha  occ. eigenvalues --  -10.20449 -10.20314 -10.20220 -10.20065 -10.20046
 Alpha  occ. eigenvalues --  -10.20042 -10.19999 -10.19821 -10.19778 -10.19702
 Alpha  occ. eigenvalues --  -10.19663 -10.19660 -10.19631 -10.19618 -10.19492
 Alpha  occ. eigenvalues --  -10.19328 -10.19006 -10.18934 -10.18912 -10.18777
 Alpha  occ. eigenvalues --  -10.18527 -10.18389 -10.18310 -10.18275 -10.18195
 Alpha  occ. eigenvalues --  -10.18153 -10.16987 -10.16885 -10.15981  -1.10617
 Alpha  occ. eigenvalues --   -1.09135  -1.02113  -1.01082  -1.00685  -0.98010
 Alpha  occ. eigenvalues --   -0.94903  -0.93895  -0.92479  -0.86348  -0.82540
 Alpha  occ. eigenvalues --   -0.81810  -0.81598  -0.81504  -0.81357  -0.80587
 Alpha  occ. eigenvalues --   -0.80181  -0.79622  -0.79441  -0.78320  -0.77980
 Alpha  occ. eigenvalues --   -0.76725  -0.75822  -0.75628  -0.74778  -0.74114
 Alpha  occ. eigenvalues --   -0.73601  -0.73345  -0.72475  -0.71134  -0.70857
 Alpha  occ. eigenvalues --   -0.70541  -0.70014  -0.68895  -0.67822  -0.67629
 Alpha  occ. eigenvalues --   -0.67394  -0.66388  -0.65795  -0.65153  -0.64988
 Alpha  occ. eigenvalues --   -0.63865  -0.62820  -0.62023  -0.61648  -0.61027
 Alpha  occ. eigenvalues --   -0.60644  -0.58976  -0.58446  -0.58145  -0.57895
 Alpha  occ. eigenvalues --   -0.56939  -0.55889  -0.55459  -0.55266  -0.55161
 Alpha  occ. eigenvalues --   -0.54692  -0.54476  -0.54178  -0.53612  -0.53493
 Alpha  occ. eigenvalues --   -0.52972  -0.51826  -0.51665  -0.50787  -0.50616
 Alpha  occ. eigenvalues --   -0.50439  -0.49189  -0.48865  -0.48391  -0.48324
 Alpha  occ. eigenvalues --   -0.48199  -0.47868  -0.47391  -0.47328  -0.47000
 Alpha  occ. eigenvalues --   -0.46771  -0.46357  -0.46060  -0.45673  -0.45579
 Alpha  occ. eigenvalues --   -0.45227  -0.45157  -0.45034  -0.45000  -0.44806
 Alpha  occ. eigenvalues --   -0.44710  -0.44101  -0.43926  -0.43727  -0.43322
 Alpha  occ. eigenvalues --   -0.43105  -0.42839  -0.42792  -0.42323  -0.42291
 Alpha  occ. eigenvalues --   -0.42200  -0.41984  -0.41657  -0.41547  -0.41353
 Alpha  occ. eigenvalues --   -0.41129  -0.40920  -0.40436  -0.40304  -0.39912
 Alpha  occ. eigenvalues --   -0.39757  -0.39682  -0.39602  -0.39426  -0.39270
 Alpha  occ. eigenvalues --   -0.38981  -0.38881  -0.38844  -0.38507  -0.38364
 Alpha  occ. eigenvalues --   -0.38104  -0.37875  -0.37661  -0.37584  -0.37226
 Alpha  occ. eigenvalues --   -0.37175  -0.36999  -0.36911  -0.36639  -0.36348
 Alpha  occ. eigenvalues --   -0.36305  -0.36056  -0.35886  -0.35802  -0.35701
 Alpha  occ. eigenvalues --   -0.35540  -0.35528  -0.35366  -0.35113  -0.34900
 Alpha  occ. eigenvalues --   -0.34819  -0.34473  -0.34027  -0.33729  -0.33507
 Alpha  occ. eigenvalues --   -0.33352  -0.33127  -0.32996  -0.32465  -0.32430
 Alpha  occ. eigenvalues --   -0.32097  -0.32073  -0.31773  -0.31562  -0.31302
 Alpha  occ. eigenvalues --   -0.31129  -0.30654  -0.30296  -0.30130  -0.29727
 Alpha  occ. eigenvalues --   -0.29459  -0.29071  -0.28380  -0.28123  -0.27850
 Alpha  occ. eigenvalues --   -0.27671  -0.27439  -0.26446  -0.26133  -0.25624
 Alpha  occ. eigenvalues --   -0.24801  -0.23632  -0.23158  -0.21642  -0.19941
 Alpha  occ. eigenvalues --   -0.18227
 Alpha virt. eigenvalues --   -0.10066  -0.08579  -0.04920  -0.02793  -0.01293
 Alpha virt. eigenvalues --   -0.01118  -0.00603  -0.00184   0.01796   0.03031
 Alpha virt. eigenvalues --    0.03962   0.04018   0.04058   0.04337   0.04624

 Mulliken charges:
               1
     1  C    0.003632
     2  C   -0.049177
     3  C   -0.042986
     4  C    0.011657
     5  N   -0.167497
     6  C   -0.104869
     7  C    0.001051
     8  C    0.076263
     9  C   -0.027656
    10  C    0.128782
    11  C   -0.015161
    12  C   -0.018242
    13  C    0.179864
    14  O   -0.227657
    15  O   -0.333260
    16  N   -0.146125
    17  C    0.078688
    18  C   -0.075051
    19  C    0.049375
    20  C    0.143913
    21  C    0.056316
    22  C   -0.093584
    23  C   -0.058740
    24  N   -0.251767
    25  C    0.098716
    26  C   -0.127744
    27  C   -0.006545
    28  C    0.095412
    29  C    0.018075
    30  C   -0.084908
    31  C   -0.018783
    32  N   -0.043346
    33  C    0.077577
    34  C   -0.125372
    35  C    0.065042
    36  C    0.104809
    37  C   -0.044806
    38  C    0.018949
    39  O   -0.199831
    40  C   -0.089693
    41  C    0.226397
    42  O   -0.184039
    43  O   -0.296305
    44  C    0.156417
    45  C    0.321277
    46  C   -0.036631
    47  C   -0.126465
    48  C    0.097313
    49  C    0.091339
    50  C   -0.065162
    51  C   -0.066606
    52  C   -0.043331
    53  C   -0.019017
    54  C    0.086093
    55  C   -0.036707
    56  C    0.080266
    57  C   -0.090933
    58  C   -0.092409
    59  C    0.059175
    60  C   -0.003676
    61  C    0.040302
    62  C   -0.101611
    63  C    0.125815
    64  C   -0.076988
    65  H   -0.009767
    66  H   -0.076869
    67  H   -0.141298
    68  H   -0.005465
    69  H   -0.061124
    70  H   -0.022298
    71  H   -0.001000
    72  H    0.012014
    73  H    0.063584
    74  H    0.036161
    75  H    0.055168
    76  H    0.054799
    77  H    0.052626
    78  H    0.006139
    79  H    0.039971
    80  H    0.022220
    81  H    0.049865
    82  H   -0.004979
    83  H    0.024413
    84  H    0.040600
    85  H    0.028136
    86  H    0.015526
    87  H    0.033664
    88  H    0.012794
    89  H    0.048452
    90  H    0.028416
    91  H    0.057770
    92  H    0.055484
    93  H    0.074542
    94  H    0.109583
    95  H    0.009809
    96  H    0.043786
    97  H    0.051908
    98  H    0.019054
    99  H   -0.001442
   100  H   -0.101798
   101  H    0.043763
   102  H    0.025428
   103  H    0.002415
   104  H    0.000972
   105  H    0.006223
   106  H    0.032293
   107  H    0.000598
   108  H    0.003642
   109  H    0.001451
   110  H   -0.009297
   111  H    0.009640
   112  H    0.000875
   113  H    0.008130
   114  H   -0.027802
   115  H   -0.001846
   116  H    0.038081
   117  H    0.004929
   118  H   -0.020983
   119  H    0.008091
   120  H    0.002602
   121  H   -0.008283
   122  H    0.048359
   123  H    0.023241
   124  H   -0.010374
   125  H    0.006617
   126  H    0.011467
   127  H   -0.013118
   128  H   -0.004375
   129  H   -0.031615
   130  H    0.002668
   131  H   -0.014912
   132  H   -0.037389
   133  H   -0.003780
   134  H    0.033036
   135  H    0.025870
   136  H    0.040018
   137  H    0.123479
   138  H    0.159603
 Sum of Mulliken charges =  -0.00000

 Dipole moment (field-independent basis, Debye):
    X=              2.5306    Y=              4.8896    Z=              0.4379  Tot=              5.5230
 Quadrupole moment (field-independent basis, Debye-Ang):
   XX=           -369.0579   YY=           -378.8732   ZZ=           -393.9057
   XY=            -35.8770   XZ=              7.2629   YZ=             -3.2975

 Normal termination of Gaussian 16 at Thu Aug 29 18:24:18 2019.
