 Gaussian 16, Revision A.03,
 Gaussian 16:  ES64L-G16RevA.03 25-Dec-2016

 --------------------------
 # td=(NStates=1) B3LYP/SVP
 --------------------------

 --
 TD
 --
 Symbolic Z-matrix:
 Charge =  0 Multiplicity = 1

                         Standard orientation:
 ---------------------------------------------------------------------
 Center     Atomic      Atomic             Coordinates (Angstroms)
 Number     Number       Type             X           Y           Z
 ---------------------------------------------------------------------
      1          6           0       -5.113699   -1.984206    0.525149
      2          6           0       -4.729566    2.734701    1.583050
      3          6           0       -9.302325    3.290670   -0.206033
      4          6           0       -9.826140   -1.492363   -0.967670
      5          7           0       -5.235778    0.535108    0.891352
      6          6           0       -4.484025   -0.672171    0.907075
      7          6           0       -3.064595   -0.568474    1.326674
      8          6           0       -3.024220    0.832443    1.846186
      9          6           0       -4.413547    1.427657    1.435625
     10          6           0       -2.970206    0.749049    3.527143
     11          6           0       -2.085359   -0.712800    0.088094
     12          6           0       -0.675269   -0.891896    0.530059
     13          6           0        0.289134   -0.916284   -0.633018
     14          8           0        0.077029   -1.069781   -1.930752
     15          8           0        1.535905   -0.796065   -0.218699
     16          7           0       -7.119710    2.730653    0.548086
     17          6           0       -6.042532    3.341511    1.174467
     18          6           0       -6.371671    4.736134    1.122136
     19          6           0       -7.510806    4.980076    0.451832
     20          6           0       -8.013987    3.668678    0.227910
     21          6           0       -5.415621    5.672271    1.638879
     22          6           0       -8.106478    6.343183    0.253153
     23          6           0       -8.922179    6.796513   -0.638153
     24          7           0       -9.248601    0.848692   -0.524481
     25          6           0       -9.853072    2.091988   -0.565093
     26          6           0      -11.263134    1.852889   -1.032497
     27          6           0      -11.323430    0.460600   -1.229315
     28          6           0      -10.012422   -0.062262   -0.860005
     29          6           0      -12.197074    2.951589   -1.169399
     30          6           0      -12.498588   -0.319753   -1.801442
     31          6           0      -12.492492   -0.518627   -3.346585
     32          7           0       -7.563806   -1.361395   -0.243094
     33          6           0       -8.647364   -2.162803   -0.598396
     34          6           0       -8.107937   -3.469100   -0.653805
     35          6           0       -6.787402   -3.399831   -0.205188
     36          6           0       -6.452049   -2.136836   -0.012812
     37          6           0       -8.855613   -4.689985   -0.980541
     38          6           0       -5.574089   -4.215916    0.035358
     39          8           0       -5.588014   -5.456245   -0.100267
     40          6           0       -4.459698   -3.233668    0.502517
     41          6           0       -3.876581   -3.781799    1.775081
     42          8           0       -4.146436   -3.209297    2.822632
     43          8           0       -3.130080   -4.883827    1.592218
     44          6           0       -2.452560   -5.447616    2.778773
     45          6           0        2.640644   -0.992073   -1.212192
     46          6           0        3.969502   -0.737229   -0.555278
     47          6           0        4.897354    0.093769   -1.023707
     48          6           0        4.808555    0.908751   -2.356564
     49          6           0        6.151148    0.255004   -0.336644
     50          6           0        7.445517   -0.393221   -1.097837
     51          6           0        8.647198   -0.280607   -0.041641
     52          6           0        9.975653   -0.765416   -0.741986
     53          6           0        9.971339   -2.204476   -1.316431
     54          6           0       11.244644   -0.368283    0.226177
     55          6           0       12.594186   -0.416273   -0.651753
     56          6           0       13.803619    0.038694    0.220903
     57          6           0       15.193795   -0.027514   -0.396899
     58          6           0       15.668106   -1.564292   -0.554912
     59          6           0       16.232212    0.652836    0.437669
     60          6           0       17.656411    0.712752   -0.062358
     61          6           0       18.694294    1.637468    0.666267
     62          6           0       20.116018    1.576632    0.169023
     63          6           0       20.331924    1.986023   -1.366189
     64          6           0       21.072102    2.334619    1.064294
     65          1           0       -4.203056    3.327234    1.827777
     66          1           0       -9.969685    4.075612   -0.327163
     67          1           0      -10.750289   -2.074843   -1.199092
     68          1           0       -2.742951   -1.150398    2.232222
     69          1           0       -2.245883    1.425964    1.368376
     70          1           0       -2.084489    0.067860    3.668670
     71          1           0       -3.092717    1.707913    4.143260
     72          1           0       -3.692500    0.080459    3.758321
     73          1           0       -2.442363   -1.434287   -0.628115
     74          1           0       -2.372646    0.096547   -0.562405
     75          1           0       -0.087988   -0.148382    1.092120
     76          1           0       -0.629679   -2.164375    1.069895
     77          1           0       -4.496009    6.094629    1.017919
     78          1           0       -5.761794    6.848158    1.774706
     79          1           0       -5.069554    5.422815    2.707577
     80          1           0       -7.972393    7.086500    1.055470
     81          1           0       -9.494596    5.971035   -1.276363
     82          1           0       -9.247348    7.810777   -0.654176
     83          1           0      -12.445755    3.509018   -0.299405
     84          1           0      -11.845708    3.786496   -1.914158
     85          1           0      -13.171025    2.441501   -1.781578
     86          1           0      -12.443677   -1.259752   -1.294588
     87          1           0      -13.586209    0.197550   -1.313394
     88          1           0      -12.604963    0.600026   -3.755877
     89          1           0      -11.539125   -0.793618   -3.686379
     90          1           0      -13.280301   -1.162194   -3.741022
     91          1           0       -9.720297   -4.856451   -0.298566
     92          1           0       -9.475545   -4.890108   -1.938740
     93          1           0       -8.222637   -5.683385   -0.982733
     94          1           0       -3.697908   -3.338344   -0.152982
     95          1           0       -2.095046   -6.358202    2.363603
     96          1           0       -1.871222   -4.689336    3.346179
     97          1           0       -3.268478   -5.718247    3.605516
     98          1           0        2.397241   -1.990397   -1.605352
     99          1           0        2.386569   -0.215873   -2.095946
    100          1           0        4.014821   -1.034415    0.419786
    101          1           0        5.103647    2.014984   -2.022874
    102          1           0        5.380573    0.359145   -3.230164
    103          1           0        3.581683    1.225417   -2.547008
    104          1           0        6.307965    1.217110   -0.193169
    105          1           0        5.974938   -0.309132    0.578294
    106          1           0        7.403453   -1.522926   -1.440819
    107          1           0        7.784620    0.131232   -2.015203
    108          1           0        8.809460    0.741883    0.492275
    109          1           0        8.340130   -0.920058    0.929340
    110          1           0       10.311688    0.019525   -1.669909
    111          1           0        9.124828   -2.352600   -2.115840
    112          1           0       10.942357   -2.514885   -1.833904
    113          1           0        9.794537   -2.996574   -0.486985
    114          1           0       11.091985    0.593472    0.611327
    115          1           0       11.404560   -1.275929    0.938154
    116          1           0       12.852172   -1.571987   -1.014802
    117          1           0       12.579730    0.032769   -1.631665
    118          1           0       13.691456    1.022918    0.653127
    119          1           0       13.829925   -0.816838    1.171590
    120          1           0       15.278550    0.458455   -1.354259
    121          1           0       15.104518   -2.396514   -1.357207
    122          1           0       16.728724   -1.693202   -0.974304
    123          1           0       15.306168   -2.238495    0.441597
    124          1           0       15.893947    1.664297    0.651861
    125          1           0       16.313559    0.346813    1.514994
    126          1           0       18.069038   -0.447961    0.050924
    127          1           0       17.659291    1.090817   -1.092964
    128          1           0       18.182738    2.724786    0.520553
    129          1           0       18.940066    1.467507    1.808821
    130          1           0       20.610429    0.580550    0.096074
    131          1           0       20.125068    3.107051   -1.455133
    132          1           0       21.318202    1.833828   -1.786204
    133          1           0       19.403742    1.514346   -1.890473
    134          1           0       21.094261    2.032914    2.088088
    135          1           0       22.051088    2.398366    0.683218
    136          1           0       20.664626    3.344183    1.204032
    137          1           0       -7.231973    1.708831    0.575981
    138          1           0       -7.674267   -0.315628   -0.259711
 ---------------------------------------------------------------------

 SCF Done:  E(RB3LYP) =  -2732.93034070     A.U. after   18 cycles

 Excitation energies and oscillator strengths:

 Excited State   1:      Singlet-A      1.9994 eV  620.12 nm  f=0.1785  <S**2>=0.000
     235 -> 237       -0.28867
     235 -> 238        0.25316
     236 -> 237        0.57060
     236 -> 238        0.15958
 This state for optimization and/or second-order correction.
 Total Energy, E(TD-HF/TD-DFT) =  -2732.85686518
 Copying the excited state density for this state as the 1-particle RhoCI density.

 The electronic state is 1-A.
 Alpha  occ. eigenvalues --  -19.19189 -19.18014 -19.12673 -19.12354 -19.10944
 Alpha  occ. eigenvalues --  -14.37176 -14.35752 -14.32885 -14.29235 -10.32106
 Alpha  occ. eigenvalues --  -10.31678 -10.28275 -10.26450 -10.25631 -10.24185
 Alpha  occ. eigenvalues --  -10.23846 -10.23562 -10.23367 -10.23178 -10.22684
 Alpha  occ. eigenvalues --  -10.22597 -10.21987 -10.21629 -10.21224 -10.21173
 Alpha  occ. eigenvalues --  -10.21111 -10.21003 -10.20978 -10.20952 -10.20949
 Alpha  occ. eigenvalues --  -10.20932 -10.20642 -10.20515 -10.20450 -10.20425
 Alpha  occ. eigenvalues --  -10.20393 -10.20337 -10.20307 -10.20171 -10.20156
 Alpha  occ. eigenvalues --  -10.20150 -10.20133 -10.20050 -10.19873 -10.19862
 Alpha  occ. eigenvalues --  -10.19782 -10.19765 -10.19755 -10.19740 -10.19406
 Alpha  occ. eigenvalues --  -10.19395 -10.19325 -10.19321 -10.19097 -10.18756
 Alpha  occ. eigenvalues --  -10.18589 -10.18573 -10.18551 -10.18417 -10.18160
 Alpha  occ. eigenvalues --  -10.18013 -10.17955 -10.17414 -10.16681  -1.09325
 Alpha  occ. eigenvalues --   -1.08369  -1.01099  -1.00819  -0.99198  -0.98066
 Alpha  occ. eigenvalues --   -0.95449  -0.94490  -0.94100  -0.86643  -0.83377
 Alpha  occ. eigenvalues --   -0.82589  -0.82225  -0.81838  -0.80831  -0.79983
 Alpha  occ. eigenvalues --   -0.79906  -0.79053  -0.78797  -0.78617  -0.77803
 Alpha  occ. eigenvalues --   -0.77234  -0.76880  -0.75770  -0.74844  -0.74469
 Alpha  occ. eigenvalues --   -0.73828  -0.72722  -0.72151  -0.70796  -0.70704
 Alpha  occ. eigenvalues --   -0.69978  -0.68912  -0.68117  -0.67602  -0.67365
 Alpha  occ. eigenvalues --   -0.67269  -0.66517  -0.66292  -0.65723  -0.65252
 Alpha  occ. eigenvalues --   -0.64294  -0.63138  -0.62219  -0.62038  -0.61612
 Alpha  occ. eigenvalues --   -0.60908  -0.59303  -0.59261  -0.58037  -0.57608
 Alpha  occ. eigenvalues --   -0.56972  -0.56437  -0.55604  -0.55425  -0.55119
 Alpha  occ. eigenvalues --   -0.54635  -0.54244  -0.54035  -0.53981  -0.53261
 Alpha  occ. eigenvalues --   -0.53132  -0.52639  -0.52334  -0.52087  -0.50630
 Alpha  occ. eigenvalues --   -0.49840  -0.49392  -0.48910  -0.48305  -0.48156
 Alpha  occ. eigenvalues --   -0.48013  -0.47779  -0.47465  -0.47303  -0.46561
 Alpha  occ. eigenvalues --   -0.46515  -0.45938  -0.45834  -0.45760  -0.45650
 Alpha  occ. eigenvalues --   -0.45574  -0.45390  -0.45345  -0.44831  -0.44576
 Alpha  occ. eigenvalues --   -0.44494  -0.44124  -0.43910  -0.43881  -0.43645
 Alpha  occ. eigenvalues --   -0.43552  -0.42997  -0.42714  -0.42654  -0.42447
 Alpha  occ. eigenvalues --   -0.42231  -0.42102  -0.41931  -0.41847  -0.41506
 Alpha  occ. eigenvalues --   -0.41318  -0.41046  -0.40900  -0.40517  -0.40417
 Alpha  occ. eigenvalues --   -0.40322  -0.39810  -0.39680  -0.39471  -0.39253
 Alpha  occ. eigenvalues --   -0.39046  -0.38793  -0.38509  -0.38398  -0.38077
 Alpha  occ. eigenvalues --   -0.37961  -0.37947  -0.37816  -0.37767  -0.37529
 Alpha  occ. eigenvalues --   -0.37298  -0.37091  -0.37037  -0.36808  -0.36470
 Alpha  occ. eigenvalues --   -0.36400  -0.36323  -0.36289  -0.36144  -0.35649
 Alpha  occ. eigenvalues --   -0.35440  -0.35408  -0.35166  -0.34794  -0.34646
 Alpha  occ. eigenvalues --   -0.34596  -0.34321  -0.33987  -0.33741  -0.33497
 Alpha  occ. eigenvalues --   -0.33307  -0.33174  -0.32622  -0.32597  -0.32331
 Alpha  occ. eigenvalues --   -0.32219  -0.32152  -0.31573  -0.31426  -0.31000
 Alpha  occ. eigenvalues --   -0.30932  -0.30523  -0.30221  -0.30008  -0.29768
 Alpha  occ. eigenvalues --   -0.29259  -0.28963  -0.28678  -0.28324  -0.28104
 Alpha  occ. eigenvalues --   -0.27700  -0.26170  -0.26035  -0.25392  -0.25307
 Alpha  occ. eigenvalues --   -0.25054  -0.24896  -0.24830  -0.22416  -0.19603
 Alpha  occ. eigenvalues --   -0.18947
 Alpha virt. eigenvalues --   -0.10766  -0.07420  -0.04353  -0.02861  -0.01343
 Alpha virt. eigenvalues --   -0.00634  -0.00319   0.00456   0.01728   0.02975
 Alpha virt. eigenvalues --    0.03085   0.03465   0.03637   0.04442   0.04730

 Mulliken charges:
               1
     1  C   -0.015568
     2  C    0.200538
     3  C   -0.046771
     4  C   -0.114144
     5  N   -0.183051
     6  C   -0.021721
     7  C   -0.035465
     8  C   -0.039456
     9  C    0.055521
    10  C    0.076220
    11  C    0.093344
    12  C    0.000273
    13  C    0.199640
    14  O   -0.347185
    15  O   -0.314439
    16  N   -0.026435
    17  C    0.025500
    18  C   -0.062585
    19  C    0.085748
    20  C    0.071098
    21  C   -0.049638
    22  C   -0.057239
    23  C   -0.047102
    24  N   -0.138709
    25  C    0.033261
    26  C   -0.078789
    27  C   -0.148456
    28  C    0.021483
    29  C    0.029694
    30  C    0.003010
    31  C    0.042508
    32  N   -0.104923
    33  C    0.112091
    34  C   -0.087094
    35  C    0.031528
    36  C    0.098504
    37  C   -0.010717
    38  C    0.032479
    39  O   -0.192311
    40  C    0.087755
    41  C    0.175934
    42  O   -0.236346
    43  O   -0.305329
    44  C    0.172885
    45  C    0.226708
    46  C   -0.018424
    47  C   -0.166480
    48  C   -0.042674
    49  C    0.202728
    50  C   -0.040019
    51  C   -0.021328
    52  C   -0.135059
    53  C   -0.020895
    54  C    0.069380
    55  C   -0.033050
    56  C    0.002118
    57  C    0.018483
    58  C   -0.111872
    59  C    0.053557
    60  C   -0.024513
    61  C   -0.018049
    62  C   -0.100409
    63  C   -0.020954
    64  C    0.085170
    65  H   -0.289433
    66  H   -0.077287
    67  H   -0.004623
    68  H    0.015781
    69  H   -0.003480
    70  H    0.011332
    71  H    0.045314
    72  H   -0.004418
    73  H    0.004061
    74  H   -0.005357
    75  H    0.049588
    76  H    0.076708
    77  H    0.045676
    78  H    0.010092
    79  H    0.040151
    80  H    0.012581
    81  H    0.036408
    82  H    0.016082
    83  H    0.024922
    84  H    0.028144
    85  H    0.034341
    86  H   -0.007526
    87  H    0.024219
    88  H    0.016992
    89  H    0.002694
    90  H    0.026095
    91  H    0.023199
    92  H    0.023728
    93  H    0.053156
    94  H   -0.000629
    95  H    0.050255
    96  H    0.047507
    97  H    0.045672
    98  H    0.029725
    99  H    0.052541
   100  H   -0.036557
   101  H    0.035407
   102  H    0.081388
   103  H    0.039945
   104  H   -0.038912
   105  H   -0.013677
   106  H    0.032814
   107  H    0.012181
   108  H    0.010767
   109  H    0.011801
   110  H    0.013272
   111  H    0.030583
   112  H    0.028226
   113  H    0.023793
   114  H   -0.002800
   115  H    0.020463
   116  H    0.013100
   117  H   -0.008190
   118  H   -0.007410
   119  H    0.012200
   120  H   -0.012985
   121  H    0.012608
   122  H    0.041510
   123  H    0.032352
   124  H   -0.033526
   125  H   -0.016481
   126  H    0.029600
   127  H    0.004669
   128  H    0.013232
   129  H    0.015304
   130  H    0.000915
   131  H   -0.002837
   132  H    0.018873
   133  H    0.018596
   134  H   -0.009774
   135  H   -0.006647
   136  H   -0.016441
   137  H    0.154351
   138  H    0.154115
 Sum of Mulliken charges =  -0.00000

 Dipole moment (field-independent basis, Debye):
    X=              4.4089    Y=              3.1691    Z=              2.0969  Tot=              5.8205
 Quadrupole moment (field-independent basis, Debye-Ang):
   XX=           -367.9632   YY=           -379.2655   ZZ=           -398.8259
   XY=            -15.8825   XZ=              2.6793   YZ=             -1.7577

 Normal termination of Gaussian 16 at Tue Aug 20 02:33:30 2019.
