 Gaussian 16, Revision A.03,
 Gaussian 16:  ES64L-G16RevA.03 25-Dec-2016

 --------------------------
 # td=(NStates=1) B3LYP/SVP
 --------------------------

 --
 TD
 --
 Symbolic Z-matrix:
 Charge =  0 Multiplicity = 1

                         Standard orientation:
 ---------------------------------------------------------------------
 Center     Atomic      Atomic             Coordinates (Angstroms)
 Number     Number       Type             X           Y           Z
 ---------------------------------------------------------------------
      1          6           0       -5.214508   -1.970478    0.484985
      2          6           0       -4.748722    2.689591    1.701265
      3          6           0       -9.165218    3.311985   -0.123110
      4          6           0       -9.722961   -1.372845   -1.244171
      5          7           0       -5.150649    0.372002    0.945605
      6          6           0       -4.522868   -0.764436    0.821826
      7          6           0       -3.098553   -0.671529    1.418168
      8          6           0       -3.078977    0.724050    2.068113
      9          6           0       -4.464630    1.309760    1.507227
     10          6           0       -3.185153    0.556241    3.575720
     11          6           0       -2.107464   -0.707374    0.257446
     12          6           0       -0.644793   -0.709507    0.680958
     13          6           0        0.368103   -0.953602   -0.369236
     14          8           0        0.032001   -1.355595   -1.508818
     15          8           0        1.614086   -0.684894   -0.087193
     16          7           0       -6.986633    2.732460    0.596244
     17          6           0       -5.903330    3.346624    1.192973
     18          6           0       -6.181956    4.739319    1.298336
     19          6           0       -7.455910    4.980891    0.706931
     20          6           0       -7.921684    3.614256    0.335339
     21          6           0       -5.196803    5.893313    1.718397
     22          6           0       -8.069434    6.191064    0.558377
     23          6           0       -8.976563    6.487360   -0.387865
     24          7           0       -9.102234    0.849792   -0.572996
     25          6           0       -9.751576    2.083262   -0.508460
     26          6           0      -11.090818    2.015423   -1.054086
     27          6           0      -11.269607    0.763320   -1.555909
     28          6           0      -10.081204    0.012178   -1.078365
     29          6           0      -12.122920    3.223350   -1.328959
     30          6           0      -12.422052   -0.029593   -2.066329
     31          6           0      -12.491633   -0.215183   -3.716052
     32          7           0       -7.444601   -1.315264   -0.458762
     33          6           0       -8.530041   -1.977582   -0.938840
     34          6           0       -8.190431   -3.351950   -0.967384
     35          6           0       -6.860508   -3.393988   -0.459832
     36          6           0       -6.480907   -2.114800   -0.135555
     37          6           0       -9.052394   -4.507982   -1.317431
     38          6           0       -5.721668   -4.315670   -0.010289
     39          8           0       -5.795200   -5.578189   -0.106724
     40          6           0       -4.544050   -3.413547    0.525665
     41          6           0       -4.110578   -3.905533    1.909134
     42          8           0       -4.481633   -3.414629    2.913759
     43          8           0       -3.226812   -4.956731    1.817563
     44          6           0       -2.927688   -5.631807    3.053043
     45          6           0        2.614992   -0.954305   -1.031167
     46          6           0        3.956412   -0.681479   -0.329903
     47          6           0        4.945231   -0.024181   -1.064035
     48          6           0        5.017067    0.469472   -2.570854
     49          6           0        6.264736    0.295527   -0.297944
     50          6           0        7.586185   -0.326448   -0.947585
     51          6           0        8.781721   -0.122397   -0.058063
     52          6           0       10.049220   -0.561391   -0.681601
     53          6           0        9.954710   -2.036191   -1.209707
     54          6           0       11.330676   -0.238059    0.231423
     55          6           0       12.634778   -0.447142   -0.647705
     56          6           0       13.892784    0.076793    0.154550
     57          6           0       15.250436   -0.143762   -0.399231
     58          6           0       15.615528   -1.623500   -0.471831
     59          6           0       16.235700    0.651245    0.378040
     60          6           0       17.630158    0.802829   -0.272063
     61          6           0       18.732319    1.499687    0.490755
     62          6           0       20.117608    1.486805   -0.003741
     63          6           0       20.204391    1.960799   -1.439243
     64          6           0       20.996869    2.336755    0.891107
     65          1           0       -3.984206    3.300359    2.002174
     66          1           0       -9.830631    4.261755   -0.076883
     67          1           0      -10.496868   -2.031937   -1.862587
     68          1           0       -2.850779   -1.556693    2.112909
     69          1           0       -2.190304    1.244773    1.707403
     70          1           0       -2.024789    0.482476    4.115635
     71          1           0       -3.455167    1.535238    4.232810
     72          1           0       -3.651748   -0.485395    4.202843
     73          1           0       -2.134251   -1.685261   -0.497741
     74          1           0       -2.100314    0.145062   -0.465853
     75          1           0       -0.335625    0.009662    1.287906
     76          1           0       -0.549058   -1.619209    1.325177
     77          1           0       -4.269299    5.827729    1.104956
     78          1           0       -5.976658    6.801429    1.611403
     79          1           0       -4.821199    5.815709    2.812167
     80          1           0       -7.918297    7.272667    0.950730
     81          1           0       -9.381873    5.873976   -1.247467
     82          1           0       -9.501843    7.566213   -0.506698
     83          1           0      -12.461833    3.616071   -0.401334
     84          1           0      -11.846825    3.911627   -1.993463
     85          1           0      -13.087716    2.731812   -1.866918
     86          1           0      -12.591764   -0.879689   -1.568176
     87          1           0      -13.616279    0.307265   -1.974393
     88          1           0      -12.387084    0.778119   -4.144542
     89          1           0      -11.556713   -0.689109   -4.122595
     90          1           0      -13.407033   -0.638554   -4.043428
     91          1           0       -9.958075   -4.525030   -0.748343
     92          1           0       -9.596228   -4.563684   -2.302234
     93          1           0       -8.755852   -5.542007   -1.336304
     94          1           0       -3.832018   -3.538995   -0.266509
     95          1           0       -2.436506   -6.715340    2.728672
     96          1           0       -2.000315   -4.937436    3.603558
     97          1           0       -3.748396   -5.737015    3.653800
     98          1           0        2.373803   -1.903818   -1.375041
     99          1           0        2.520320   -0.441338   -1.963957
    100          1           0        4.211606   -0.789913    0.766559
    101          1           0        5.352967    1.583886   -2.574936
    102          1           0        5.737806   -0.380377   -3.146935
    103          1           0        3.973835    0.333313   -2.817857
    104          1           0        6.327680    1.337981   -0.185988
    105          1           0        6.019797    0.081639    0.844559
    106          1           0        7.312466   -1.365781   -0.876246
    107          1           0        7.571757    0.002904   -1.995313
    108          1           0        8.737344    0.829908    0.429277
    109          1           0        8.688975   -0.695037    0.833029
    110          1           0       10.143292    0.155760   -1.421120
    111          1           0        8.952131   -2.215551   -1.845257
    112          1           0       10.992775   -2.373566   -1.859670
    113          1           0        9.785859   -2.780623   -0.431639
    114          1           0       11.057618    0.794873    0.467474
    115          1           0       11.440017   -1.106256    0.855350
    116          1           0       12.601958   -1.399695   -0.966993
    117          1           0       12.666353    0.225938   -1.654080
    118          1           0       13.740235    1.098186    0.242989
    119          1           0       13.849017   -0.347987    1.118432
    120          1           0       15.160209    0.151812   -1.414373
    121          1           0       14.774850   -2.009608   -1.029862
    122          1           0       16.454371   -1.814715   -1.202007
    123          1           0       15.657106   -1.969471    0.449431
    124          1           0       15.851289    1.720826    0.648284
    125          1           0       16.480540    0.048126    1.428257
    126          1           0       17.991309   -0.236788   -0.500273
    127          1           0       17.351498    1.392579   -1.202736
    128          1           0       18.437090    2.528944    0.848447
    129          1           0       18.669286    1.058121    1.466028
    130          1           0       20.477229    0.357359    0.175561
    131          1           0       19.670205    3.041966   -1.540927
    132          1           0       21.245676    2.174085   -1.688030
    133          1           0       19.783874    1.094063   -2.192988
    134          1           0       20.857309    1.751368    1.860935
    135          1           0       21.999978    2.381015    0.465685
    136          1           0       20.779507    3.449787    1.046539
    137          1           0       -7.073652    1.556577    0.573502
    138          1           0       -7.452578   -0.343537   -0.099522
 ---------------------------------------------------------------------

 SCF Done:  E(RB3LYP) =  -2733.02117480     A.U. after   17 cycles

 Excitation energies and oscillator strengths:

 Excited State   1:      Singlet-A      2.0820 eV  595.50 nm  f=0.1172  <S**2>=0.000
     235 -> 237       -0.17705
     235 -> 238       -0.33596
     236 -> 237        0.57551
     236 -> 238       -0.14126
 This state for optimization and/or second-order correction.
 Total Energy, E(TD-HF/TD-DFT) =  -2732.94466266
 Copying the excited state density for this state as the 1-particle RhoCI density.

 The electronic state is 1-A.
 Alpha  occ. eigenvalues --  -19.18435 -19.17828 -19.13428 -19.12126 -19.11042
 Alpha  occ. eigenvalues --  -14.37935 -14.36600 -14.32491 -14.30448 -10.32252
 Alpha  occ. eigenvalues --  -10.31235 -10.28659 -10.26572 -10.24474 -10.23909
 Alpha  occ. eigenvalues --  -10.23613 -10.23504 -10.23440 -10.23162 -10.22519
 Alpha  occ. eigenvalues --  -10.22516 -10.22398 -10.22004 -10.21978 -10.21890
 Alpha  occ. eigenvalues --  -10.21758 -10.21656 -10.21314 -10.21215 -10.21171
 Alpha  occ. eigenvalues --  -10.21159 -10.21106 -10.21069 -10.21051 -10.20978
 Alpha  occ. eigenvalues --  -10.20923 -10.20431 -10.20413 -10.20089 -10.20064
 Alpha  occ. eigenvalues --  -10.19872 -10.19426 -10.19401 -10.19345 -10.19344
 Alpha  occ. eigenvalues --  -10.19216 -10.19185 -10.19137 -10.19076 -10.19069
 Alpha  occ. eigenvalues --  -10.18997 -10.18859 -10.18821 -10.18662 -10.18513
 Alpha  occ. eigenvalues --  -10.18439 -10.18217 -10.18194 -10.18095 -10.17227
 Alpha  occ. eigenvalues --  -10.17221 -10.16994 -10.16467 -10.16464  -1.11245
 Alpha  occ. eigenvalues --   -1.09821  -1.02056  -1.01046  -0.99348  -0.99178
 Alpha  occ. eigenvalues --   -0.98543  -0.96875  -0.92611  -0.84213  -0.82848
 Alpha  occ. eigenvalues --   -0.82818  -0.82280  -0.82004  -0.81187  -0.81141
 Alpha  occ. eigenvalues --   -0.80535  -0.80375  -0.78748  -0.78377  -0.77948
 Alpha  occ. eigenvalues --   -0.76671  -0.76152  -0.75625  -0.74705  -0.74006
 Alpha  occ. eigenvalues --   -0.73406  -0.72869  -0.72454  -0.71291  -0.70659
 Alpha  occ. eigenvalues --   -0.69499  -0.68901  -0.68474  -0.68084  -0.67985
 Alpha  occ. eigenvalues --   -0.67316  -0.66560  -0.66423  -0.65918  -0.65634
 Alpha  occ. eigenvalues --   -0.64565  -0.62623  -0.62455  -0.62055  -0.61686
 Alpha  occ. eigenvalues --   -0.61057  -0.59372  -0.58713  -0.58285  -0.57811
 Alpha  occ. eigenvalues --   -0.57562  -0.57459  -0.56940  -0.56345  -0.56172
 Alpha  occ. eigenvalues --   -0.55467  -0.55036  -0.53884  -0.53750  -0.53266
 Alpha  occ. eigenvalues --   -0.52853  -0.52007  -0.51457  -0.50991  -0.50811
 Alpha  occ. eigenvalues --   -0.50647  -0.49845  -0.49076  -0.48882  -0.48614
 Alpha  occ. eigenvalues --   -0.47950  -0.47609  -0.47588  -0.47254  -0.47221
 Alpha  occ. eigenvalues --   -0.46872  -0.46451  -0.46299  -0.45973  -0.45827
 Alpha  occ. eigenvalues --   -0.45548  -0.45339  -0.45227  -0.44749  -0.44592
 Alpha  occ. eigenvalues --   -0.44333  -0.44182  -0.43899  -0.43828  -0.43589
 Alpha  occ. eigenvalues --   -0.43513  -0.43364  -0.43233  -0.43064  -0.42649
 Alpha  occ. eigenvalues --   -0.42637  -0.42099  -0.41942  -0.41878  -0.41294
 Alpha  occ. eigenvalues --   -0.40993  -0.40913  -0.40496  -0.40438  -0.40275
 Alpha  occ. eigenvalues --   -0.39791  -0.39725  -0.39656  -0.39531  -0.39239
 Alpha  occ. eigenvalues --   -0.38921  -0.38783  -0.38612  -0.38413  -0.38210
 Alpha  occ. eigenvalues --   -0.38077  -0.37814  -0.37602  -0.37536  -0.37383
 Alpha  occ. eigenvalues --   -0.36991  -0.36851  -0.36598  -0.36484  -0.36418
 Alpha  occ. eigenvalues --   -0.36255  -0.36213  -0.35972  -0.35801  -0.35751
 Alpha  occ. eigenvalues --   -0.35608  -0.35429  -0.35395  -0.35171  -0.34884
 Alpha  occ. eigenvalues --   -0.34737  -0.34299  -0.33785  -0.33605  -0.33424
 Alpha  occ. eigenvalues --   -0.33256  -0.32819  -0.32817  -0.32414  -0.32068
 Alpha  occ. eigenvalues --   -0.31890  -0.31821  -0.31799  -0.31531  -0.31505
 Alpha  occ. eigenvalues --   -0.31264  -0.30690  -0.30283  -0.30245  -0.30108
 Alpha  occ. eigenvalues --   -0.29842  -0.29605  -0.28995  -0.28694  -0.28645
 Alpha  occ. eigenvalues --   -0.27462  -0.27050  -0.26705  -0.26379  -0.25825
 Alpha  occ. eigenvalues --   -0.24670  -0.24472  -0.23818  -0.23301  -0.19732
 Alpha  occ. eigenvalues --   -0.19331
 Alpha virt. eigenvalues --   -0.10301  -0.08249  -0.04659  -0.02295  -0.00644
 Alpha virt. eigenvalues --   -0.00186   0.00197   0.00720   0.02524   0.03573
 Alpha virt. eigenvalues --    0.03610   0.03632   0.03910   0.04223   0.04627

 Mulliken charges:
               1
     1  C   -0.018074
     2  C    0.000927
     3  C   -0.154965
     4  C   -0.112047
     5  N   -0.100412
     6  C   -0.033203
     7  C   -0.055248
     8  C    0.028910
     9  C   -0.038534
    10  C   -0.106252
    11  C   -0.055502
    12  C    0.138138
    13  C    0.132465
    14  O   -0.298311
    15  O   -0.259679
    16  N   -0.094547
    17  C    0.089627
    18  C   -0.136266
    19  C    0.155189
    20  C    0.073990
    21  C    0.029982
    22  C   -0.103390
    23  C   -0.167722
    24  N   -0.282641
    25  C    0.106639
    26  C   -0.155488
    27  C    0.018785
    28  C    0.023984
    29  C    0.122593
    30  C   -0.018121
    31  C    0.004758
    32  N    0.053614
    33  C    0.094293
    34  C   -0.097804
    35  C   -0.012682
    36  C    0.021344
    37  C    0.105938
    38  C    0.065769
    39  O   -0.220527
    40  C    0.008416
    41  C    0.208543
    42  O   -0.181446
    43  O   -0.318623
    44  C    0.130856
    45  C    0.328910
    46  C   -0.057438
    47  C   -0.208799
    48  C    0.030480
    49  C    0.023364
    50  C    0.023915
    51  C    0.090691
    52  C   -0.037661
    53  C   -0.065126
    54  C    0.080160
    55  C   -0.012287
    56  C    0.098528
    57  C   -0.023740
    58  C    0.116315
    59  C   -0.041052
    60  C    0.030171
    61  C    0.061475
    62  C   -0.105235
    63  C   -0.001509
    64  C    0.013978
    65  H   -0.058958
    66  H    0.011703
    67  H    0.025231
    68  H    0.038772
    69  H    0.010766
    70  H    0.006793
    71  H    0.034893
    72  H    0.085056
    73  H    0.055002
    74  H    0.015242
    75  H   -0.032821
    76  H    0.015178
    77  H    0.046689
    78  H    0.047691
    79  H    0.036794
    80  H    0.041347
    81  H    0.041590
    82  H    0.037762
    83  H    0.016924
    84  H   -0.002047
    85  H    0.019978
    86  H   -0.016850
    87  H    0.008438
    88  H    0.004571
    89  H    0.015383
    90  H    0.014444
    91  H   -0.000019
    92  H    0.002504
    93  H    0.022490
    94  H    0.055273
    95  H    0.066366
    96  H    0.044238
    97  H    0.032219
    98  H   -0.012337
    99  H   -0.009795
   100  H    0.017374
   101  H    0.056974
   102  H    0.074559
   103  H    0.004960
   104  H   -0.016302
   105  H   -0.013778
   106  H    0.009209
   107  H    0.014119
   108  H   -0.030408
   109  H   -0.042281
   110  H   -0.036790
   111  H    0.030601
   112  H    0.044841
   113  H    0.010621
   114  H    0.007353
   115  H   -0.003571
   116  H   -0.032904
   117  H   -0.005505
   118  H   -0.033901
   119  H   -0.036632
   120  H   -0.045540
   121  H   -0.021193
   122  H    0.015736
   123  H   -0.031856
   124  H    0.004097
   125  H   -0.004518
   126  H   -0.004513
   127  H    0.000229
   128  H   -0.026177
   129  H   -0.043438
   130  H    0.006848
   131  H    0.021869
   132  H    0.000374
   133  H    0.037573
   134  H    0.018111
   135  H    0.002238
   136  H    0.014530
   137  H    0.236659
   138  H    0.141509
 Sum of Mulliken charges =  -0.00000

 Dipole moment (field-independent basis, Debye):
    X=              1.9503    Y=              4.4609    Z=              1.0040  Tot=              4.9710
 Quadrupole moment (field-independent basis, Debye-Ang):
   XX=           -365.4551   YY=           -381.1275   ZZ=           -396.2363
   XY=            -23.6071   XZ=              8.9103   YZ=             -3.9163

 Normal termination of Gaussian 16 at Thu Aug 29 01:19:13 2019.
