 Gaussian 16, Revision A.03,
 Gaussian 16:  ES64L-G16RevA.03 25-Dec-2016

 --------------------------
 # td=(NStates=1) B3LYP/SVP
 --------------------------

 --
 TD
 --
 Symbolic Z-matrix:
 Charge =  0 Multiplicity = 1

                         Standard orientation:
 ---------------------------------------------------------------------
 Center     Atomic      Atomic             Coordinates (Angstroms)
 Number     Number       Type             X           Y           Z
 ---------------------------------------------------------------------
      1          6           0       -5.227049   -1.950726    0.490948
      2          6           0       -4.717360    2.789552    1.365790
      3          6           0       -9.323857    3.305832   -0.191851
      4          6           0       -9.860021   -1.487883   -0.982380
      5          7           0       -5.216054    0.504290    0.950527
      6          6           0       -4.564185   -0.728586    0.899722
      7          6           0       -3.067068   -0.612217    1.224863
      8          6           0       -3.069811    0.891945    1.890324
      9          6           0       -4.355927    1.450338    1.396599
     10          6           0       -3.076841    0.833348    3.417418
     11          6           0       -2.150911   -0.789704    0.006735
     12          6           0       -0.660370   -0.798556    0.505251
     13          6           0        0.329568   -1.045227   -0.564564
     14          8           0        0.140394   -1.411684   -1.672238
     15          8           0        1.585159   -0.739925   -0.142884
     16          7           0       -7.154402    2.721955    0.628909
     17          6           0       -5.987659    3.296696    0.970758
     18          6           0       -6.166852    4.733896    0.989389
     19          6           0       -7.537949    4.938972    0.482172
     20          6           0       -8.072190    3.650763    0.330602
     21          6           0       -5.194571    5.721240    1.577729
     22          6           0       -8.123014    6.286212    0.305760
     23          6           0       -8.914447    6.522707   -0.630593
     24          7           0       -9.187497    0.867144   -0.584296
     25          6           0       -9.757756    2.033605   -0.482834
     26          6           0      -11.224615    1.813516   -0.862900
     27          6           0      -11.426135    0.567207   -1.221825
     28          6           0      -10.089321   -0.005583   -0.971262
     29          6           0      -12.313673    2.985734   -1.001864
     30          6           0      -12.634921   -0.131909   -1.663001
     31          6           0      -12.608053   -0.362774   -3.209942
     32          7           0       -7.525834   -1.269340   -0.265503
     33          6           0       -8.586817   -1.970655   -0.716150
     34          6           0       -8.206005   -3.448015   -0.764513
     35          6           0       -6.901940   -3.417345   -0.413555
     36          6           0       -6.530606   -2.113505    0.004604
     37          6           0       -9.032861   -4.563171   -1.200812
     38          6           0       -5.779255   -4.315463   -0.047984
     39          8           0       -5.659551   -5.482052   -0.155024
     40          6           0       -4.540320   -3.345790    0.397682
     41          6           0       -4.007024   -3.880687    1.718912
     42          8           0       -4.405624   -3.684489    2.883065
     43          8           0       -3.072824   -4.787596    1.544249
     44          6           0       -2.553847   -5.479898    2.707408
     45          6           0        2.707284   -0.850941   -1.023749
     46          6           0        4.048116   -0.492707   -0.394645
     47          6           0        4.997284    0.170972   -0.972663
     48          6           0        5.017737    0.763591   -2.381260
     49          6           0        6.260830    0.308826   -0.161616
     50          6           0        7.531264   -0.238837   -0.879647
     51          6           0        8.829691   -0.042251   -0.072306
     52          6           0       10.070711   -0.670689   -0.734846
     53          6           0        9.922248   -2.289040   -0.853116
     54          6           0       11.325279   -0.306785    0.045905
     55          6           0       12.736623   -0.555292   -0.660518
     56          6           0       13.836864   -0.068921    0.061746
     57          6           0       15.256836   -0.246980   -0.615601
     58          6           0       15.753996   -1.723447   -0.694032
     59          6           0       16.159775    0.643994    0.254797
     60          6           0       17.679463    0.621839   -0.229820
     61          6           0       18.688835    1.450110    0.642034
     62          6           0       20.079872    1.541052    0.125174
     63          6           0       20.246800    2.519971   -1.058301
     64          6           0       21.026604    2.069083    1.175778
     65          1           0       -4.086598    3.522975    1.760129
     66          1           0       -9.976482    4.046439   -0.499780
     67          1           0      -10.734853   -1.996121   -1.524301
     68          1           0       -2.621380   -1.313469    1.924734
     69          1           0       -2.253692    1.431597    1.493129
     70          1           0       -2.164028    0.336664    3.861190
     71          1           0       -3.258217    1.890202    3.903961
     72          1           0       -4.182263    0.346980    3.758975
     73          1           0       -2.431735   -1.698519   -0.478946
     74          1           0       -2.430143    0.109131   -0.537093
     75          1           0       -0.428816   -0.084082    1.119813
     76          1           0       -0.368194   -1.671173    1.295779
     77          1           0       -4.006424    5.508487    1.309863
     78          1           0       -5.491385    6.853951    1.081481
     79          1           0       -5.228634    5.698440    2.778478
     80          1           0       -7.851020    7.165409    0.989625
     81          1           0       -9.281235    5.677340   -1.316968
     82          1           0       -9.152424    7.751120   -0.848896
     83          1           0      -12.312325    3.765091    0.025885
     84          1           0      -12.095349    3.704937   -1.923080
     85          1           0      -13.354046    2.487735   -1.018169
     86          1           0      -12.762830   -0.932538   -1.092418
     87          1           0      -13.333894    0.440445   -1.631121
     88          1           0      -12.297647    0.587660   -3.893277
     89          1           0      -11.882384   -1.061552   -3.445551
     90          1           0      -13.476715   -0.869072   -3.423341
     91          1           0       -9.852798   -4.521988   -0.344760
     92          1           0       -9.376873   -4.539222   -2.312293
     93          1           0       -8.415655   -5.492799   -0.995284
     94          1           0       -3.689903   -3.583391   -0.364923
     95          1           0       -1.709710   -6.258047    2.438064
     96          1           0       -2.148882   -4.466192    3.303746
     97          1           0       -3.365896   -5.869313    3.339628
     98          1           0        2.669302   -1.968824   -1.653437
     99          1           0        2.637004   -0.165233   -1.950376
    100          1           0        4.278729   -0.867175    0.672698
    101          1           0        5.297846    1.886881   -2.171113
    102          1           0        6.065268    0.407509   -2.811620
    103          1           0        4.081350    0.869929   -2.906660
    104          1           0        6.489868    1.348150    0.006854
    105          1           0        6.284238   -0.164128    0.872464
    106          1           0        7.182845   -1.268515   -1.066203
    107          1           0        7.559523    0.057831   -1.756988
    108          1           0        9.084869    1.113323    0.149691
    109          1           0        8.595971   -0.411387    0.941157
    110          1           0       10.380625   -0.229977   -1.667769
    111          1           0        9.004075   -2.499211   -1.471504
    112          1           0       10.737338   -2.616271   -1.529094
    113          1           0        9.728652   -2.518567    0.172979
    114          1           0       11.306901    0.756025    0.173794
    115          1           0       11.320857   -0.720604    1.170525
    116          1           0       12.932677   -1.631448   -0.992151
    117          1           0       12.529033   -0.218833   -1.725882
    118          1           0       13.628836    0.903494    0.229896
    119          1           0       13.925864   -0.874151    1.079498
    120          1           0       15.202218    0.198633   -1.639005
    121          1           0       15.161738   -2.242561   -1.296891
    122          1           0       16.920111   -1.736067   -0.860002
    123          1           0       15.664536   -2.101750    0.490276
    124          1           0       15.892844    1.686210    0.127164
    125          1           0       16.101659    0.280649    1.309918
    126          1           0       17.937324   -0.531973   -0.367074
    127          1           0       17.779649    0.942398   -1.265347
    128          1           0       18.158278    2.551798    0.612503
    129          1           0       18.537651    0.909691    1.652811
    130          1           0       20.510372    0.423811   -0.408567
    131          1           0       20.216680    3.681660   -0.750827
    132          1           0       21.296337    2.241827   -1.622001
    133          1           0       19.448927    2.356224   -2.068558
    134          1           0       21.092654    1.879062    2.266029
    135          1           0       22.089892    2.156621    0.789719
    136          1           0       20.553447    3.070091    1.355021
    137          1           0       -7.327337    1.672516    0.666668
    138          1           0       -7.504886   -0.381672   -0.237374
 ---------------------------------------------------------------------

 SCF Done:  E(RB3LYP) =  -2732.94441805     A.U. after   17 cycles

 Excitation energies and oscillator strengths:

 Excited State   1:      Singlet-A      2.0565 eV  602.90 nm  f=0.1720  <S**2>=0.000
     235 -> 237       -0.11663
     235 -> 238       -0.29866
     236 -> 237        0.62520
 This state for optimization and/or second-order correction.
 Total Energy, E(TD-HF/TD-DFT) =  -2732.86884387
 Copying the excited state density for this state as the 1-particle RhoCI density.

 The electronic state is 1-A.
 Alpha  occ. eigenvalues --  -19.17599 -19.16961 -19.13617 -19.12102 -19.10793
 Alpha  occ. eigenvalues --  -14.37226 -14.37130 -14.32549 -14.29783 -10.31128
 Alpha  occ. eigenvalues --  -10.30970 -10.28831 -10.26340 -10.26245 -10.24326
 Alpha  occ. eigenvalues --  -10.24051 -10.23804 -10.23300 -10.23131 -10.22833
 Alpha  occ. eigenvalues --  -10.22559 -10.22201 -10.22131 -10.21842 -10.21652
 Alpha  occ. eigenvalues --  -10.21645 -10.21620 -10.21491 -10.21332 -10.21139
 Alpha  occ. eigenvalues --  -10.21073 -10.20860 -10.20819 -10.20801 -10.20525
 Alpha  occ. eigenvalues --  -10.20299 -10.20269 -10.20249 -10.20000 -10.19993
 Alpha  occ. eigenvalues --  -10.19840 -10.19800 -10.19609 -10.19609 -10.19402
 Alpha  occ. eigenvalues --  -10.19288 -10.19124 -10.19115 -10.19011 -10.18897
 Alpha  occ. eigenvalues --  -10.18797 -10.18619 -10.18575 -10.18467 -10.18451
 Alpha  occ. eigenvalues --  -10.18377 -10.18365 -10.18277 -10.18271 -10.18254
 Alpha  occ. eigenvalues --  -10.18179 -10.17153 -10.17026 -10.16657  -1.09695
 Alpha  occ. eigenvalues --   -1.09542  -1.05819  -1.01289  -1.00867  -0.99167
 Alpha  occ. eigenvalues --   -0.97553  -0.95708  -0.93519  -0.85057  -0.83091
 Alpha  occ. eigenvalues --   -0.82267  -0.82097  -0.81754  -0.81466  -0.81430
 Alpha  occ. eigenvalues --   -0.80878  -0.80421  -0.79892  -0.78472  -0.77503
 Alpha  occ. eigenvalues --   -0.76833  -0.76273  -0.76060  -0.74827  -0.74403
 Alpha  occ. eigenvalues --   -0.73864  -0.73230  -0.72345  -0.71739  -0.70962
 Alpha  occ. eigenvalues --   -0.69805  -0.68800  -0.68339  -0.67805  -0.67207
 Alpha  occ. eigenvalues --   -0.66750  -0.66459  -0.65852  -0.65458  -0.65121
 Alpha  occ. eigenvalues --   -0.64259  -0.63780  -0.62919  -0.62490  -0.61311
 Alpha  occ. eigenvalues --   -0.60443  -0.59971  -0.59269  -0.58535  -0.56985
 Alpha  occ. eigenvalues --   -0.56810  -0.56720  -0.56021  -0.55490  -0.55355
 Alpha  occ. eigenvalues --   -0.54790  -0.54320  -0.53444  -0.53273  -0.53230
 Alpha  occ. eigenvalues --   -0.52820  -0.51834  -0.51597  -0.51213  -0.50096
 Alpha  occ. eigenvalues --   -0.49849  -0.49529  -0.49014  -0.48571  -0.48462
 Alpha  occ. eigenvalues --   -0.48140  -0.47949  -0.47664  -0.47178  -0.47016
 Alpha  occ. eigenvalues --   -0.46814  -0.46483  -0.46408  -0.46362  -0.46092
 Alpha  occ. eigenvalues --   -0.45972  -0.45806  -0.45411  -0.45109  -0.44861
 Alpha  occ. eigenvalues --   -0.44493  -0.44415  -0.44318  -0.44212  -0.44079
 Alpha  occ. eigenvalues --   -0.43626  -0.43377  -0.43078  -0.42732  -0.42638
 Alpha  occ. eigenvalues --   -0.42557  -0.42194  -0.42156  -0.41559  -0.41374
 Alpha  occ. eigenvalues --   -0.41323  -0.41091  -0.40745  -0.40563  -0.40376
 Alpha  occ. eigenvalues --   -0.40086  -0.40009  -0.39813  -0.39593  -0.39514
 Alpha  occ. eigenvalues --   -0.39252  -0.39170  -0.38870  -0.38484  -0.38358
 Alpha  occ. eigenvalues --   -0.38154  -0.37894  -0.37783  -0.37466  -0.37202
 Alpha  occ. eigenvalues --   -0.37136  -0.36920  -0.36675  -0.36572  -0.36400
 Alpha  occ. eigenvalues --   -0.36196  -0.36035  -0.35798  -0.35748  -0.35513
 Alpha  occ. eigenvalues --   -0.35423  -0.35186  -0.35137  -0.34847  -0.34815
 Alpha  occ. eigenvalues --   -0.34522  -0.34217  -0.34033  -0.33740  -0.33210
 Alpha  occ. eigenvalues --   -0.33160  -0.33116  -0.32693  -0.32473  -0.32416
 Alpha  occ. eigenvalues --   -0.32106  -0.32003  -0.31899  -0.31464  -0.31272
 Alpha  occ. eigenvalues --   -0.31162  -0.30963  -0.30187  -0.29927  -0.29741
 Alpha  occ. eigenvalues --   -0.29722  -0.29294  -0.28571  -0.28198  -0.27830
 Alpha  occ. eigenvalues --   -0.27492  -0.27377  -0.26880  -0.26467  -0.25823
 Alpha  occ. eigenvalues --   -0.25558  -0.24698  -0.23776  -0.23578  -0.19940
 Alpha  occ. eigenvalues --   -0.18654
 Alpha virt. eigenvalues --   -0.10031  -0.07522  -0.04363  -0.01008  -0.00016
 Alpha virt. eigenvalues --    0.00383   0.01045   0.01201   0.02091   0.03484
 Alpha virt. eigenvalues --    0.03683   0.03888   0.04014   0.04150   0.04285

 Mulliken charges:
               1
     1  C    0.070891
     2  C   -0.053619
     3  C   -0.106032
     4  C   -0.109188
     5  N   -0.197333
     6  C   -0.023931
     7  C   -0.088830
     8  C    0.040003
     9  C   -0.018670
    10  C   -0.007288
    11  C    0.149875
    12  C    0.052770
    13  C    0.169603
    14  O   -0.196034
    15  O   -0.321293
    16  N   -0.016430
    17  C    0.106663
    18  C   -0.136141
    19  C    0.010618
    20  C    0.104901
    21  C   -0.058263
    22  C   -0.021713
    23  C   -0.095111
    24  N   -0.136105
    25  C    0.062289
    26  C   -0.143080
    27  C   -0.134508
    28  C   -0.058808
    29  C   -0.045123
    30  C    0.336342
    31  C    0.017646
    32  N    0.148669
    33  C    0.094375
    34  C   -0.161594
    35  C    0.009880
    36  C    0.019465
    37  C    0.031973
    38  C    0.080676
    39  O   -0.120079
    40  C   -0.115557
    41  C    0.190685
    42  O   -0.276491
    43  O   -0.280638
    44  C    0.121835
    45  C    0.201503
    46  C   -0.112143
    47  C   -0.116121
    48  C    0.069151
    49  C    0.063064
    50  C    0.081703
    51  C    0.020218
    52  C   -0.063645
    53  C    0.050742
    54  C    0.005993
    55  C    0.010899
    56  C    0.078691
    57  C   -0.108209
    58  C    0.033402
    59  C    0.058911
    60  C   -0.043714
    61  C    0.023700
    62  C   -0.080119
    63  C   -0.113455
    64  C    0.032056
    65  H   -0.065645
    66  H   -0.064386
    67  H    0.019772
    68  H   -0.010450
    69  H   -0.024744
    70  H    0.037766
    71  H    0.024645
    72  H    0.049384
    73  H    0.012543
    74  H    0.011001
    75  H   -0.046892
    76  H    0.043199
    77  H    0.056583
    78  H    0.053803
    79  H    0.062407
    80  H    0.022439
    81  H    0.047726
    82  H    0.041709
    83  H    0.038070
    84  H    0.052314
    85  H    0.040905
    86  H   -0.029483
    87  H   -0.134401
    88  H    0.042709
    89  H   -0.023267
    90  H   -0.012476
    91  H    0.056173
    92  H    0.068929
    93  H    0.048091
    94  H    0.079713
    95  H    0.068904
    96  H    0.043551
    97  H    0.052350
    98  H    0.043714
    99  H    0.009702
   100  H    0.002812
   101  H    0.015988
   102  H    0.049449
   103  H    0.027104
   104  H   -0.015775
   105  H    0.002806
   106  H   -0.003655
   107  H   -0.090499
   108  H    0.005251
   109  H   -0.007654
   110  H   -0.022810
   111  H    0.006696
   112  H    0.020901
   113  H    0.015084
   114  H   -0.023372
   115  H   -0.004026
   116  H   -0.019336
   117  H   -0.023463
   118  H   -0.041087
   119  H    0.016753
   120  H   -0.010872
   121  H   -0.006135
   122  H    0.038239
   123  H    0.011575
   124  H   -0.007188
   125  H   -0.000686
   126  H   -0.001702
   127  H   -0.022339
   128  H    0.016464
   129  H    0.019334
   130  H    0.018293
   131  H    0.040928
   132  H    0.035404
   133  H    0.033513
   134  H    0.007954
   135  H    0.019477
   136  H   -0.009602
   137  H    0.176294
   138  H    0.023595
 Sum of Mulliken charges =  -0.00000

 Dipole moment (field-independent basis, Debye):
    X=              1.5723    Y=              3.1938    Z=             -0.3079  Tot=              3.5731
 Quadrupole moment (field-independent basis, Debye-Ang):
   XX=           -355.3968   YY=           -387.3301   ZZ=           -396.8005
   XY=              0.0782   XZ=             11.0756   YZ=              2.5773

 Normal termination of Gaussian 16 at Mon Aug 26 22:23:28 2019.
