 Gaussian 16, Revision A.03,
 Gaussian 16:  ES64L-G16RevA.03 25-Dec-2016

 --------------------------
 # td=(NStates=1) B3LYP/SVP
 --------------------------

 --
 TD
 --
 Symbolic Z-matrix:
 Charge =  0 Multiplicity = 1

                         Standard orientation:
 ---------------------------------------------------------------------
 Center     Atomic      Atomic             Coordinates (Angstroms)
 Number     Number       Type             X           Y           Z
 ---------------------------------------------------------------------
      1          6           0       -5.097498   -1.967008    0.446611
      2          6           0       -4.727448    2.821626    1.254753
      3          6           0       -9.331608    3.385133   -0.248674
      4          6           0       -9.746258   -1.465791   -1.078993
      5          7           0       -5.117510    0.396346    0.658227
      6          6           0       -4.433962   -0.741155    0.763965
      7          6           0       -3.041994   -0.570597    1.155403
      8          6           0       -3.021833    0.846284    1.679317
      9          6           0       -4.379945    1.411384    1.166277
     10          6           0       -2.872894    1.004266    3.190748
     11          6           0       -1.990981   -0.753407    0.023686
     12          6           0       -0.621393   -0.855799    0.484932
     13          6           0        0.401541   -1.077955   -0.592547
     14          8           0        0.066615   -1.385792   -1.752121
     15          8           0        1.621066   -1.001580   -0.114141
     16          7           0       -7.101763    2.762625    0.532560
     17          6           0       -5.981725    3.443410    0.976434
     18          6           0       -6.289182    4.810198    1.003117
     19          6           0       -7.527418    5.041587    0.625875
     20          6           0       -8.050374    3.691692    0.202247
     21          6           0       -5.253903    5.791264    1.570648
     22          6           0       -8.262003    6.294790    0.451689
     23          6           0       -9.158162    6.698138   -0.381589
     24          7           0       -9.131826    0.942124   -0.584493
     25          6           0       -9.788929    2.111563   -0.628853
     26          6           0      -11.251865    1.872955   -0.924735
     27          6           0      -11.375215    0.503572   -1.128656
     28          6           0      -10.000445   -0.033101   -0.960608
     29          6           0      -12.257378    2.971464   -0.951939
     30          6           0      -12.643741   -0.161610   -1.661908
     31          6           0      -12.598156   -0.368930   -3.190302
     32          7           0       -7.405804   -1.217429   -0.351564
     33          6           0       -8.506262   -1.984155   -0.696132
     34          6           0       -8.268342   -3.302667   -0.600675
     35          6           0       -6.906432   -3.445616   -0.246314
     36          6           0       -6.413189   -1.974270   -0.078860
     37          6           0       -9.117713   -4.550200   -0.952918
     38          6           0       -5.791218   -4.394491    0.112162
     39          8           0       -5.851642   -5.537388    0.162035
     40          6           0       -4.562901   -3.410792    0.468114
     41          6           0       -3.958278   -3.830533    1.847895
     42          8           0       -4.149875   -3.290418    2.895266
     43          8           0       -3.153075   -4.864904    1.556957
     44          6           0       -2.495055   -5.394881    2.787566
     45          6           0        2.697185   -1.246202   -1.022606
     46          6           0        4.021800   -0.830455   -0.436902
     47          6           0        5.034239   -0.043529   -1.103802
     48          6           0        5.000742    0.536518   -2.537740
     49          6           0        6.296885    0.216998   -0.325144
     50          6           0        7.541066   -0.441943   -0.928806
     51          6           0        8.749174   -0.287399   -0.079084
     52          6           0       10.088433   -0.854068   -0.751373
     53          6           0       10.091017   -2.398065   -0.821523
     54          6           0       11.288684   -0.394433    0.195913
     55          6           0       12.609697   -0.648559   -0.515079
     56          6           0       13.737374   -0.044188    0.278103
     57          6           0       15.179350   -0.052554   -0.377723
     58          6           0       15.670897   -1.559049   -0.460834
     59          6           0       16.232623    0.780165    0.419457
     60          6           0       17.564119    0.687624   -0.176279
     61          6           0       18.518374    1.806933    0.516034
     62          6           0       19.958983    1.780405    0.113465
     63          6           0       20.280310    2.019517   -1.426698
     64          6           0       20.873357    2.772390    1.070953
     65          1           0       -3.747290    3.448402    1.504563
     66          1           0       -9.991216    4.310483   -0.337826
     67          1           0      -10.582097   -2.372613   -1.369047
     68          1           0       -2.679693   -1.287531    2.108356
     69          1           0       -2.169041    1.398415    1.381327
     70          1           0       -1.841276    0.518080    3.320330
     71          1           0       -2.967317    1.973192    3.737744
     72          1           0       -3.506180    0.138302    3.708272
     73          1           0       -2.072957   -1.802780   -0.298094
     74          1           0       -2.203252    0.125898   -0.885625
     75          1           0       -0.524475    0.233104    0.939918
     76          1           0       -0.405471   -1.657417    1.096454
     77          1           0       -4.321976    5.992292    0.933499
     78          1           0       -5.889213    6.847251    1.587628
     79          1           0       -4.798860    5.218654    2.426163
     80          1           0       -8.059500    6.929455    1.357276
     81          1           0       -9.554192    6.075896   -1.182169
     82          1           0       -9.576289    7.721710   -0.367961
     83          1           0      -12.221175    3.511832   -0.038063
     84          1           0      -12.163318    3.737561   -1.775889
     85          1           0      -13.329616    2.441731   -0.865409
     86          1           0      -12.745845   -1.289434   -1.185158
     87          1           0      -13.596946    0.441215   -1.265188
     88          1           0      -12.666787    0.489702   -3.918492
     89          1           0      -11.930251   -1.022620   -3.441082
     90          1           0      -13.610448   -0.648270   -3.579835
     91          1           0       -9.943803   -4.679688   -0.358026
     92          1           0       -9.408980   -4.526215   -1.959739
     93          1           0       -8.514519   -5.552893   -0.972960
     94          1           0       -3.757007   -3.537557   -0.258144
     95          1           0       -1.702670   -6.158617    2.341858
     96          1           0       -1.905551   -4.737367    3.197770
     97          1           0       -3.282257   -6.099515    3.316871
     98          1           0        2.493781   -2.215227   -1.201557
     99          1           0        2.541995   -0.782165   -2.020505
    100          1           0        4.044306   -1.034869    0.650581
    101          1           0        5.244251    1.688204   -2.502086
    102          1           0        5.762293    0.083040   -3.236632
    103          1           0        4.039216    0.418124   -2.907626
    104          1           0        6.442230    1.299609   -0.273832
    105          1           0        6.051845   -0.365033    0.498995
    106          1           0        7.332134   -1.609651   -0.958454
    107          1           0        7.726614   -0.030040   -1.924955
    108          1           0        9.189938    0.818468   -0.095711
    109          1           0        8.697178   -0.784136    0.960420
    110          1           0       10.382103   -0.137405   -1.764769
    111          1           0        9.291935   -2.759044   -1.329750
    112          1           0       11.019065   -2.908946   -1.319023
    113          1           0        9.887264   -2.740245    0.136035
    114          1           0       11.225618    0.674516    0.370015
    115          1           0       11.041600   -0.783696    1.087632
    116          1           0       12.718956   -1.706492   -0.792991
    117          1           0       12.562929    0.049665   -1.446185
    118          1           0       13.596701    1.028961    0.403750
    119          1           0       13.797130   -0.438562    1.286246
    120          1           0       15.097625    0.381444   -1.491255
    121          1           0       14.995919   -2.144658   -0.966441
    122          1           0       16.544877   -1.911027   -1.048923
    123          1           0       15.784556   -1.927151    0.688324
    124          1           0       16.095468    1.777032    0.247101
    125          1           0       16.241036    0.437673    1.445563
    126          1           0       18.001627   -0.250384   -0.102144
    127          1           0       17.555779    0.934638   -1.360607
    128          1           0       18.010852    2.910029    0.398909
    129          1           0       18.487989    1.537820    1.643796
    130          1           0       20.393650    0.874530    0.445048
    131          1           0       19.776387    2.865369   -1.646208
    132          1           0       21.352313    2.042865   -1.711978
    133          1           0       20.094659    1.172497   -2.151228
    134          1           0       20.639656    2.452498    2.142557
    135          1           0       21.765124    2.611512    0.947882
    136          1           0       20.650868    3.922373    1.017566
    137          1           0       -7.044013    1.743502    0.509290
    138          1           0       -7.503275   -0.220143   -0.401670
 ---------------------------------------------------------------------

 SCF Done:  E(RB3LYP) =  -2733.04244525     A.U. after   16 cycles

 Excitation energies and oscillator strengths:

 Excited State   1:      Singlet-A      2.0728 eV  598.16 nm  f=0.1350  <S**2>=0.000
     235 -> 238        0.32635
     236 -> 237        0.62202
 This state for optimization and/or second-order correction.
 Total Energy, E(TD-HF/TD-DFT) =  -2732.96627299
 Copying the excited state density for this state as the 1-particle RhoCI density.

 The electronic state is 1-A.
 Alpha  occ. eigenvalues --  -19.18783 -19.18347 -19.12873 -19.12643 -19.11937
 Alpha  occ. eigenvalues --  -14.37036 -14.37028 -14.32186 -14.29978 -10.31552
 Alpha  occ. eigenvalues --  -10.31420 -10.27836 -10.25608 -10.24390 -10.23639
 Alpha  occ. eigenvalues --  -10.23482 -10.23306 -10.23268 -10.22648 -10.22269
 Alpha  occ. eigenvalues --  -10.22084 -10.21794 -10.21748 -10.21440 -10.21184
 Alpha  occ. eigenvalues --  -10.21003 -10.20868 -10.20847 -10.20779 -10.20772
 Alpha  occ. eigenvalues --  -10.20722 -10.20545 -10.20533 -10.20498 -10.20442
 Alpha  occ. eigenvalues --  -10.20392 -10.20156 -10.20072 -10.20007 -10.19957
 Alpha  occ. eigenvalues --  -10.19829 -10.19734 -10.19648 -10.19628 -10.19624
 Alpha  occ. eigenvalues --  -10.19575 -10.19401 -10.19228 -10.19121 -10.18984
 Alpha  occ. eigenvalues --  -10.18712 -10.18601 -10.18518 -10.18025 -10.17972
 Alpha  occ. eigenvalues --  -10.17947 -10.17922 -10.17678 -10.17629 -10.17445
 Alpha  occ. eigenvalues --  -10.17255 -10.17181 -10.16922 -10.16668  -1.10860
 Alpha  occ. eigenvalues --   -1.09398  -1.06735  -1.01436  -1.00055  -0.99625
 Alpha  occ. eigenvalues --   -0.98323  -0.95266  -0.92971  -0.82904  -0.82763
 Alpha  occ. eigenvalues --   -0.82634  -0.82431  -0.81558  -0.81268  -0.80522
 Alpha  occ. eigenvalues --   -0.80028  -0.78953  -0.78331  -0.78203  -0.77670
 Alpha  occ. eigenvalues --   -0.77090  -0.76661  -0.75670  -0.75052  -0.74000
 Alpha  occ. eigenvalues --   -0.73503  -0.72822  -0.72146  -0.71542  -0.70351
 Alpha  occ. eigenvalues --   -0.69551  -0.69044  -0.68891  -0.68471  -0.67960
 Alpha  occ. eigenvalues --   -0.67459  -0.66864  -0.66615  -0.65647  -0.65335
 Alpha  occ. eigenvalues --   -0.63727  -0.63030  -0.62506  -0.61782  -0.61119
 Alpha  occ. eigenvalues --   -0.61010  -0.58809  -0.58063  -0.57700  -0.57426
 Alpha  occ. eigenvalues --   -0.57132  -0.56966  -0.55803  -0.55306  -0.55149
 Alpha  occ. eigenvalues --   -0.55122  -0.54599  -0.54121  -0.53614  -0.52869
 Alpha  occ. eigenvalues --   -0.52349  -0.51492  -0.51382  -0.51228  -0.50637
 Alpha  occ. eigenvalues --   -0.50348  -0.49779  -0.49083  -0.48816  -0.48789
 Alpha  occ. eigenvalues --   -0.48591  -0.48120  -0.47904  -0.47611  -0.47192
 Alpha  occ. eigenvalues --   -0.47011  -0.46756  -0.46577  -0.46386  -0.45902
 Alpha  occ. eigenvalues --   -0.45507  -0.45483  -0.45344  -0.45114  -0.44893
 Alpha  occ. eigenvalues --   -0.44665  -0.44421  -0.43773  -0.43724  -0.43508
 Alpha  occ. eigenvalues --   -0.43352  -0.43066  -0.42848  -0.42660  -0.42563
 Alpha  occ. eigenvalues --   -0.42212  -0.42121  -0.41838  -0.41612  -0.41289
 Alpha  occ. eigenvalues --   -0.41151  -0.40917  -0.40644  -0.40490  -0.40101
 Alpha  occ. eigenvalues --   -0.40045  -0.40007  -0.39779  -0.39734  -0.39322
 Alpha  occ. eigenvalues --   -0.39271  -0.39072  -0.38938  -0.38739  -0.38709
 Alpha  occ. eigenvalues --   -0.38470  -0.38395  -0.38139  -0.37761  -0.37728
 Alpha  occ. eigenvalues --   -0.37527  -0.37409  -0.37126  -0.37056  -0.37007
 Alpha  occ. eigenvalues --   -0.36515  -0.36419  -0.36055  -0.35942  -0.35827
 Alpha  occ. eigenvalues --   -0.35479  -0.35451  -0.35024  -0.34578  -0.34202
 Alpha  occ. eigenvalues --   -0.34015  -0.33803  -0.33743  -0.33610  -0.33309
 Alpha  occ. eigenvalues --   -0.33157  -0.33136  -0.32955  -0.32785  -0.32247
 Alpha  occ. eigenvalues --   -0.32177  -0.31694  -0.31543  -0.31371  -0.31296
 Alpha  occ. eigenvalues --   -0.31281  -0.30966  -0.30829  -0.30609  -0.30600
 Alpha  occ. eigenvalues --   -0.30085  -0.29421  -0.28534  -0.28126  -0.27962
 Alpha  occ. eigenvalues --   -0.27437  -0.27058  -0.26094  -0.25918  -0.25728
 Alpha  occ. eigenvalues --   -0.25194  -0.24692  -0.24505  -0.22121  -0.19465
 Alpha  occ. eigenvalues --   -0.18304
 Alpha virt. eigenvalues --   -0.09440  -0.07380  -0.03584  -0.02428  -0.00781
 Alpha virt. eigenvalues --    0.00144   0.00529   0.01353   0.02623   0.03502
 Alpha virt. eigenvalues --    0.03547   0.03799   0.04192   0.04693   0.04819

 Mulliken charges:
               1
     1  C    0.003506
     2  C   -0.105771
     3  C   -0.122223
     4  C   -0.140042
     5  N   -0.155432
     6  C   -0.003367
     7  C   -0.122259
     8  C   -0.023868
     9  C   -0.009786
    10  C    0.004797
    11  C    0.040042
    12  C    0.050894
    13  C    0.158836
    14  O   -0.272574
    15  O   -0.286774
    16  N   -0.052179
    17  C    0.095549
    18  C   -0.107588
    19  C    0.030560
    20  C    0.062775
    21  C    0.045419
    22  C   -0.038637
    23  C   -0.043266
    24  N   -0.225073
    25  C    0.089624
    26  C   -0.162355
    27  C   -0.080977
    28  C    0.060515
    29  C    0.100827
    30  C   -0.011628
    31  C    0.075684
    32  N    0.087448
    33  C    0.068317
    34  C   -0.157537
    35  C   -0.095752
    36  C    0.015670
    37  C    0.131967
    38  C    0.091137
    39  O   -0.085838
    40  C   -0.066833
    41  C    0.187339
    42  O   -0.203279
    43  O   -0.317462
    44  C    0.192305
    45  C    0.318451
    46  C   -0.096920
    47  C   -0.175702
    48  C    0.071262
    49  C    0.177416
    50  C    0.006995
    51  C   -0.028033
    52  C   -0.185354
    53  C    0.118259
    54  C    0.072083
    55  C    0.068822
    56  C    0.060423
    57  C   -0.129901
    58  C    0.020226
    59  C    0.158466
    60  C   -0.008795
    61  C   -0.039645
    62  C   -0.061749
    63  C    0.048331
    64  C    0.073413
    65  H    0.014785
    66  H   -0.008261
    67  H    0.051785
    68  H    0.040517
    69  H   -0.019358
    70  H    0.005210
    71  H    0.038152
    72  H    0.034123
    73  H   -0.004883
    74  H    0.055020
    75  H    0.032913
    76  H    0.004750
    77  H    0.031785
    78  H    0.043964
    79  H    0.039212
    80  H    0.020879
    81  H    0.023171
    82  H    0.029819
    83  H    0.006588
    84  H    0.033249
    85  H    0.013685
    86  H    0.014133
    87  H    0.024042
    88  H    0.006583
    89  H   -0.024803
    90  H   -0.006377
    91  H    0.005953
    92  H    0.007137
    93  H    0.043369
    94  H    0.052951
    95  H    0.029972
    96  H    0.002164
    97  H    0.077217
    98  H   -0.029207
    99  H    0.013357
   100  H    0.014032
   101  H    0.033263
   102  H    0.048280
   103  H   -0.008495
   104  H    0.006592
   105  H   -0.037034
   106  H    0.011734
   107  H   -0.003842
   108  H    0.011705
   109  H    0.014556
   110  H    0.007974
   111  H   -0.029057
   112  H    0.030414
   113  H   -0.022632
   114  H   -0.026653
   115  H   -0.050609
   116  H    0.010421
   117  H   -0.002660
   118  H   -0.016994
   119  H   -0.019633
   120  H   -0.001275
   121  H   -0.027366
   122  H    0.008676
   123  H    0.012950
   124  H   -0.036999
   125  H   -0.009118
   126  H   -0.021834
   127  H    0.007313
   128  H    0.015781
   129  H    0.002238
   130  H   -0.019676
   131  H   -0.006549
   132  H   -0.001465
   133  H    0.008768
   134  H    0.001344
   135  H   -0.065129
   136  H    0.017938
   137  H    0.146334
   138  H    0.122358
 Sum of Mulliken charges =  -0.00000

 Dipole moment (field-independent basis, Debye):
    X=              4.1304    Y=              2.5799    Z=              0.6797  Tot=              4.9172
 Quadrupole moment (field-independent basis, Debye-Ang):
   XX=           -367.8504   YY=           -377.3655   ZZ=           -397.3917
   XY=            -28.2437   XZ=              7.6039   YZ=             -3.8292

 Normal termination of Gaussian 16 at Mon Aug 12 02:59:00 2019.
