 Gaussian 16, Revision A.03,
 Gaussian 16:  ES64L-G16RevA.03 25-Dec-2016

 --------------------------
 # td=(NStates=1) B3LYP/SVP
 --------------------------

 --
 TD
 --
 Symbolic Z-matrix:
 Charge =  0 Multiplicity = 1

                         Standard orientation:
 ---------------------------------------------------------------------
 Center     Atomic      Atomic             Coordinates (Angstroms)
 Number     Number       Type             X           Y           Z
 ---------------------------------------------------------------------
      1          6           0       -5.121136   -1.956249    0.377234
      2          6           0       -4.673476    2.704708    1.465528
      3          6           0       -9.235669    3.342721   -0.203038
      4          6           0       -9.878374   -1.484371   -0.854989
      5          7           0       -5.109326    0.480607    0.681631
      6          6           0       -4.547913   -0.743467    0.724435
      7          6           0       -3.107619   -0.639476    1.182204
      8          6           0       -3.009056    0.793243    1.789603
      9          6           0       -4.325420    1.406325    1.223966
     10          6           0       -2.999287    0.686652    3.438005
     11          6           0       -2.047370   -0.815450    0.098504
     12          6           0       -0.625752   -0.673886    0.465557
     13          6           0        0.346182   -0.860792   -0.639678
     14          8           0        0.112901   -1.311019   -1.706824
     15          8           0        1.598256   -0.414661   -0.298929
     16          7           0       -6.948991    2.826532    0.355783
     17          6           0       -5.772770    3.394179    0.941610
     18          6           0       -6.135822    4.720798    1.088167
     19          6           0       -7.368645    4.974915    0.540525
     20          6           0       -7.918421    3.669887    0.248081
     21          6           0       -5.055907    5.810977    1.491908
     22          6           0       -7.992481    6.294234    0.415414
     23          6           0       -8.924018    6.754961   -0.448809
     24          7           0       -9.186850    0.790635   -0.322478
     25          6           0       -9.788069    2.081608   -0.432341
     26          6           0      -11.259415    1.945791   -0.858847
     27          6           0      -11.339876    0.645728   -1.208865
     28          6           0      -10.077299   -0.068784   -0.792846
     29          6           0      -12.139746    3.090463   -1.113053
     30          6           0      -12.517938   -0.255225   -1.627127
     31          6           0      -12.511435   -0.480807   -3.143807
     32          7           0       -7.622726   -1.238309   -0.189289
     33          6           0       -8.613169   -2.016327   -0.699493
     34          6           0       -8.214466   -3.403921   -0.627562
     35          6           0       -6.892296   -3.479859   -0.246817
     36          6           0       -6.493413   -2.126466   -0.152293
     37          6           0       -9.055007   -4.539876   -1.082345
     38          6           0       -5.762184   -4.316118   -0.027339
     39          8           0       -5.725138   -5.517604   -0.108713
     40          6           0       -4.479364   -3.310945    0.352346
     41          6           0       -3.955589   -3.865083    1.709484
     42          8           0       -4.066591   -3.302280    2.884701
     43          8           0       -3.241903   -5.007780    1.516395
     44          6           0       -2.715558   -5.588433    2.730274
     45          6           0        2.664584   -0.852573   -1.166164
     46          6           0        4.001540   -0.521119   -0.590051
     47          6           0        4.964800    0.217487   -1.065469
     48          6           0        4.928210    0.990614   -2.393515
     49          6           0        6.329398    0.251712   -0.312411
     50          6           0        7.446207   -0.536854   -0.908930
     51          6           0        8.692025   -0.368429   -0.090268
     52          6           0        9.972485   -1.000436   -0.641541
     53          6           0        9.941381   -2.456381   -0.797748
     54          6           0       11.280458   -0.517245    0.102995
     55          6           0       12.574683   -0.779462   -0.499184
     56          6           0       13.791634   -0.193639    0.286414
     57          6           0       15.106299   -0.295258   -0.447597
     58          6           0       15.648457   -1.725301   -0.710240
     59          6           0       16.185705    0.537906    0.462006
     60          6           0       17.571177    0.678093   -0.169797
     61          6           0       18.457829    1.730085    0.620127
     62          6           0       19.982057    1.750146    0.086421
     63          6           0       20.028448    2.339725   -1.289513
     64          6           0       20.747417    2.639888    1.140060
     65          1           0       -3.918588    3.402852    1.535598
     66          1           0       -9.944784    4.199569   -0.209200
     67          1           0      -10.664519   -2.190067   -1.220108
     68          1           0       -2.714872   -1.355163    1.892574
     69          1           0       -2.269875    1.209122    1.464236
     70          1           0       -2.021107    0.253588    3.639434
     71          1           0       -2.916129    1.708236    3.854002
     72          1           0       -3.708098    0.175900    4.014076
     73          1           0       -2.132656   -1.896578   -0.287983
     74          1           0       -2.311267   -0.073366   -0.531023
     75          1           0       -0.453749    0.481991    0.605263
     76          1           0       -0.263176   -1.301101    1.263873
     77          1           0       -4.225956    5.739899    0.734363
     78          1           0       -5.310781    6.915586    1.451786
     79          1           0       -4.606131    5.687286    2.564581
     80          1           0       -7.534342    6.951577    1.134695
     81          1           0       -9.426880    6.214630   -1.204328
     82          1           0       -9.277051    7.817919   -0.354278
     83          1           0      -11.767473    3.830136   -0.179126
     84          1           0      -11.987619    3.789680   -2.031975
     85          1           0      -13.377698    2.750424   -1.103668
     86          1           0      -12.434649   -1.259116   -1.180412
     87          1           0      -13.401908    0.138477   -1.246701
     88          1           0      -12.252604    0.577233   -3.589843
     89          1           0      -11.501787   -1.098332   -3.587822
     90          1           0      -13.440574   -0.942861   -3.376566
     91          1           0      -10.080988   -4.396060   -0.699212
     92          1           0       -9.341482   -4.402317   -2.090406
     93          1           0       -8.437587   -5.356185   -1.130082
     94          1           0       -3.797036   -3.459133   -0.496175
     95          1           0       -2.164308   -6.434497    2.522791
     96          1           0       -2.002289   -4.735215    3.181536
     97          1           0       -3.573264   -5.868138    3.450062
     98          1           0        2.566590   -2.010062   -1.145365
     99          1           0        2.363442   -0.269508   -2.129934
    100          1           0        4.402606   -0.875612    0.346141
    101          1           0        5.349777    2.059272   -2.260873
    102          1           0        5.572168    0.577853   -3.183192
    103          1           0        3.877848    1.330387   -2.573715
    104          1           0        6.496220    1.285906   -0.051381
    105          1           0        6.164659   -0.281579    0.698891
    106          1           0        7.102918   -1.550382   -1.070515
    107          1           0        7.712638   -0.256302   -1.955962
    108          1           0        8.796580    0.810887   -0.039172
    109          1           0        8.590413   -0.583886    1.185345
    110          1           0       10.326213   -0.611710   -1.535902
    111          1           0        9.112245   -2.948693   -1.318197
    112          1           0       10.876016   -2.691069   -1.458136
    113          1           0       10.024982   -3.036450    0.245302
    114          1           0       11.153620    0.367689    0.444233
    115          1           0       11.371745   -1.179800    1.072761
    116          1           0       12.753999   -1.944133   -0.470674
    117          1           0       12.525533   -0.681742   -1.645839
    118          1           0       13.507532    0.928536    0.479003
    119          1           0       13.794744   -0.698192    1.184612
    120          1           0       15.115697    0.202279   -1.420362
    121          1           0       15.095038   -2.172728   -1.647715
    122          1           0       16.418183   -1.934134   -1.252038
    123          1           0       15.594205   -2.492763    0.146568
    124          1           0       15.807377    1.518374    0.850511
    125          1           0       16.318484    0.142161    1.430157
    126          1           0       17.894686   -0.354470   -0.060917
    127          1           0       17.428331    0.956691   -1.242571
    128          1           0       18.192698    2.848685    0.365217
    129          1           0       18.583162    1.377098    1.761377
    130          1           0       20.227334    0.643316    0.159488
    131          1           0       19.450482    3.208683   -1.465897
    132          1           0       21.089596    2.707811   -1.915056
    133          1           0       19.791541    1.548148   -1.957349
    134          1           0       20.515134    2.200865    2.238026
    135          1           0       21.885381    2.497259    0.833358
    136          1           0       20.348550    3.768877    1.053199
    137          1           0       -7.231724    1.828259    0.340915
    138          1           0       -7.692451   -0.385000   -0.232029
 ---------------------------------------------------------------------

 SCF Done:  E(RB3LYP) =  -2733.00005474     A.U. after   18 cycles

 Excitation energies and oscillator strengths:

 Excited State   1:      Singlet-A      1.9347 eV  640.85 nm  f=0.2178  <S**2>=0.000
     235 -> 237       -0.10765
     235 -> 238       -0.24899
     236 -> 237        0.64729
 This state for optimization and/or second-order correction.
 Total Energy, E(TD-HF/TD-DFT) =  -2732.92895666
 Copying the excited state density for this state as the 1-particle RhoCI density.

 The electronic state is 1-A.
 Alpha  occ. eigenvalues --  -19.18850 -19.16114 -19.13522 -19.12415 -19.12128
 Alpha  occ. eigenvalues --  -14.36562 -14.35983 -14.31813 -14.30960 -10.32935
 Alpha  occ. eigenvalues --  -10.30657 -10.28958 -10.25722 -10.25317 -10.24670
 Alpha  occ. eigenvalues --  -10.23192 -10.23186 -10.23162 -10.22922 -10.22757
 Alpha  occ. eigenvalues --  -10.22685 -10.22665 -10.22196 -10.22109 -10.21806
 Alpha  occ. eigenvalues --  -10.21192 -10.21031 -10.20658 -10.20455 -10.20446
 Alpha  occ. eigenvalues --  -10.20379 -10.20352 -10.20318 -10.20287 -10.20106
 Alpha  occ. eigenvalues --  -10.20085 -10.19988 -10.19755 -10.19752 -10.19719
 Alpha  occ. eigenvalues --  -10.19599 -10.19523 -10.19509 -10.19468 -10.19151
 Alpha  occ. eigenvalues --  -10.18881 -10.18864 -10.18819 -10.18779 -10.18706
 Alpha  occ. eigenvalues --  -10.18642 -10.18583 -10.18530 -10.18479 -10.18430
 Alpha  occ. eigenvalues --  -10.18414 -10.18352 -10.18293 -10.18181 -10.18121
 Alpha  occ. eigenvalues --  -10.18077 -10.17894 -10.17287 -10.16879  -1.09175
 Alpha  occ. eigenvalues --   -1.08221  -1.04264  -1.00777  -0.99476  -0.99223
 Alpha  occ. eigenvalues --   -0.96539  -0.94614  -0.93074  -0.85664  -0.83118
 Alpha  occ. eigenvalues --   -0.82494  -0.82132  -0.81864  -0.81675  -0.80557
 Alpha  occ. eigenvalues --   -0.80509  -0.79670  -0.79199  -0.79057  -0.77707
 Alpha  occ. eigenvalues --   -0.76864  -0.76175  -0.76035  -0.74818  -0.74199
 Alpha  occ. eigenvalues --   -0.73821  -0.73408  -0.72803  -0.72165  -0.71107
 Alpha  occ. eigenvalues --   -0.69651  -0.69247  -0.68480  -0.68440  -0.67743
 Alpha  occ. eigenvalues --   -0.67715  -0.66920  -0.66733  -0.65659  -0.64786
 Alpha  occ. eigenvalues --   -0.64482  -0.63391  -0.63129  -0.61751  -0.61219
 Alpha  occ. eigenvalues --   -0.60496  -0.59480  -0.58830  -0.58416  -0.57856
 Alpha  occ. eigenvalues --   -0.56871  -0.56663  -0.56606  -0.56063  -0.55671
 Alpha  occ. eigenvalues --   -0.55086  -0.54268  -0.54040  -0.53812  -0.52940
 Alpha  occ. eigenvalues --   -0.52425  -0.51992  -0.51780  -0.51355  -0.50803
 Alpha  occ. eigenvalues --   -0.50448  -0.49905  -0.48792  -0.48665  -0.48374
 Alpha  occ. eigenvalues --   -0.48324  -0.48087  -0.47858  -0.47757  -0.47310
 Alpha  occ. eigenvalues --   -0.47124  -0.46723  -0.46645  -0.46250  -0.45679
 Alpha  occ. eigenvalues --   -0.45500  -0.45394  -0.45249  -0.45124  -0.44896
 Alpha  occ. eigenvalues --   -0.44711  -0.44526  -0.44180  -0.44025  -0.43857
 Alpha  occ. eigenvalues --   -0.43478  -0.43246  -0.42837  -0.42683  -0.42458
 Alpha  occ. eigenvalues --   -0.42206  -0.42055  -0.41794  -0.41660  -0.41499
 Alpha  occ. eigenvalues --   -0.41207  -0.40819  -0.40670  -0.40453  -0.40200
 Alpha  occ. eigenvalues --   -0.39912  -0.39900  -0.39815  -0.39698  -0.39528
 Alpha  occ. eigenvalues --   -0.39451  -0.39261  -0.38926  -0.38701  -0.38559
 Alpha  occ. eigenvalues --   -0.38415  -0.38275  -0.37930  -0.37763  -0.37516
 Alpha  occ. eigenvalues --   -0.37482  -0.37410  -0.37248  -0.36523  -0.36436
 Alpha  occ. eigenvalues --   -0.36367  -0.36140  -0.36043  -0.35927  -0.35751
 Alpha  occ. eigenvalues --   -0.35643  -0.35587  -0.35257  -0.35169  -0.35107
 Alpha  occ. eigenvalues --   -0.34528  -0.34218  -0.34080  -0.33858  -0.33390
 Alpha  occ. eigenvalues --   -0.33112  -0.33022  -0.33004  -0.32641  -0.32192
 Alpha  occ. eigenvalues --   -0.31870  -0.31740  -0.31362  -0.31270  -0.31116
 Alpha  occ. eigenvalues --   -0.30953  -0.30615  -0.30584  -0.29883  -0.29720
 Alpha  occ. eigenvalues --   -0.29341  -0.28849  -0.28758  -0.27679  -0.27528
 Alpha  occ. eigenvalues --   -0.27308  -0.26872  -0.26625  -0.26405  -0.26218
 Alpha  occ. eigenvalues --   -0.25824  -0.25601  -0.24023  -0.23646  -0.20448
 Alpha  occ. eigenvalues --   -0.18615
 Alpha virt. eigenvalues --   -0.10884  -0.07812  -0.05294  -0.02251  -0.01436
 Alpha virt. eigenvalues --    0.00216   0.00658   0.01388   0.02006   0.03384
 Alpha virt. eigenvalues --    0.03821   0.03890   0.04196   0.04296   0.04778

 Mulliken charges:
               1
     1  C    0.003882
     2  C    0.050817
     3  C   -0.084350
     4  C   -0.091969
     5  N   -0.128609
     6  C    0.001522
     7  C   -0.056757
     8  C    0.130549
     9  C   -0.035585
    10  C    0.075945
    11  C    0.082286
    12  C    0.047243
    13  C    0.134295
    14  O   -0.200367
    15  O   -0.352276
    16  N   -0.030565
    17  C    0.046611
    18  C   -0.083554
    19  C    0.020518
    20  C   -0.011188
    21  C   -0.007657
    22  C   -0.019009
    23  C   -0.026465
    24  N   -0.261985
    25  C    0.089919
    26  C   -0.090410
    27  C   -0.082721
    28  C    0.047985
    29  C   -0.065703
    30  C    0.099923
    31  C   -0.047690
    32  N    0.076492
    33  C    0.088835
    34  C   -0.212668
    35  C    0.066366
    36  C    0.067799
    37  C    0.220403
    38  C    0.010112
    39  O   -0.146205
    40  C   -0.039891
    41  C    0.262815
    42  O   -0.307231
    43  O   -0.296296
    44  C    0.173337
    45  C    0.279360
    46  C   -0.021632
    47  C   -0.212323
    48  C    0.059915
    49  C    0.043412
    50  C    0.084902
    51  C   -0.045067
    52  C    0.012059
    53  C   -0.011838
    54  C    0.093467
    55  C   -0.032565
    56  C    0.076453
    57  C   -0.020309
    58  C    0.044846
    59  C    0.011792
    60  C    0.061917
    61  C   -0.060236
    62  C   -0.109272
    63  C    0.021166
    64  C   -0.028635
    65  H   -0.036768
    66  H   -0.016696
    67  H   -0.007251
    68  H   -0.017004
    69  H   -0.141311
    70  H    0.001103
    71  H    0.000420
    72  H    0.027738
    73  H    0.022150
    74  H   -0.043352
    75  H    0.043493
    76  H    0.026809
    77  H    0.041716
    78  H    0.023993
    79  H    0.042800
    80  H   -0.010622
    81  H    0.010773
    82  H    0.029589
    83  H    0.050508
    84  H    0.057953
    85  H    0.050761
    86  H   -0.001128
    87  H   -0.018963
    88  H    0.030725
    89  H    0.032514
    90  H    0.019614
    91  H    0.015899
    92  H   -0.007523
    93  H    0.006896
    94  H    0.072014
    95  H    0.016868
    96  H    0.047493
    97  H    0.054689
    98  H    0.030666
    99  H    0.041895
   100  H   -0.033983
   101  H    0.001648
   102  H    0.040007
   103  H    0.020511
   104  H    0.000908
   105  H   -0.002153
   106  H   -0.009803
   107  H   -0.008361
   108  H    0.001276
   109  H    0.013575
   110  H   -0.037699
   111  H    0.009792
   112  H    0.015310
   113  H    0.014742
   114  H   -0.079166
   115  H   -0.019690
   116  H    0.005765
   117  H   -0.009443
   118  H    0.010971
   119  H   -0.021649
   120  H   -0.010549
   121  H   -0.009813
   122  H   -0.042474
   123  H    0.025193
   124  H   -0.024028
   125  H   -0.040346
   126  H   -0.000702
   127  H    0.001774
   128  H    0.019069
   129  H    0.022506
   130  H    0.005419
   131  H    0.002045
   132  H    0.006222
   133  H    0.006021
   134  H    0.025264
   135  H    0.034341
   136  H    0.030730
   137  H    0.161965
   138  H    0.010427
 Sum of Mulliken charges =  -0.00000

 Dipole moment (field-independent basis, Debye):
    X=              1.6851    Y=              2.3759    Z=             -0.9302  Tot=              3.0577
 Quadrupole moment (field-independent basis, Debye-Ang):
   XX=           -357.5167   YY=           -380.4514   ZZ=           -398.3113
   XY=            -21.0417   XZ=              7.5197   YZ=             -2.5741

 Normal termination of Gaussian 16 at Sun Aug 25 09:49:52 2019.
