 Gaussian 16, Revision A.03,
 Gaussian 16:  ES64L-G16RevA.03 25-Dec-2016

 --------------------------
 # td=(NStates=1) B3LYP/SVP
 --------------------------

 --
 TD
 --
 Symbolic Z-matrix:
 Charge =  0 Multiplicity = 1

                         Standard orientation:
 ---------------------------------------------------------------------
 Center     Atomic      Atomic             Coordinates (Angstroms)
 Number     Number       Type             X           Y           Z
 ---------------------------------------------------------------------
      1          6           0       -5.245113   -1.981918    0.436345
      2          6           0       -4.668371    2.586559    1.787690
      3          6           0       -9.054051    3.568109   -0.230987
      4          6           0       -9.869408   -1.123185   -1.059781
      5          7           0       -5.169736    0.352040    0.947538
      6          6           0       -4.511012   -0.860933    0.905807
      7          6           0       -3.070975   -0.797766    1.353890
      8          6           0       -3.014222    0.711532    1.945148
      9          6           0       -4.298049    1.237434    1.519196
     10          6           0       -2.965003    0.456022    3.480654
     11          6           0       -2.106666   -0.980876    0.100468
     12          6           0       -0.643459   -0.837286    0.618407
     13          6           0        0.336882   -1.294103   -0.382847
     14          8           0       -0.020774   -1.618137   -1.518769
     15          8           0        1.645988   -1.106769   -0.063031
     16          7           0       -6.937143    2.713258    0.642082
     17          6           0       -5.751274    3.322555    1.259622
     18          6           0       -5.935519    4.639322    1.310089
     19          6           0       -7.130585    4.996768    0.704418
     20          6           0       -7.831782    3.774940    0.328571
     21          6           0       -5.010313    5.643264    1.858714
     22          6           0       -7.721473    6.338397    0.571957
     23          6           0       -8.579706    6.744959   -0.375546
     24          7           0       -9.016893    1.217586   -0.673312
     25          6           0       -9.665312    2.368034   -0.710675
     26          6           0      -10.944554    2.406688   -1.282570
     27          6           0      -11.232456    1.005652   -1.439592
     28          6           0      -10.016731    0.352470   -0.981474
     29          6           0      -11.801022    3.540959   -1.465993
     30          6           0      -12.442426    0.383742   -2.009659
     31          6           0      -12.393320   -0.000162   -3.525265
     32          7           0       -7.575003   -1.172848   -0.291362
     33          6           0       -8.672277   -1.834868   -0.730309
     34          6           0       -8.305513   -3.304145   -0.734208
     35          6           0       -6.990103   -3.363563   -0.352942
     36          6           0       -6.564072   -2.060980    0.010977
     37          6           0       -9.227936   -4.431062   -1.173730
     38          6           0       -5.950856   -4.276064   -0.103262
     39          8           0       -5.899449   -5.509624   -0.276916
     40          6           0       -4.762055   -3.443103    0.407756
     41          6           0       -4.271453   -3.956135    1.726449
     42          8           0       -4.578710   -3.612340    2.830365
     43          8           0       -3.457242   -5.104758    1.539001
     44          6           0       -3.139224   -5.791608    2.780154
     45          6           0        2.591688   -1.348270   -1.048640
     46          6           0        3.955452   -1.203158   -0.522781
     47          6           0        4.850107   -0.278932   -0.885791
     48          6           0        4.831057    0.391924   -2.151425
     49          6           0        6.162279   -0.189504   -0.035252
     50          6           0        7.444283   -0.587080   -0.875083
     51          6           0        8.675092   -0.487953    0.003638
     52          6           0       10.036733   -0.882602   -0.765469
     53          6           0       10.110356   -2.373152   -1.230972
     54          6           0       11.257597   -0.296552   -0.017139
     55          6           0       12.619650   -0.495406   -0.750049
     56          6           0       13.805449    0.019795    0.165900
     57          6           0       15.163204   -0.066877   -0.582694
     58          6           0       15.672531   -1.469584   -1.087282
     59          6           0       16.257639    0.619573    0.241336
     60          6           0       17.696612    0.841242   -0.276003
     61          6           0       18.586843    1.519799    0.713331
     62          6           0       20.034202    1.915578    0.106144
     63          6           0       20.003354    2.833397   -1.134136
     64          6           0       21.007075    2.513481    1.127763
     65          1           0       -3.989900    3.228982    2.262412
     66          1           0       -9.741341    4.388644   -0.477610
     67          1           0      -10.697450   -1.664930   -1.530269
     68          1           0       -2.823962   -1.686924    1.977100
     69          1           0       -2.123958    1.351388    1.631016
     70          1           0       -1.902001    0.089064    3.861505
     71          1           0       -3.093572    1.483982    3.943256
     72          1           0       -3.710927   -0.325136    4.006166
     73          1           0       -2.336857   -2.113540   -0.131859
     74          1           0       -2.214188   -0.200858   -0.479697
     75          1           0       -0.357580    0.146521    1.047682
     76          1           0       -0.565651   -1.311184    1.782239
     77          1           0       -4.200898    6.153142    1.046079
     78          1           0       -5.621458    6.588739    1.923769
     79          1           0       -4.536079    5.361675    2.799059
     80          1           0       -7.257848    6.983391    1.282881
     81          1           0       -8.755037    6.211222   -1.403474
     82          1           0       -9.360581    7.698170   -0.230920
     83          1           0      -12.330445    3.911684   -0.549933
     84          1           0      -11.311337    4.465029   -1.829582
     85          1           0      -12.714817    3.301866   -2.206159
     86          1           0      -12.755328   -0.541227   -1.243706
     87          1           0      -13.411466    1.000476   -1.835282
     88          1           0      -12.250398    1.004941   -4.121149
     89          1           0      -11.625493   -0.655144   -3.864178
     90          1           0      -13.267569   -0.274163   -3.707797
     91          1           0      -10.148767   -4.444859   -0.587600
     92          1           0       -9.353662   -4.430584   -2.269303
     93          1           0       -8.619465   -5.320312   -1.061068
     94          1           0       -3.897097   -3.533851   -0.359324
     95          1           0       -2.289333   -6.683123    2.732014
     96          1           0       -2.597331   -5.072001    3.464457
     97          1           0       -3.921532   -6.202855    3.297491
     98          1           0        2.418557   -2.328597   -1.331336
     99          1           0        2.487890   -0.827344   -1.996587
    100          1           0        4.093285   -1.600150    0.472161
    101          1           0        5.105953    1.606757   -2.037734
    102          1           0        5.441273    0.025555   -3.080960
    103          1           0        4.004693    0.451972   -2.616042
    104          1           0        6.087793    0.803806    0.483293
    105          1           0        6.082276   -0.981415    0.837164
    106          1           0        7.054753   -1.461818   -1.205199
    107          1           0        7.467363    0.041132   -1.818151
    108          1           0        8.723199    0.471078    0.732968
    109          1           0        8.588716   -1.282261    0.817260
    110          1           0        9.904429   -0.175103   -1.600327
    111          1           0        8.991979   -2.732341   -1.450479
    112          1           0       10.988282   -2.460865   -2.162088
    113          1           0       10.574877   -3.168687   -0.334041
    114          1           0       11.233143    0.821273    0.172612
    115          1           0       11.223217   -0.698743    1.003540
    116          1           0       12.731850   -1.636766   -1.044400
    117          1           0       12.349200    0.226533   -1.583868
    118          1           0       13.501520    1.079730    0.556916
    119          1           0       13.770780   -0.754107    0.963873
    120          1           0       15.045552    0.678472   -1.424711
    121          1           0       15.093400   -1.853616   -1.861114
    122          1           0       16.470176   -1.455959   -1.703090
    123          1           0       15.756547   -2.084897   -0.419616
    124          1           0       15.996391    1.583144    0.632362
    125          1           0       16.560106    0.044943    1.187001
    126          1           0       17.856504   -0.197476   -0.564814
    127          1           0       17.505404    1.375131   -1.273556
    128          1           0       18.090708    2.544735    0.766616
    129          1           0       18.624811    1.099157    1.722019
    130          1           0       20.368298    0.811740   -0.181852
    131          1           0       19.490020    3.958926   -0.690891
    132          1           0       21.125512    3.179427   -1.652417
    133          1           0       19.426394    2.167023   -2.074036
    134          1           0       20.974655    1.720041    2.168031
    135          1           0       22.079663    2.600010    0.708915
    136          1           0       20.782248    3.599559    1.665334
    137          1           0       -7.169300    1.678142    0.652511
    138          1           0       -7.616623   -0.225810   -0.320501
 ---------------------------------------------------------------------

 SCF Done:  E(RB3LYP) =  -2732.97842345     A.U. after   17 cycles

 Excitation energies and oscillator strengths:

 Excited State   1:      Singlet-A      1.9790 eV  626.50 nm  f=0.1136  <S**2>=0.000
     235 -> 238       -0.36300
     236 -> 237        0.60151
 This state for optimization and/or second-order correction.
 Total Energy, E(TD-HF/TD-DFT) =  -2732.90569700
 Copying the excited state density for this state as the 1-particle RhoCI density.

 The electronic state is 1-A.
 Alpha  occ. eigenvalues --  -19.17981 -19.16956 -19.13526 -19.12442 -19.12248
 Alpha  occ. eigenvalues --  -14.36996 -14.35959 -14.32833 -14.29534 -10.32128
 Alpha  occ. eigenvalues --  -10.32030 -10.27944 -10.24459 -10.24204 -10.24070
 Alpha  occ. eigenvalues --  -10.23704 -10.23356 -10.23232 -10.23218 -10.23164
 Alpha  occ. eigenvalues --  -10.22867 -10.22571 -10.22536 -10.22354 -10.22271
 Alpha  occ. eigenvalues --  -10.21931 -10.21768 -10.21758 -10.21407 -10.21328
 Alpha  occ. eigenvalues --  -10.21326 -10.21229 -10.21154 -10.21083 -10.20802
 Alpha  occ. eigenvalues --  -10.20778 -10.20764 -10.20551 -10.20429 -10.20412
 Alpha  occ. eigenvalues --  -10.19996 -10.19992 -10.19973 -10.19954 -10.19702
 Alpha  occ. eigenvalues --  -10.19654 -10.19585 -10.19470 -10.19399 -10.19322
 Alpha  occ. eigenvalues --  -10.19253 -10.19248 -10.19234 -10.19194 -10.19158
 Alpha  occ. eigenvalues --  -10.18727 -10.18677 -10.18212 -10.18166 -10.17961
 Alpha  occ. eigenvalues --  -10.17745 -10.17723 -10.17177 -10.15326  -1.09905
 Alpha  occ. eigenvalues --   -1.08319  -1.01275  -1.00359  -1.00004  -0.99237
 Alpha  occ. eigenvalues --   -0.95457  -0.94713  -0.94075  -0.86534  -0.82961
 Alpha  occ. eigenvalues --   -0.82116  -0.81403  -0.81324  -0.81025  -0.80398
 Alpha  occ. eigenvalues --   -0.80087  -0.79558  -0.78770  -0.78664  -0.77876
 Alpha  occ. eigenvalues --   -0.77019  -0.76010  -0.75866  -0.74712  -0.74361
 Alpha  occ. eigenvalues --   -0.73852  -0.73034  -0.72489  -0.72158  -0.70784
 Alpha  occ. eigenvalues --   -0.70198  -0.69475  -0.69077  -0.68743  -0.67910
 Alpha  occ. eigenvalues --   -0.67386  -0.66565  -0.65474  -0.65069  -0.64566
 Alpha  occ. eigenvalues --   -0.63828  -0.63545  -0.62916  -0.62373  -0.61372
 Alpha  occ. eigenvalues --   -0.60799  -0.59570  -0.58835  -0.57917  -0.57331
 Alpha  occ. eigenvalues --   -0.57204  -0.56183  -0.56137  -0.55107  -0.54943
 Alpha  occ. eigenvalues --   -0.54537  -0.54448  -0.53802  -0.53343  -0.53037
 Alpha  occ. eigenvalues --   -0.52787  -0.52491  -0.51912  -0.51586  -0.50951
 Alpha  occ. eigenvalues --   -0.50626  -0.49584  -0.49288  -0.48695  -0.48551
 Alpha  occ. eigenvalues --   -0.48277  -0.48082  -0.47651  -0.47084  -0.47040
 Alpha  occ. eigenvalues --   -0.46798  -0.46289  -0.45960  -0.45883  -0.45565
 Alpha  occ. eigenvalues --   -0.45280  -0.45229  -0.44794  -0.44740  -0.44670
 Alpha  occ. eigenvalues --   -0.44525  -0.44104  -0.43861  -0.43460  -0.43404
 Alpha  occ. eigenvalues --   -0.43173  -0.42965  -0.42877  -0.42826  -0.42291
 Alpha  occ. eigenvalues --   -0.42108  -0.41888  -0.41627  -0.41367  -0.41280
 Alpha  occ. eigenvalues --   -0.41241  -0.41159  -0.40688  -0.40570  -0.40446
 Alpha  occ. eigenvalues --   -0.40112  -0.39873  -0.39478  -0.39290  -0.39135
 Alpha  occ. eigenvalues --   -0.38971  -0.38868  -0.38749  -0.38473  -0.38393
 Alpha  occ. eigenvalues --   -0.38340  -0.38126  -0.37679  -0.37563  -0.37467
 Alpha  occ. eigenvalues --   -0.37061  -0.37022  -0.36944  -0.36899  -0.36805
 Alpha  occ. eigenvalues --   -0.36539  -0.36426  -0.36088  -0.35912  -0.35824
 Alpha  occ. eigenvalues --   -0.35675  -0.35368  -0.35289  -0.35214  -0.34835
 Alpha  occ. eigenvalues --   -0.34390  -0.34254  -0.34099  -0.33998  -0.33559
 Alpha  occ. eigenvalues --   -0.33475  -0.33397  -0.32657  -0.32343  -0.32280
 Alpha  occ. eigenvalues --   -0.31878  -0.31763  -0.31542  -0.31162  -0.30732
 Alpha  occ. eigenvalues --   -0.30680  -0.30407  -0.30140  -0.29780  -0.29715
 Alpha  occ. eigenvalues --   -0.29325  -0.29003  -0.28851  -0.28447  -0.28375
 Alpha  occ. eigenvalues --   -0.28105  -0.27847  -0.27595  -0.26794  -0.26000
 Alpha  occ. eigenvalues --   -0.25493  -0.25040  -0.23547  -0.22069  -0.19732
 Alpha  occ. eigenvalues --   -0.19095
 Alpha virt. eigenvalues --   -0.10429  -0.08824  -0.05469  -0.02520  -0.01801
 Alpha virt. eigenvalues --   -0.00968  -0.00797   0.00075   0.01283   0.02956
 Alpha virt. eigenvalues --    0.03352   0.03408   0.03797   0.04454   0.04824

 Mulliken charges:
               1
     1  C    0.012385
     2  C   -0.052062
     3  C   -0.092964
     4  C   -0.070756
     5  N   -0.184377
     6  C   -0.051200
     7  C   -0.095074
     8  C   -0.028892
     9  C    0.050194
    10  C   -0.028502
    11  C    0.180766
    12  C   -0.089487
    13  C    0.239920
    14  O   -0.257313
    15  O   -0.298831
    16  N   -0.186707
    17  C    0.130986
    18  C   -0.082265
    19  C    0.017570
    20  C    0.161223
    21  C    0.048381
    22  C    0.011237
    23  C   -0.106785
    24  N   -0.198399
    25  C    0.015854
    26  C   -0.107641
    27  C   -0.069691
    28  C    0.048446
    29  C    0.047445
    30  C   -0.073178
    31  C    0.126361
    32  N    0.034180
    33  C    0.027902
    34  C   -0.179297
    35  C    0.057771
    36  C    0.106085
    37  C    0.130421
    38  C    0.045169
    39  O   -0.191697
    40  C   -0.053638
    41  C    0.212472
    42  O   -0.197283
    43  O   -0.346414
    44  C    0.178311
    45  C    0.358254
    46  C   -0.079123
    47  C   -0.140528
    48  C    0.093247
    49  C    0.005903
    50  C    0.052086
    51  C   -0.024172
    52  C   -0.006663
    53  C   -0.092389
    54  C   -0.008055
    55  C   -0.028373
    56  C    0.014877
    57  C   -0.019703
    58  C    0.216643
    59  C   -0.032887
    60  C    0.019385
    61  C    0.052811
    62  C   -0.077090
    63  C   -0.120988
    64  C   -0.069446
    65  H   -0.062264
    66  H   -0.047878
    67  H   -0.008237
    68  H    0.019053
    69  H    0.026794
    70  H    0.024100
    71  H    0.013019
    72  H    0.069404
    73  H    0.053822
    74  H   -0.036405
    75  H    0.034393
    76  H    0.039020
    77  H    0.044350
    78  H   -0.000720
    79  H    0.039608
    80  H   -0.010514
    81  H    0.064066
    82  H    0.052934
    83  H    0.026814
    84  H    0.020283
    85  H    0.027197
    86  H    0.018461
    87  H    0.010024
    88  H    0.014290
    89  H    0.015136
    90  H   -0.047225
    91  H    0.039569
    92  H    0.031296
    93  H    0.019988
    94  H    0.086222
    95  H    0.042278
    96  H    0.019363
    97  H    0.016466
    98  H   -0.029932
    99  H   -0.007554
   100  H   -0.020055
   101  H    0.018422
   102  H    0.039872
   103  H   -0.071103
   104  H    0.014156
   105  H    0.007110
   106  H   -0.015206
   107  H    0.013382
   108  H    0.022759
   109  H   -0.007267
   110  H   -0.009125
   111  H    0.047981
   112  H    0.056184
   113  H    0.033864
   114  H   -0.009291
   115  H   -0.021336
   116  H    0.028502
   117  H    0.003745
   118  H    0.019192
   119  H   -0.001004
   120  H   -0.015510
   121  H   -0.029848
   122  H   -0.028437
   123  H   -0.062935
   124  H   -0.031126
   125  H   -0.025605
   126  H   -0.020192
   127  H   -0.001411
   128  H   -0.005352
   129  H    0.008120
   130  H    0.018143
   131  H    0.038763
   132  H    0.044478
   133  H    0.052620
   134  H    0.016937
   135  H    0.035884
   136  H    0.034294
   137  H    0.170428
   138  H    0.078335
 Sum of Mulliken charges =  -0.00000

 Dipole moment (field-independent basis, Debye):
    X=              0.9834    Y=              4.3282    Z=              0.6447  Tot=              4.4851
 Quadrupole moment (field-independent basis, Debye-Ang):
   XX=           -364.3373   YY=           -390.4711   ZZ=           -392.6557
   XY=            -29.0034   XZ=              7.0870   YZ=             -0.9975

 Normal termination of Gaussian 16 at Fri Aug  9 04:58:27 2019.
