 Gaussian 16, Revision A.03,
 Gaussian 16:  ES64L-G16RevA.03 25-Dec-2016

 --------------------------
 # td=(NStates=1) B3LYP/SVP
 --------------------------

 --
 TD
 --
 Symbolic Z-matrix:
 Charge =  0 Multiplicity = 1

                         Standard orientation:
 ---------------------------------------------------------------------
 Center     Atomic      Atomic             Coordinates (Angstroms)
 Number     Number       Type             X           Y           Z
 ---------------------------------------------------------------------
      1          6           0       -5.183096   -1.962809    0.521993
      2          6           0       -4.638235    2.757509    1.460109
      3          6           0       -9.201379    3.385563   -0.223570
      4          6           0       -9.840656   -1.296187   -1.020281
      5          7           0       -5.115005    0.471217    0.871278
      6          6           0       -4.564409   -0.744126    0.832129
      7          6           0       -3.044560   -0.714152    1.372742
      8          6           0       -3.072051    0.740478    2.023390
      9          6           0       -4.364269    1.351328    1.368689
     10          6           0       -3.079536    0.633684    3.520490
     11          6           0       -2.119592   -0.848764    0.159013
     12          6           0       -0.669965   -0.758876    0.471224
     13          6           0        0.427639   -0.903242   -0.663514
     14          8           0        0.109196   -1.310699   -1.715826
     15          8           0        1.628950   -0.636436   -0.196775
     16          7           0       -6.975175    2.795008    0.405759
     17          6           0       -5.803296    3.373950    0.995798
     18          6           0       -6.109675    4.746953    1.105979
     19          6           0       -7.385642    4.995374    0.578898
     20          6           0       -7.948662    3.757296    0.251491
     21          6           0       -5.191255    5.766175    1.736979
     22          6           0       -8.003055    6.268406    0.400061
     23          6           0       -8.754121    6.504016   -0.615770
     24          7           0       -9.054663    0.961068   -0.524161
     25          6           0       -9.742558    2.135535   -0.592203
     26          6           0      -11.048956    1.955651   -1.056668
     27          6           0      -11.247345    0.626359   -1.247907
     28          6           0      -10.019884    0.030075   -0.913874
     29          6           0      -12.054668    3.151758   -1.099272
     30          6           0      -12.509408   -0.097424   -1.647053
     31          6           0      -12.657361   -0.536267   -3.082701
     32          7           0       -7.551475   -1.252298   -0.235020
     33          6           0       -8.668871   -1.952464   -0.695084
     34          6           0       -8.228280   -3.451130   -0.802845
     35          6           0       -6.910936   -3.458536   -0.237518
     36          6           0       -6.448324   -2.146007    0.068346
     37          6           0       -9.194398   -4.499424   -1.243391
     38          6           0       -5.747223   -4.326436    0.022198
     39          8           0       -5.635765   -5.557460   -0.037830
     40          6           0       -4.512890   -3.416632    0.376762
     41          6           0       -4.039248   -3.884828    1.766280
     42          8           0       -4.370014   -3.386022    2.812378
     43          8           0       -3.236455   -4.896732    1.514280
     44          6           0       -2.741001   -5.477592    2.756368
     45          6           0        2.656161   -1.056099   -1.109467
     46          6           0        3.933478   -0.676990   -0.552326
     47          6           0        4.839831    0.083630   -1.164797
     48          6           0        4.567243    0.674553   -2.472514
     49          6           0        6.254356    0.330164   -0.336118
     50          6           0        7.422415   -0.241308   -1.111966
     51          6           0        8.812649    0.062816   -0.291684
     52          6           0       10.022845   -0.653839   -0.899967
     53          6           0       10.001090   -2.284342   -0.865731
     54          6           0       11.159581   -0.227613    0.000673
     55          6           0       12.622645   -0.559828   -0.533542
     56          6           0       13.813420    0.069400    0.268984
     57          6           0       15.232532   -0.187238   -0.430467
     58          6           0       15.588709   -1.757866   -0.394253
     59          6           0       16.257773    0.522495    0.405920
     60          6           0       17.631393    0.570722   -0.203929
     61          6           0       18.755210    1.364035    0.654989
     62          6           0       20.139849    1.556462    0.034363
     63          6           0       20.187223    2.387310   -1.211938
     64          6           0       21.083661    2.126855    1.158565
     65          1           0       -3.811313    3.353908    1.886683
     66          1           0       -9.878548    4.092598   -0.231566
     67          1           0      -10.444311   -2.065158   -1.420000
     68          1           0       -3.003761   -1.180204    2.295005
     69          1           0       -2.264318    1.233405    1.434081
     70          1           0       -2.197217   -0.139471    3.843199
     71          1           0       -2.912621    1.563250    4.294525
     72          1           0       -4.032952    0.052560    3.674561
     73          1           0       -2.251547   -1.928646   -0.300020
     74          1           0       -2.346912   -0.170387   -0.799023
     75          1           0       -0.250222    0.054475    0.961533
     76          1           0       -0.326424   -1.250173    1.315864
     77          1           0       -4.102242    5.815105    1.328935
     78          1           0       -5.584994    6.808406    1.475222
     79          1           0       -5.174264    5.746273    2.905178
     80          1           0       -7.696524    6.958881    1.214103
     81          1           0       -9.023827    5.888012   -1.454459
     82          1           0       -9.148694    7.472733   -0.597380
     83          1           0      -12.315678    3.464069   -0.039587
     84          1           0      -11.780441    4.173801   -1.437491
     85          1           0      -13.053642    2.796343   -1.530714
     86          1           0      -12.832194   -0.967056   -0.904943
     87          1           0      -13.331092    0.495921   -1.505786
     88          1           0      -12.933495    0.126575   -3.905424
     89          1           0      -11.901515   -1.117208   -3.424569
     90          1           0      -13.473646   -1.301256   -3.216375
     91          1           0      -10.183928   -4.802415   -0.459387
     92          1           0       -9.507044   -4.163636   -2.298142
     93          1           0       -8.731019   -5.611826   -1.462062
     94          1           0       -3.574376   -3.381955   -0.123631
     95          1           0       -2.123499   -6.355171    2.375987
     96          1           0       -2.134970   -4.669240    3.441850
     97          1           0       -3.580362   -5.767865    3.364661
     98          1           0        2.535737   -2.185956   -1.215213
     99          1           0        2.342114   -0.450654   -2.131868
    100          1           0        4.262493   -1.215640    0.292305
    101          1           0        4.930296    1.789500   -2.445318
    102          1           0        5.134885    0.174542   -3.208985
    103          1           0        3.637275    0.590532   -2.739534
    104          1           0        6.138050    1.497803   -0.284429
    105          1           0        6.129529    0.053347    0.614014
    106          1           0        7.201088   -1.372271   -1.095033
    107          1           0        7.564901    0.173691   -2.148105
    108          1           0        8.900955    1.087207   -0.304897
    109          1           0        8.586730   -0.261822    0.746827
    110          1           0       10.115503   -0.411652   -1.999758
    111          1           0        9.064331   -2.415919   -1.638614
    112          1           0       10.779290   -2.790394   -1.548655
    113          1           0        9.964079   -2.688108    0.044610
    114          1           0       11.113023    0.889288   -0.064134
    115          1           0       10.994754   -0.634905    0.921295
    116          1           0       12.881707   -1.633772   -0.755456
    117          1           0       12.500011    0.088996   -1.494648
    118          1           0       13.673683    1.243105    0.404791
    119          1           0       13.734695   -0.388821    1.292354
    120          1           0       15.128662    0.234770   -1.383874
    121          1           0       14.766083   -2.265200   -0.890184
    122          1           0       16.447341   -2.125185   -1.009772
    123          1           0       15.613689   -2.252556    0.586704
    124          1           0       15.763983    1.491302    0.359039
    125          1           0       16.240612    0.335020    1.464175
    126          1           0       18.171569   -0.345282   -0.372454
    127          1           0       17.489243    1.251010   -1.153424
    128          1           0       18.262799    2.327692    0.972000
    129          1           0       18.781593    0.879930    1.483026
    130          1           0       20.482432    0.546617   -0.236310
    131          1           0       19.709480    3.452891   -1.239174
    132          1           0       21.154899    2.425671   -1.661482
    133          1           0       19.508608    1.837888   -1.893029
    134          1           0       20.974333    1.648054    2.216911
    135          1           0       22.131509    2.196982    0.952563
    136          1           0       20.528124    3.085573    1.463421
    137          1           0       -7.044481    1.848875    0.380589
    138          1           0       -7.470481   -0.314173   -0.168392
 ---------------------------------------------------------------------

 SCF Done:  E(RB3LYP) =  -2733.07109647     A.U. after   17 cycles

 Excitation energies and oscillator strengths:

 Excited State   1:      Singlet-A      2.0653 eV  600.31 nm  f=0.1264  <S**2>=0.000
     235 -> 237        0.15206
     235 -> 238        0.34363
     236 -> 237        0.58764
     236 -> 238       -0.10543
 This state for optimization and/or second-order correction.
 Total Energy, E(TD-HF/TD-DFT) =  -2732.99519738
 Copying the excited state density for this state as the 1-particle RhoCI density.

 The electronic state is 1-A.
 Alpha  occ. eigenvalues --  -19.18979 -19.17859 -19.12707 -19.11979 -19.11824
 Alpha  occ. eigenvalues --  -14.35665 -14.35247 -14.31766 -14.28884 -10.31280
 Alpha  occ. eigenvalues --  -10.30724 -10.28154 -10.25910 -10.25491 -10.23707
 Alpha  occ. eigenvalues --  -10.23263 -10.23233 -10.23142 -10.23008 -10.22960
 Alpha  occ. eigenvalues --  -10.22908 -10.22285 -10.21285 -10.21222 -10.21171
 Alpha  occ. eigenvalues --  -10.21070 -10.20228 -10.20178 -10.20149 -10.20122
 Alpha  occ. eigenvalues --  -10.20030 -10.19970 -10.19875 -10.19818 -10.19813
 Alpha  occ. eigenvalues --  -10.19764 -10.19672 -10.19641 -10.19639 -10.19516
 Alpha  occ. eigenvalues --  -10.19460 -10.19353 -10.19253 -10.19118 -10.19056
 Alpha  occ. eigenvalues --  -10.19015 -10.19010 -10.18768 -10.18704 -10.18415
 Alpha  occ. eigenvalues --  -10.18277 -10.18247 -10.18219 -10.18177 -10.18133
 Alpha  occ. eigenvalues --  -10.18037 -10.17839 -10.17753 -10.17742 -10.17594
 Alpha  occ. eigenvalues --  -10.17378 -10.17094 -10.17094 -10.16632  -1.11088
 Alpha  occ. eigenvalues --   -1.10822  -1.02527  -1.01634  -1.01060  -0.97096
 Alpha  occ. eigenvalues --   -0.96160  -0.95401  -0.93080  -0.84642  -0.82852
 Alpha  occ. eigenvalues --   -0.82730  -0.81625  -0.81123  -0.80925  -0.80858
 Alpha  occ. eigenvalues --   -0.79459  -0.79290  -0.78995  -0.78705  -0.77567
 Alpha  occ. eigenvalues --   -0.76705  -0.76255  -0.75953  -0.74549  -0.74184
 Alpha  occ. eigenvalues --   -0.73921  -0.73462  -0.72872  -0.71138  -0.70418
 Alpha  occ. eigenvalues --   -0.69657  -0.69110  -0.68564  -0.68176  -0.67720
 Alpha  occ. eigenvalues --   -0.67021  -0.66898  -0.66499  -0.65428  -0.65229
 Alpha  occ. eigenvalues --   -0.64234  -0.62919  -0.62599  -0.62239  -0.61569
 Alpha  occ. eigenvalues --   -0.61216  -0.59087  -0.58655  -0.57691  -0.57303
 Alpha  occ. eigenvalues --   -0.56664  -0.56003  -0.55954  -0.55852  -0.55555
 Alpha  occ. eigenvalues --   -0.55396  -0.55128  -0.55091  -0.54315  -0.53495
 Alpha  occ. eigenvalues --   -0.53011  -0.52070  -0.51170  -0.51040  -0.50642
 Alpha  occ. eigenvalues --   -0.50095  -0.49824  -0.49027  -0.48879  -0.48691
 Alpha  occ. eigenvalues --   -0.48229  -0.47808  -0.47696  -0.47515  -0.47096
 Alpha  occ. eigenvalues --   -0.46858  -0.46685  -0.46522  -0.46139  -0.45479
 Alpha  occ. eigenvalues --   -0.45204  -0.44796  -0.44508  -0.44352  -0.44098
 Alpha  occ. eigenvalues --   -0.44059  -0.43984  -0.43738  -0.43550  -0.43505
 Alpha  occ. eigenvalues --   -0.43351  -0.42996  -0.42796  -0.42619  -0.42119
 Alpha  occ. eigenvalues --   -0.42068  -0.41726  -0.41557  -0.41456  -0.41367
 Alpha  occ. eigenvalues --   -0.41145  -0.40961  -0.40828  -0.40252  -0.40176
 Alpha  occ. eigenvalues --   -0.40045  -0.39921  -0.39630  -0.39461  -0.39329
 Alpha  occ. eigenvalues --   -0.39288  -0.38894  -0.38867  -0.38764  -0.38334
 Alpha  occ. eigenvalues --   -0.38323  -0.38262  -0.38110  -0.38027  -0.37835
 Alpha  occ. eigenvalues --   -0.37806  -0.37290  -0.37179  -0.37034  -0.36925
 Alpha  occ. eigenvalues --   -0.36685  -0.36587  -0.36368  -0.36153  -0.35791
 Alpha  occ. eigenvalues --   -0.35729  -0.35627  -0.35192  -0.34859  -0.34815
 Alpha  occ. eigenvalues --   -0.34444  -0.34256  -0.34170  -0.33816  -0.33576
 Alpha  occ. eigenvalues --   -0.33286  -0.33178  -0.33118  -0.32612  -0.32531
 Alpha  occ. eigenvalues --   -0.32514  -0.31845  -0.31702  -0.31535  -0.31524
 Alpha  occ. eigenvalues --   -0.31344  -0.30985  -0.30792  -0.30103  -0.29672
 Alpha  occ. eigenvalues --   -0.29488  -0.28844  -0.28529  -0.27798  -0.27757
 Alpha  occ. eigenvalues --   -0.27333  -0.26765  -0.26272  -0.25713  -0.25448
 Alpha  occ. eigenvalues --   -0.24923  -0.24724  -0.23919  -0.22439  -0.19596
 Alpha  occ. eigenvalues --   -0.18829
 Alpha virt. eigenvalues --   -0.09946  -0.08012  -0.04802  -0.00996   0.00375
 Alpha virt. eigenvalues --    0.00482   0.01365   0.02416   0.02565   0.03844
 Alpha virt. eigenvalues --    0.04020   0.04361   0.04550   0.04752   0.05218

 Mulliken charges:
               1
     1  C    0.086686
     2  C   -0.065834
     3  C   -0.023726
     4  C   -0.099673
     5  N   -0.051436
     6  C   -0.144640
     7  C   -0.012695
     8  C   -0.044749
     9  C   -0.112597
    10  C    0.012092
    11  C    0.078597
    12  C    0.082384
    13  C    0.130790
    14  O   -0.199110
    15  O   -0.285843
    16  N   -0.062058
    17  C    0.154712
    18  C   -0.121041
    19  C    0.048329
    20  C    0.111752
    21  C    0.019376
    22  C   -0.056623
    23  C    0.025741
    24  N   -0.251547
    25  C    0.065855
    26  C   -0.102712
    27  C   -0.083109
    28  C    0.201726
    29  C    0.059882
    30  C    0.107150
    31  C    0.049081
    32  N   -0.065185
    33  C    0.003298
    34  C   -0.072682
    35  C    0.040310
    36  C    0.069517
    37  C   -0.063703
    38  C    0.097574
    39  O   -0.191767
    40  C   -0.049922
    41  C    0.178678
    42  O   -0.223331
    43  O   -0.266410
    44  C    0.144648
    45  C    0.188979
    46  C   -0.028341
    47  C   -0.237146
    48  C    0.216645
    49  C    0.104767
    50  C   -0.012580
    51  C    0.064604
    52  C   -0.097797
    53  C   -0.000461
    54  C    0.089929
    55  C   -0.011180
    56  C   -0.031080
    57  C   -0.034595
    58  C    0.025451
    59  C    0.092118
    60  C    0.020050
    61  C    0.047013
    62  C   -0.050609
    63  C    0.038529
    64  C    0.008948
    65  H   -0.014991
    66  H   -0.117628
    67  H   -0.050961
    68  H   -0.027023
    69  H   -0.011850
    70  H    0.029582
    71  H    0.050560
    72  H    0.044217
    73  H    0.029045
    74  H    0.045607
    75  H   -0.033863
    76  H   -0.031211
    77  H    0.041712
    78  H    0.013682
    79  H    0.047340
    80  H    0.011438
    81  H    0.031150
    82  H   -0.001459
    83  H    0.015469
    84  H    0.020390
    85  H    0.021911
    86  H    0.015833
    87  H   -0.043076
    88  H    0.009085
    89  H   -0.029482
    90  H   -0.014753
    91  H    0.077223
    92  H    0.052083
    93  H    0.060472
    94  H    0.035412
    95  H    0.055117
    96  H    0.052541
    97  H    0.038212
    98  H    0.032469
    99  H    0.058181
   100  H   -0.034083
   101  H    0.018847
   102  H    0.009258
   103  H   -0.065989
   104  H    0.008952
   105  H   -0.041802
   106  H    0.025657
   107  H    0.015451
   108  H   -0.019533
   109  H   -0.005325
   110  H   -0.005674
   111  H    0.017029
   112  H    0.028730
   113  H   -0.005242
   114  H   -0.006991
   115  H   -0.030788
   116  H    0.019997
   117  H   -0.005688
   118  H    0.008211
   119  H   -0.000199
   120  H   -0.023789
   121  H   -0.019581
   122  H    0.014776
   123  H    0.008309
   124  H   -0.033865
   125  H   -0.022585
   126  H   -0.000837
   127  H    0.008028
   128  H   -0.019208
   129  H   -0.064820
   130  H   -0.011142
   131  H    0.013586
   132  H    0.002377
   133  H   -0.000979
   134  H    0.000398
   135  H    0.012801
   136  H    0.003632
   137  H    0.091091
   138  H    0.087528
 Sum of Mulliken charges =  -0.00000

 Dipole moment (field-independent basis, Debye):
    X=              3.2295    Y=              3.1701    Z=              1.1165  Tot=              4.6611
 Quadrupole moment (field-independent basis, Debye-Ang):
   XX=           -366.4663   YY=           -380.9365   ZZ=           -390.4711
   XY=            -27.8560   XZ=              4.6679   YZ=             -1.9270

 Normal termination of Gaussian 16 at Tue Aug 20 01:39:06 2019.
