 Gaussian 16, Revision A.03,
 Gaussian 16:  ES64L-G16RevA.03 25-Dec-2016

 --------------------------
 # td=(NStates=1) B3LYP/SVP
 --------------------------

 --
 TD
 --
 Symbolic Z-matrix:
 Charge =  0 Multiplicity = 1

                         Standard orientation:
 ---------------------------------------------------------------------
 Center     Atomic      Atomic             Coordinates (Angstroms)
 Number     Number       Type             X           Y           Z
 ---------------------------------------------------------------------
      1          6           0       -5.118280   -1.901398    0.402328
      2          6           0       -4.710433    2.715894    1.532814
      3          6           0       -9.314349    3.378618   -0.286097
      4          6           0       -9.845488   -1.420206   -1.063342
      5          7           0       -5.158617    0.405447    0.892762
      6          6           0       -4.552922   -0.753623    0.954700
      7          6           0       -3.053982   -0.578463    1.464901
      8          6           0       -3.042482    0.861184    2.146015
      9          6           0       -4.423535    1.412016    1.441053
     10          6           0       -3.159700    0.707200    3.650410
     11          6           0       -2.063917   -0.704888    0.337456
     12          6           0       -0.662531   -0.862646    0.692304
     13          6           0        0.357737   -1.106625   -0.439712
     14          8           0       -0.003867   -1.403529   -1.531535
     15          8           0        1.626895   -0.912479   -0.040395
     16          7           0       -7.001852    2.844280    0.450368
     17          6           0       -5.874922    3.392718    1.049478
     18          6           0       -6.249133    4.792215    1.058477
     19          6           0       -7.505774    4.973181    0.558500
     20          6           0       -8.018950    3.596479    0.150081
     21          6           0       -5.223376    5.804803    1.679158
     22          6           0       -8.089612    6.274794    0.364883
     23          6           0       -8.913298    6.693749   -0.613326
     24          7           0       -9.169079    0.852593   -0.606932
     25          6           0       -9.833946    2.062605   -0.518206
     26          6           0      -11.209327    1.913576   -1.073653
     27          6           0      -11.325411    0.538351   -1.295966
     28          6           0      -10.018775   -0.031848   -1.024688
     29          6           0      -12.210398    2.978068   -1.168523
     30          6           0      -12.511495   -0.172948   -1.769300
     31          6           0      -12.677195   -0.288071   -3.211017
     32          7           0       -7.489491   -1.160498   -0.267877
     33          6           0       -8.562479   -1.948036   -0.755132
     34          6           0       -8.147441   -3.383643   -0.690164
     35          6           0       -6.817120   -3.359741   -0.381935
     36          6           0       -6.432963   -1.955089   -0.062813
     37          6           0       -8.975008   -4.611083   -1.125458
     38          6           0       -5.756714   -4.255679   -0.045648
     39          8           0       -5.726858   -5.462125   -0.301069
     40          6           0       -4.434826   -3.361919    0.342102
     41          6           0       -3.801293   -3.872373    1.655101
     42          8           0       -4.111101   -3.499301    2.748494
     43          8           0       -3.106088   -4.860729    1.379159
     44          6           0       -2.589566   -5.765672    2.537764
     45          6           0        2.688417   -1.039474   -1.077729
     46          6           0        3.947609   -0.593526   -0.427967
     47          6           0        4.920527    0.094097   -1.114165
     48          6           0        4.971255    0.603683   -2.566665
     49          6           0        6.167857    0.485937   -0.238523
     50          6           0        7.460498   -0.304585   -0.724148
     51          6           0        8.718061    0.016858   -0.046450
     52          6           0       10.007126   -0.660382   -0.668679
     53          6           0        9.899392   -2.216143   -0.728933
     54          6           0       11.209783   -0.209021    0.096488
     55          6           0       12.636907   -0.606574   -0.457700
     56          6           0       13.789555    0.134388    0.288192
     57          6           0       15.203886   -0.236366   -0.294493
     58          6           0       15.596335   -1.702985   -0.429092
     59          6           0       16.247852    0.548465    0.407210
     60          6           0       17.656292    0.608848   -0.213160
     61          6           0       18.626894    1.640704    0.464852
     62          6           0       20.094127    1.669632   -0.133513
     63          6           0       20.195136    1.982999   -1.591386
     64          6           0       21.085399    2.454271    0.697970
     65          1           0       -3.833994    3.193883    2.014235
     66          1           0       -9.952287    4.108612   -0.315639
     67          1           0      -10.614519   -2.135969   -1.417087
     68          1           0       -2.850973   -1.229446    2.194748
     69          1           0       -1.931490    1.295643    1.994966
     70          1           0       -2.207014    0.442772    4.099363
     71          1           0       -3.396977    1.544876    3.965030
     72          1           0       -4.041748   -0.109190    3.765522
     73          1           0       -2.264260   -1.561525   -0.419934
     74          1           0       -2.238007    0.061006   -0.415181
     75          1           0       -0.131780   -0.167432    1.408858
     76          1           0       -0.596627   -1.854194    1.337847
     77          1           0       -4.161455    5.580069    1.206459
     78          1           0       -5.740072    6.858802    1.347863
     79          1           0       -5.262765    5.723487    2.768886
     80          1           0       -7.861485    6.956270    1.194928
     81          1           0       -9.325959    6.143206   -1.565140
     82          1           0       -9.312673    7.741514   -0.468907
     83          1           0      -12.387372    3.325867   -0.095474
     84          1           0      -12.007295    3.920742   -1.619416
     85          1           0      -13.060467    2.454031   -1.562193
     86          1           0      -12.485184   -1.294593   -1.302454
     87          1           0      -13.425566    0.199940   -1.297265
     88          1           0      -12.990061    0.576595   -3.883817
     89          1           0      -11.856780   -0.789720   -3.747892
     90          1           0      -13.545907   -1.049907   -3.531555
     91          1           0      -10.130748   -4.387314   -0.702707
     92          1           0       -8.951632   -4.763273   -2.276928
     93          1           0       -8.667186   -5.625012   -0.572110
     94          1           0       -3.740985   -3.469900   -0.643880
     95          1           0       -2.008701   -6.679468    2.203981
     96          1           0       -2.099945   -5.191361    3.173050
     97          1           0       -3.563998   -5.936870    3.048187
     98          1           0        2.826702   -2.091622   -1.416820
     99          1           0        2.285505   -0.507145   -2.069712
    100          1           0        4.129600   -1.191703    0.556835
    101          1           0        5.417211    1.724472   -2.579340
    102          1           0        5.712738   -0.216041   -3.123914
    103          1           0        4.045284    0.638094   -2.931786
    104          1           0        6.538884    1.506710   -0.389707
    105          1           0        6.119739    0.308120    0.721593
    106          1           0        7.212767   -1.442554   -0.878472
    107          1           0        7.327811   -0.009348   -1.802340
    108          1           0        8.806681    0.981943    0.098948
    109          1           0        8.680416   -0.436378    0.877846
    110          1           0       10.124001   -0.150036   -1.727306
    111          1           0        9.045661   -2.653988   -1.159747
    112          1           0       10.943007   -2.645949   -1.002386
    113          1           0        9.966200   -2.638851    0.318831
    114          1           0       11.181284    0.886392    0.325108
    115          1           0       10.921987   -0.614904    1.115995
    116          1           0       12.800467   -1.772666   -0.486248
    117          1           0       12.568215   -0.188685   -1.416627
    118          1           0       13.656639    1.346274    0.177184
    119          1           0       13.687577   -0.417164    1.218368
    120          1           0       15.154567    0.131558   -1.351411
    121          1           0       14.802259   -2.245165   -1.086598
    122          1           0       16.625265   -1.687069   -0.773120
    123          1           0       15.531172   -1.993191    0.655299
    124          1           0       16.097347    1.672644    0.813975
    125          1           0       16.377619    0.245564    1.336965
    126          1           0       18.092118   -0.483082   -0.046015
    127          1           0       17.499051    0.850443   -1.227370
    128          1           0       18.244291    2.802480    0.274942
    129          1           0       18.543504    1.378380    1.629300
    130          1           0       20.114172    0.619808    0.102096
    131          1           0       19.994727    3.077207   -1.451787
    132          1           0       21.273927    1.855846   -1.974259
    133          1           0       19.239477    1.551153   -2.149565
    134          1           0       20.961270    2.225004    1.865455
    135          1           0       22.014651    2.448201    0.349632
    136          1           0       20.904133    3.610799    0.675470
    137          1           0       -6.930299    1.854295    0.350147
    138          1           0       -7.714317   -0.293394   -0.029210
 ---------------------------------------------------------------------

 SCF Done:  E(RB3LYP) =  -2733.02794514     A.U. after   16 cycles

 Excitation energies and oscillator strengths:

 Excited State   1:      Singlet-A      2.0950 eV  591.82 nm  f=0.1842  <S**2>=0.000
     235 -> 237       -0.10678
     235 -> 238       -0.30127
     236 -> 237        0.62411
 This state for optimization and/or second-order correction.
 Total Energy, E(TD-HF/TD-DFT) =  -2732.95095601
 Copying the excited state density for this state as the 1-particle RhoCI density.

 The electronic state is 1-A.
 Alpha  occ. eigenvalues --  -19.18442 -19.17689 -19.12025 -19.11973 -19.10867
 Alpha  occ. eigenvalues --  -14.37445 -14.36816 -14.32031 -14.29277 -10.30957
 Alpha  occ. eigenvalues --  -10.30764 -10.27641 -10.25991 -10.25881 -10.24030
 Alpha  occ. eigenvalues --  -10.24000 -10.23888 -10.23730 -10.22733 -10.22665
 Alpha  occ. eigenvalues --  -10.22484 -10.22456 -10.22152 -10.21506 -10.21472
 Alpha  occ. eigenvalues --  -10.21329 -10.21134 -10.20717 -10.20620 -10.20493
 Alpha  occ. eigenvalues --  -10.20411 -10.20353 -10.20287 -10.20281 -10.20237
 Alpha  occ. eigenvalues --  -10.20111 -10.19819 -10.19724 -10.19674 -10.19622
 Alpha  occ. eigenvalues --  -10.19564 -10.19471 -10.19374 -10.19308 -10.19038
 Alpha  occ. eigenvalues --  -10.18950 -10.18946 -10.18882 -10.18799 -10.18786
 Alpha  occ. eigenvalues --  -10.18613 -10.18598 -10.18582 -10.18561 -10.18544
 Alpha  occ. eigenvalues --  -10.18464 -10.18380 -10.18270 -10.18115 -10.17999
 Alpha  occ. eigenvalues --  -10.17324 -10.17205 -10.17171 -10.16620  -1.11841
 Alpha  occ. eigenvalues --   -1.08964  -1.01374  -1.00953  -1.00448  -0.99590
 Alpha  occ. eigenvalues --   -0.98518  -0.94267  -0.93869  -0.83502  -0.82545
 Alpha  occ. eigenvalues --   -0.82072  -0.81432  -0.81240  -0.81107  -0.80713
 Alpha  occ. eigenvalues --   -0.80187  -0.79978  -0.79802  -0.79197  -0.77416
 Alpha  occ. eigenvalues --   -0.76831  -0.76028  -0.75576  -0.74968  -0.74726
 Alpha  occ. eigenvalues --   -0.74388  -0.73476  -0.71980  -0.71673  -0.69780
 Alpha  occ. eigenvalues --   -0.69690  -0.69342  -0.68671  -0.68333  -0.67691
 Alpha  occ. eigenvalues --   -0.67385  -0.67113  -0.66590  -0.66263  -0.65186
 Alpha  occ. eigenvalues --   -0.63942  -0.63400  -0.62580  -0.62085  -0.61054
 Alpha  occ. eigenvalues --   -0.60872  -0.58798  -0.58751  -0.58288  -0.57499
 Alpha  occ. eigenvalues --   -0.56846  -0.56347  -0.55612  -0.55515  -0.55321
 Alpha  occ. eigenvalues --   -0.54985  -0.54105  -0.53864  -0.53776  -0.53105
 Alpha  occ. eigenvalues --   -0.52801  -0.51812  -0.51374  -0.50643  -0.50228
 Alpha  occ. eigenvalues --   -0.49950  -0.49379  -0.49065  -0.48700  -0.48349
 Alpha  occ. eigenvalues --   -0.47905  -0.47351  -0.47224  -0.47174  -0.46870
 Alpha  occ. eigenvalues --   -0.46638  -0.46492  -0.46155  -0.46021  -0.45713
 Alpha  occ. eigenvalues --   -0.45486  -0.44924  -0.44844  -0.44787  -0.44671
 Alpha  occ. eigenvalues --   -0.44412  -0.44149  -0.43914  -0.43627  -0.43501
 Alpha  occ. eigenvalues --   -0.43373  -0.43196  -0.43046  -0.42920  -0.42775
 Alpha  occ. eigenvalues --   -0.42462  -0.42104  -0.42075  -0.42010  -0.41898
 Alpha  occ. eigenvalues --   -0.41443  -0.41307  -0.41223  -0.40802  -0.40773
 Alpha  occ. eigenvalues --   -0.40328  -0.40168  -0.39967  -0.39702  -0.39595
 Alpha  occ. eigenvalues --   -0.39399  -0.39067  -0.38927  -0.38646  -0.38607
 Alpha  occ. eigenvalues --   -0.38235  -0.37912  -0.37813  -0.37620  -0.37511
 Alpha  occ. eigenvalues --   -0.37298  -0.37176  -0.36879  -0.36724  -0.36431
 Alpha  occ. eigenvalues --   -0.36396  -0.36316  -0.36278  -0.35959  -0.35614
 Alpha  occ. eigenvalues --   -0.35506  -0.35289  -0.35152  -0.34529  -0.34224
 Alpha  occ. eigenvalues --   -0.34169  -0.34043  -0.33962  -0.33873  -0.33413
 Alpha  occ. eigenvalues --   -0.33189  -0.33115  -0.32882  -0.32723  -0.32279
 Alpha  occ. eigenvalues --   -0.31820  -0.31713  -0.31604  -0.31280  -0.31118
 Alpha  occ. eigenvalues --   -0.30863  -0.30412  -0.30355  -0.30185  -0.29535
 Alpha  occ. eigenvalues --   -0.29453  -0.29061  -0.28001  -0.27534  -0.27501
 Alpha  occ. eigenvalues --   -0.27451  -0.27071  -0.26965  -0.26304  -0.25679
 Alpha  occ. eigenvalues --   -0.24451  -0.24246  -0.23861  -0.22040  -0.20005
 Alpha  occ. eigenvalues --   -0.18733
 Alpha virt. eigenvalues --   -0.09954  -0.07716  -0.04369  -0.01660  -0.01154
 Alpha virt. eigenvalues --    0.00834   0.01295   0.02066   0.02515   0.03789
 Alpha virt. eigenvalues --    0.04023   0.04057   0.04375   0.04651   0.04839

 Mulliken charges:
               1
     1  C   -0.042254
     2  C   -0.000129
     3  C   -0.006829
     4  C   -0.101885
     5  N   -0.140649
     6  C   -0.096835
     7  C    0.094810
     8  C   -0.182115
     9  C   -0.047794
    10  C    0.178134
    11  C    0.073324
    12  C    0.001763
    13  C    0.156445
    14  O   -0.213428
    15  O   -0.323670
    16  N    0.018748
    17  C    0.096356
    18  C   -0.140573
    19  C   -0.015309
    20  C    0.122906
    21  C    0.040172
    22  C   -0.060984
    23  C   -0.075682
    24  N   -0.210908
    25  C    0.049531
    26  C   -0.163188
    27  C   -0.091413
    28  C    0.081559
    29  C    0.131002
    30  C    0.050016
    31  C   -0.013009
    32  N    0.053636
    33  C    0.047414
    34  C   -0.118776
    35  C    0.025964
    36  C    0.131242
    37  C   -0.025734
    38  C    0.061116
    39  O   -0.200624
    40  C   -0.094868
    41  C    0.169457
    42  O   -0.240189
    43  O   -0.252607
    44  C    0.223993
    45  C    0.186766
    46  C   -0.083693
    47  C   -0.159101
    48  C    0.080143
    49  C    0.150123
    50  C   -0.086816
    51  C    0.206941
    52  C   -0.099325
    53  C    0.042037
    54  C   -0.010597
    55  C    0.039986
    56  C    0.015110
    57  C   -0.054325
    58  C    0.021137
    59  C    0.054600
    60  C   -0.002128
    61  C   -0.092005
    62  C   -0.051536
    63  C    0.000383
    64  C    0.058339
    65  H   -0.009076
    66  H   -0.106946
    67  H    0.000611
    68  H   -0.062459
    69  H    0.019016
    70  H    0.009202
    71  H   -0.080720
    72  H    0.047073
    73  H    0.016112
    74  H   -0.011037
    75  H    0.020801
    76  H    0.027367
    77  H    0.057153
    78  H    0.034295
    79  H    0.038900
    80  H    0.016346
    81  H    0.053497
    82  H    0.027244
    83  H    0.020759
    84  H    0.009728
    85  H    0.006969
    86  H    0.008200
    87  H    0.000960
    88  H    0.019646
    89  H    0.004887
    90  H   -0.000824
    91  H    0.040810
    92  H    0.071621
    93  H    0.069396
    94  H    0.094893
    95  H    0.075871
    96  H    0.001948
    97  H    0.049372
    98  H    0.033819
    99  H    0.053414
   100  H    0.036083
   101  H    0.047151
   102  H    0.073841
   103  H   -0.021560
   104  H   -0.007791
   105  H   -0.055648
   106  H   -0.001785
   107  H   -0.027084
   108  H   -0.064407
   109  H   -0.040006
   110  H   -0.004426
   111  H    0.017183
   112  H    0.009017
   113  H   -0.011253
   114  H   -0.011786
   115  H   -0.023261
   116  H    0.030046
   117  H   -0.025078
   118  H    0.036058
   119  H   -0.008146
   120  H   -0.021780
   121  H    0.040490
   122  H    0.018275
   123  H    0.004060
   124  H   -0.012289
   125  H   -0.073814
   126  H    0.023339
   127  H   -0.005517
   128  H    0.001914
   129  H    0.022271
   130  H   -0.021156
   131  H    0.000096
   132  H    0.039098
   133  H    0.035274
   134  H    0.021508
   135  H   -0.026032
   136  H   -0.003305
   137  H    0.121808
   138  H    0.065586
 Sum of Mulliken charges =  -0.00000

 Dipole moment (field-independent basis, Debye):
    X=              3.3369    Y=              1.6520    Z=              1.3786  Tot=              3.9705
 Quadrupole moment (field-independent basis, Debye-Ang):
   XX=           -357.5039   YY=           -377.6244   ZZ=           -394.3285
   XY=            -20.0545   XZ=              5.0669   YZ=             -5.1273

 Normal termination of Gaussian 16 at Sun Aug 25 17:50:45 2019.
