 Gaussian 16, Revision A.03,
 Gaussian 16:  ES64L-G16RevA.03 25-Dec-2016

 --------------------------
 # td=(NStates=1) B3LYP/SVP
 --------------------------

 --
 TD
 --
 Symbolic Z-matrix:
 Charge =  0 Multiplicity = 1

                         Standard orientation:
 ---------------------------------------------------------------------
 Center     Atomic      Atomic             Coordinates (Angstroms)
 Number     Number       Type             X           Y           Z
 ---------------------------------------------------------------------
      1          6           0       -5.213353   -1.900208    0.460988
      2          6           0       -4.699891    2.723439    1.523377
      3          6           0       -9.231615    3.392169   -0.194697
      4          6           0       -9.823760   -1.348092   -1.097573
      5          7           0       -5.172168    0.426324    0.925193
      6          6           0       -4.500543   -0.807293    0.879613
      7          6           0       -3.102137   -0.701217    1.327344
      8          6           0       -3.111886    0.722036    1.965724
      9          6           0       -4.325963    1.372327    1.357278
     10          6           0       -3.092625    0.693177    3.551829
     11          6           0       -2.117151   -0.892614    0.131948
     12          6           0       -0.680984   -0.718400    0.586722
     13          6           0        0.290001   -1.112174   -0.553266
     14          8           0        0.003657   -1.604706   -1.693837
     15          8           0        1.555992   -0.949804   -0.117564
     16          7           0       -7.002037    2.798866    0.531254
     17          6           0       -5.744425    3.399614    1.007773
     18          6           0       -6.144532    4.761231    1.039852
     19          6           0       -7.464076    5.004595    0.614344
     20          6           0       -7.938196    3.692086    0.191817
     21          6           0       -5.191134    5.847116    1.585787
     22          6           0       -8.109174    6.245998    0.394233
     23          6           0       -8.986827    6.734591   -0.657069
     24          7           0       -9.162780    0.980834   -0.578797
     25          6           0       -9.888192    2.219076   -0.577184
     26          6           0      -11.291388    2.040445   -0.844609
     27          6           0      -11.375283    0.678288   -1.243727
     28          6           0      -10.180937    0.039070   -0.931415
     29          6           0      -12.227003    3.106199   -1.141361
     30          6           0      -12.610279   -0.044141   -1.740514
     31          6           0      -12.400722   -0.351856   -3.398872
     32          7           0       -7.525149   -1.186921   -0.382240
     33          6           0       -8.546838   -1.900372   -0.883842
     34          6           0       -8.236908   -3.370167   -0.733516
     35          6           0       -6.820590   -3.349872   -0.357630
     36          6           0       -6.505784   -2.017629   -0.026106
     37          6           0       -9.104975   -4.444972   -1.183727
     38          6           0       -5.752270   -4.315948   -0.019536
     39          8           0       -5.620992   -5.560972   -0.257263
     40          6           0       -4.674889   -3.374503    0.486909
     41          6           0       -4.002265   -3.777960    1.785564
     42          8           0       -4.284427   -3.453682    2.885741
     43          8           0       -3.117845   -4.841894    1.594484
     44          6           0       -2.706629   -5.373508    2.945346
     45          6           0        2.594944   -1.202441   -1.003933
     46          6           0        3.924578   -0.908308   -0.495920
     47          6           0        5.011128   -0.242797   -1.001804
     48          6           0        4.830978    0.386529   -2.366812
     49          6           0        6.335572    0.050950   -0.238339
     50          6           0        7.514316   -0.663890   -0.895351
     51          6           0        8.744763   -0.291757   -0.055798
     52          6           0       10.028843   -0.838809   -0.728616
     53          6           0       10.086392   -2.362651   -0.905278
     54          6           0       11.304949   -0.299694    0.094661
     55          6           0       12.692674   -0.605969   -0.451867
     56          6           0       13.792569    0.063354    0.336951
     57          6           0       15.223894   -0.109559   -0.423223
     58          6           0       15.636275   -1.514106   -0.520162
     59          6           0       16.320501    0.681193    0.426778
     60          6           0       17.675468    0.743607   -0.218805
     61          6           0       18.637811    1.872448    0.399997
     62          6           0       20.000024    1.807519   -0.064431
     63          6           0       20.187896    2.329542   -1.454111
     64          6           0       20.982729    2.535738    0.864180
     65          1           0       -3.862842    3.431627    1.822964
     66          1           0       -9.804404    4.301624   -0.243746
     67          1           0      -10.516035   -1.917363   -1.504999
     68          1           0       -3.265732   -1.511231    2.159670
     69          1           0       -2.189557    1.362070    1.938871
     70          1           0       -1.947283    0.330000    4.048004
     71          1           0       -3.129572    1.670870    4.020029
     72          1           0       -3.757338    0.031603    4.116192
     73          1           0       -2.395477   -1.855787   -0.448305
     74          1           0       -2.305676   -0.114032   -0.642430
     75          1           0       -0.537063    0.337629    0.957623
     76          1           0       -0.397738   -1.313971    1.433625
     77          1           0       -4.329630    6.134034    0.896329
     78          1           0       -5.647246    6.687375    1.738015
     79          1           0       -4.866808    5.450483    2.525627
     80          1           0       -7.550067    6.999149    1.196706
     81          1           0       -9.358082    5.953355   -1.399008
     82          1           0       -9.526584    7.874321   -0.526536
     83          1           0      -12.599551    3.514533   -0.205211
     84          1           0      -11.589412    3.836196   -1.828539
     85          1           0      -12.980942    2.776908   -1.673279
     86          1           0      -12.735593   -1.177885   -1.283097
     87          1           0      -13.419919    0.460552   -1.597565
     88          1           0      -12.460153    0.523857   -3.900204
     89          1           0      -11.511335   -0.904998   -3.510214
     90          1           0      -13.236025   -0.984140   -3.901531
     91          1           0      -10.039412   -4.734870   -0.403641
     92          1           0       -9.352970   -4.373441   -2.215128
     93          1           0       -8.383879   -5.339840   -1.239074
     94          1           0       -3.709687   -3.716534   -0.211402
     95          1           0       -1.863686   -5.911151    2.560068
     96          1           0       -2.260140   -4.412020    3.464342
     97          1           0       -3.599745   -5.854998    3.496649
     98          1           0        2.499389   -2.332556   -1.187199
     99          1           0        2.321169   -0.802311   -2.104349
    100          1           0        4.035247   -1.442217    0.583515
    101          1           0        5.523312    1.429020   -2.299074
    102          1           0        5.453874   -0.100695   -3.152847
    103          1           0        3.873833    0.527469   -2.689111
    104          1           0        6.524515    1.187707   -0.525742
    105          1           0        6.055043   -0.223210    0.808976
    106          1           0        7.393120   -1.809545   -0.877878
    107          1           0        7.566624   -0.309422   -1.964423
    108          1           0        8.894370    0.818584    0.078543
    109          1           0        8.575252   -0.453997    0.911489
    110          1           0       10.061571   -0.357977   -1.604505
    111          1           0        9.323173   -2.868889   -1.475866
    112          1           0       11.013964   -2.683794   -1.447251
    113          1           0       10.207769   -3.016859   -0.148343
    114          1           0       11.241788    0.858070    0.333661
    115          1           0       11.301606   -0.530529    1.168710
    116          1           0       12.910094   -1.640321   -0.549452
    117          1           0       12.678307   -0.221880   -1.375721
    118          1           0       13.604509    1.117570    0.531123
    119          1           0       13.968793   -0.521827    1.295801
    120          1           0       15.129392    0.623862   -1.234404
    121          1           0       14.591111   -2.040733   -0.969814
    122          1           0       16.593853   -1.725285   -1.094684
    123          1           0       15.926000   -2.042060    0.480730
    124          1           0       15.814999    1.621338    0.755951
    125          1           0       16.619548   -0.043118    1.360048
    126          1           0       18.127548   -0.132644   -0.463230
    127          1           0       17.552385    1.160584   -1.315982
    128          1           0       18.140131    2.788626    0.229777
    129          1           0       18.716498    1.815845    1.502078
    130          1           0       20.379107    0.567813    0.095564
    131          1           0       19.688737    3.324362   -1.384537
    132          1           0       21.231657    2.717569   -1.677763
    133          1           0       19.752845    1.609210   -2.225721
    134          1           0       21.000751    2.067543    2.062726
    135          1           0       21.973431    2.533488    0.546929
    136          1           0       20.860914    3.629398    1.218384
    137          1           0       -6.951840    1.809854    0.167053
    138          1           0       -7.379455   -0.115790   -0.063847
 ---------------------------------------------------------------------

 SCF Done:  E(RB3LYP) =  -2732.98494092     A.U. after   18 cycles

 Excitation energies and oscillator strengths:

 Excited State   1:      Singlet-A      1.9689 eV  629.70 nm  f=0.1296  <S**2>=0.000
     235 -> 237       -0.22165
     235 -> 238       -0.28241
     236 -> 237        0.56427
     236 -> 238       -0.20305
 This state for optimization and/or second-order correction.
 Total Energy, E(TD-HF/TD-DFT) =  -2732.91258384
 Copying the excited state density for this state as the 1-particle RhoCI density.

 The electronic state is 1-A.
 Alpha  occ. eigenvalues --  -19.18776 -19.16836 -19.13200 -19.13038 -19.12301
 Alpha  occ. eigenvalues --  -14.37911 -14.36400 -14.32878 -14.29495 -10.32765
 Alpha  occ. eigenvalues --  -10.31541 -10.28571 -10.25716 -10.25166 -10.23974
 Alpha  occ. eigenvalues --  -10.23924 -10.23658 -10.23624 -10.23360 -10.23311
 Alpha  occ. eigenvalues --  -10.22910 -10.22832 -10.22817 -10.22728 -10.21926
 Alpha  occ. eigenvalues --  -10.21454 -10.21403 -10.21087 -10.21047 -10.21008
 Alpha  occ. eigenvalues --  -10.20935 -10.20932 -10.20912 -10.20842 -10.20798
 Alpha  occ. eigenvalues --  -10.20766 -10.20661 -10.20228 -10.20167 -10.20029
 Alpha  occ. eigenvalues --  -10.20024 -10.19971 -10.19918 -10.19840 -10.19778
 Alpha  occ. eigenvalues --  -10.19765 -10.19332 -10.19145 -10.19055 -10.19045
 Alpha  occ. eigenvalues --  -10.18982 -10.18823 -10.18718 -10.18659 -10.18592
 Alpha  occ. eigenvalues --  -10.18553 -10.18514 -10.18410 -10.18255 -10.18145
 Alpha  occ. eigenvalues --  -10.17591 -10.17404 -10.17141 -10.16570  -1.10209
 Alpha  occ. eigenvalues --   -1.09269  -0.99941  -0.99595  -0.98795  -0.98609
 Alpha  occ. eigenvalues --   -0.96966  -0.94845  -0.90794  -0.85694  -0.82544
 Alpha  occ. eigenvalues --   -0.82099  -0.81933  -0.81418  -0.81246  -0.80946
 Alpha  occ. eigenvalues --   -0.80046  -0.79923  -0.79203  -0.78570  -0.77901
 Alpha  occ. eigenvalues --   -0.76954  -0.76485  -0.75635  -0.75065  -0.73683
 Alpha  occ. eigenvalues --   -0.73663  -0.73218  -0.72894  -0.72234  -0.70641
 Alpha  occ. eigenvalues --   -0.70421  -0.68990  -0.68559  -0.68383  -0.67741
 Alpha  occ. eigenvalues --   -0.66993  -0.66670  -0.66460  -0.66070  -0.65689
 Alpha  occ. eigenvalues --   -0.64759  -0.63154  -0.62854  -0.62650  -0.61918
 Alpha  occ. eigenvalues --   -0.61534  -0.59473  -0.58739  -0.58631  -0.58457
 Alpha  occ. eigenvalues --   -0.57810  -0.57601  -0.56260  -0.55540  -0.54983
 Alpha  occ. eigenvalues --   -0.54858  -0.54194  -0.54068  -0.53289  -0.53149
 Alpha  occ. eigenvalues --   -0.52458  -0.51963  -0.51450  -0.50768  -0.50003
 Alpha  occ. eigenvalues --   -0.49966  -0.49115  -0.48883  -0.48853  -0.48412
 Alpha  occ. eigenvalues --   -0.48336  -0.47466  -0.46944  -0.46741  -0.46690
 Alpha  occ. eigenvalues --   -0.46445  -0.46113  -0.45945  -0.45723  -0.45571
 Alpha  occ. eigenvalues --   -0.45482  -0.45279  -0.45228  -0.44844  -0.44642
 Alpha  occ. eigenvalues --   -0.44520  -0.44262  -0.44162  -0.43919  -0.43765
 Alpha  occ. eigenvalues --   -0.43662  -0.43564  -0.43085  -0.42835  -0.42694
 Alpha  occ. eigenvalues --   -0.42452  -0.42317  -0.42123  -0.41958  -0.41382
 Alpha  occ. eigenvalues --   -0.41274  -0.41026  -0.40895  -0.40825  -0.40615
 Alpha  occ. eigenvalues --   -0.40494  -0.40035  -0.39961  -0.39840  -0.39442
 Alpha  occ. eigenvalues --   -0.39410  -0.39200  -0.38676  -0.38629  -0.38375
 Alpha  occ. eigenvalues --   -0.38264  -0.37970  -0.37782  -0.37591  -0.37529
 Alpha  occ. eigenvalues --   -0.37409  -0.37128  -0.36829  -0.36660  -0.36576
 Alpha  occ. eigenvalues --   -0.36311  -0.36203  -0.36142  -0.35910  -0.35764
 Alpha  occ. eigenvalues --   -0.35725  -0.35509  -0.35190  -0.34869  -0.34856
 Alpha  occ. eigenvalues --   -0.34754  -0.34546  -0.34287  -0.34023  -0.33780
 Alpha  occ. eigenvalues --   -0.33723  -0.33592  -0.33516  -0.33113  -0.32895
 Alpha  occ. eigenvalues --   -0.32765  -0.32506  -0.32109  -0.32068  -0.31385
 Alpha  occ. eigenvalues --   -0.30666  -0.30506  -0.30312  -0.30136  -0.29776
 Alpha  occ. eigenvalues --   -0.29496  -0.28901  -0.28669  -0.28302  -0.28040
 Alpha  occ. eigenvalues --   -0.27666  -0.27579  -0.26845  -0.26312  -0.25834
 Alpha  occ. eigenvalues --   -0.25273  -0.24305  -0.23222  -0.21631  -0.19998
 Alpha  occ. eigenvalues --   -0.19058
 Alpha virt. eigenvalues --   -0.10722  -0.08873  -0.05939  -0.03598  -0.01673
 Alpha virt. eigenvalues --   -0.01151  -0.00751  -0.00177   0.01067   0.03244
 Alpha virt. eigenvalues --    0.03307   0.03629   0.03917   0.04326   0.04460

 Mulliken charges:
               1
     1  C    0.095232
     2  C   -0.078339
     3  C   -0.036110
     4  C    0.013517
     5  N   -0.220084
     6  C   -0.162287
     7  C    0.004482
     8  C   -0.052447
     9  C    0.046787
    10  C   -0.025658
    11  C    0.055834
    12  C    0.058398
    13  C    0.208770
    14  O   -0.285589
    15  O   -0.273749
    16  N   -0.127170
    17  C    0.128103
    18  C   -0.146462
    19  C    0.038500
    20  C    0.056605
    21  C    0.185487
    22  C   -0.099495
    23  C   -0.090271
    24  N   -0.329474
    25  C    0.067350
    26  C   -0.156686
    27  C   -0.058146
    28  C    0.077357
    29  C    0.174407
    30  C    0.072372
    31  C    0.007131
    32  N   -0.042909
    33  C    0.086933
    34  C   -0.123131
    35  C   -0.068842
    36  C    0.078924
    37  C    0.032624
    38  C    0.153872
    39  O   -0.220222
    40  C   -0.124811
    41  C    0.179222
    42  O   -0.203475
    43  O   -0.357636
    44  C    0.154828
    45  C    0.192733
    46  C   -0.103280
    47  C   -0.144226
    48  C    0.062470
    49  C    0.058494
    50  C   -0.008780
    51  C    0.073697
    52  C    0.089161
    53  C    0.069637
    54  C   -0.042269
    55  C    0.151469
    56  C   -0.017335
    57  C   -0.072709
    58  C   -0.020214
    59  C    0.001561
    60  C    0.039052
    61  C    0.094643
    62  C   -0.135019
    63  C    0.043777
    64  C   -0.025501
    65  H    0.000121
    66  H   -0.050549
    67  H   -0.091013
    68  H    0.060619
    69  H    0.003400
    70  H    0.012257
    71  H    0.013717
    72  H    0.036727
    73  H    0.042223
    74  H    0.015002
    75  H    0.040248
    76  H    0.024340
    77  H    0.035603
    78  H   -0.067927
    79  H    0.018766
    80  H    0.035927
    81  H    0.055039
    82  H    0.074425
    83  H    0.023742
    84  H    0.041120
    85  H   -0.045321
    86  H    0.031087
    87  H   -0.052432
    88  H   -0.005028
    89  H    0.013223
    90  H    0.011971
    91  H    0.069239
    92  H    0.029264
    93  H    0.044781
    94  H    0.104078
    95  H    0.032910
    96  H    0.046362
    97  H    0.077212
    98  H    0.022221
    99  H    0.034091
   100  H    0.005822
   101  H    0.004448
   102  H    0.028043
   103  H    0.004620
   104  H    0.025907
   105  H    0.018207
   106  H    0.024802
   107  H    0.005341
   108  H   -0.024970
   109  H   -0.057858
   110  H   -0.046474
   111  H   -0.005932
   112  H   -0.010910
   113  H   -0.030746
   114  H   -0.017967
   115  H   -0.025572
   116  H   -0.002610
   117  H   -0.052810
   118  H   -0.008543
   119  H   -0.002197
   120  H   -0.002293
   121  H    0.028622
   122  H    0.027719
   123  H    0.025525
   124  H   -0.000561
   125  H   -0.000995
   126  H   -0.036010
   127  H   -0.022297
   128  H   -0.024817
   129  H   -0.013639
   130  H    0.010852
   131  H   -0.005043
   132  H    0.009708
   133  H    0.038029
   134  H    0.008517
   135  H   -0.003831
   136  H    0.009320
   137  H    0.163708
   138  H    0.218344
 Sum of Mulliken charges =  -0.00000

 Dipole moment (field-independent basis, Debye):
    X=              2.4356    Y=              4.5054    Z=              0.9830  Tot=              5.2151
 Quadrupole moment (field-independent basis, Debye-Ang):
   XX=           -359.0112   YY=           -392.4384   ZZ=           -395.0758
   XY=            -17.2772   XZ=              5.1503   YZ=             -3.3294

 Normal termination of Gaussian 16 at Fri Aug 30 01:01:38 2019.
