 Gaussian 16, Revision A.03,
 Gaussian 16:  ES64L-G16RevA.03 25-Dec-2016

 --------------------------
 # td=(NStates=1) B3LYP/SVP
 --------------------------

 --
 TD
 --
 Symbolic Z-matrix:
 Charge =  0 Multiplicity = 1

                         Standard orientation:
 ---------------------------------------------------------------------
 Center     Atomic      Atomic             Coordinates (Angstroms)
 Number     Number       Type             X           Y           Z
 ---------------------------------------------------------------------
      1          6           0       -5.100294   -1.999951    0.452720
      2          6           0       -4.799039    2.747144    1.298055
      3          6           0       -9.383912    3.163481   -0.272480
      4          6           0       -9.727719   -1.589311   -0.868700
      5          7           0       -5.188776    0.424994    0.833454
      6          6           0       -4.452502   -0.716484    0.781644
      7          6           0       -2.965161   -0.495453    1.164821
      8          6           0       -3.090207    0.945682    1.912353
      9          6           0       -4.346479    1.436653    1.398840
     10          6           0       -3.099346    0.768681    3.405703
     11          6           0       -2.065808   -0.547703   -0.081824
     12          6           0       -0.576915   -0.668735    0.374400
     13          6           0        0.330293   -0.706902   -0.853425
     14          8           0       -0.032946   -1.087022   -1.991452
     15          8           0        1.654081   -0.592512   -0.437673
     16          7           0       -7.071583    2.709744    0.475381
     17          6           0       -5.963836    3.368958    0.885666
     18          6           0       -6.402819    4.772451    0.939818
     19          6           0       -7.664524    4.967713    0.484242
     20          6           0       -8.152101    3.586553    0.100782
     21          6           0       -5.530466    5.839343    1.567664
     22          6           0       -8.209383    6.239580    0.274096
     23          6           0       -9.294571    6.549627   -0.561840
     24          7           0       -9.239138    0.769875   -0.483865
     25          6           0       -9.975314    1.944407   -0.494763
     26          6           0      -11.414767    1.687482   -0.822883
     27          6           0      -11.507028    0.297899   -1.044715
     28          6           0      -10.036311   -0.200887   -0.824677
     29          6           0      -12.488517    2.746790   -0.731617
     30          6           0      -12.668086   -0.412340   -1.403770
     31          6           0      -12.784327   -0.801935   -2.918122
     32          7           0       -7.486623   -1.388490   -0.317645
     33          6           0       -8.575672   -2.162021   -0.515493
     34          6           0       -8.145603   -3.474097   -0.547554
     35          6           0       -6.750052   -3.524900   -0.284247
     36          6           0       -6.352127   -2.179869   -0.002598
     37          6           0       -8.937787   -4.798493   -0.924515
     38          6           0       -5.563616   -4.402051    0.119575
     39          8           0       -5.551695   -5.575004   -0.023622
     40          6           0       -4.413478   -3.274921    0.352864
     41          6           0       -3.784367   -3.706169    1.688674
     42          8           0       -4.250903   -3.247982    2.776165
     43          8           0       -2.834004   -4.712187    1.635155
     44          6           0       -2.198979   -5.132051    2.781132
     45          6           0        2.705696   -0.777438   -1.294817
     46          6           0        4.017687   -0.399912   -0.671311
     47          6           0        5.003233    0.341238   -1.198826
     48          6           0        4.909060    1.105058   -2.548870
     49          6           0        6.285070    0.478847   -0.437492
     50          6           0        7.575820   -0.093229   -1.170703
     51          6           0        8.825907   -0.070246   -0.283929
     52          6           0       10.040954   -0.608156   -0.866781
     53          6           0       10.000092   -2.156997   -0.959195
     54          6           0       11.261770   -0.345293    0.010274
     55          6           0       12.687858   -0.500649   -0.656947
     56          6           0       13.726615   -0.024777    0.336847
     57          6           0       15.204559   -0.173913   -0.299347
     58          6           0       15.469843   -1.581796   -0.476015
     59          6           0       16.315100    0.482570    0.588284
     60          6           0       17.690806    0.428304    0.054312
     61          6           0       18.738574    1.288430    0.820381
     62          6           0       20.108712    1.407748    0.222520
     63          6           0       20.166406    2.135174   -1.162255
     64          6           0       21.199540    2.091113    1.230548
     65          1           0       -4.057798    3.590059    1.625889
     66          1           0      -10.087610    4.057795   -0.253911
     67          1           0      -10.495358   -2.368881   -1.176091
     68          1           0       -2.525872   -1.158982    1.846323
     69          1           0       -2.159797    1.757723    1.454453
     70          1           0       -2.001740    0.132533    3.431225
     71          1           0       -3.032988    1.793568    3.958045
     72          1           0       -3.901809    0.165711    3.655522
     73          1           0       -2.409607   -1.446204   -0.534741
     74          1           0       -1.987669    0.411467   -0.597479
     75          1           0       -0.181372   -0.009827    0.989805
     76          1           0       -0.348522   -1.870932    0.870818
     77          1           0       -4.629354    5.836385    0.956095
     78          1           0       -6.034454    6.790193    1.353762
     79          1           0       -5.219968    5.818876    2.674251
     80          1           0       -7.575492    6.984259    0.774109
     81          1           0       -9.863418    5.721738   -1.127849
     82          1           0       -9.721052    7.554123   -0.573679
     83          1           0      -12.580453    3.071353    0.183335
     84          1           0      -12.190043    3.727437   -1.496628
     85          1           0      -13.446664    2.253794   -1.131287
     86          1           0      -12.902224   -1.463277   -0.934455
     87          1           0      -13.531044    0.382869   -1.099730
     88          1           0      -12.639185    0.205855   -3.382237
     89          1           0      -11.950417   -1.373853   -3.357771
     90          1           0      -13.639567   -1.235385   -3.072272
     91          1           0      -10.161379   -4.540096   -0.503056
     92          1           0       -9.041359   -4.874311   -2.104662
     93          1           0       -8.313358   -5.522045   -0.232762
     94          1           0       -3.679151   -3.470285   -0.377665
     95          1           0       -1.417257   -5.912181    2.598679
     96          1           0       -1.880926   -4.274304    3.370289
     97          1           0       -2.957185   -5.588019    3.488428
     98          1           0        2.869014   -1.710990   -1.777939
     99          1           0        2.444528   -0.142040   -2.317709
    100          1           0        4.107361   -0.787349    0.291148
    101          1           0        5.700977    2.057842   -2.581102
    102          1           0        5.287876    0.589356   -3.377614
    103          1           0        3.662260    1.422187   -2.642278
    104          1           0        6.324464    1.770725   -0.329131
    105          1           0        6.499988   -0.059294    0.506452
    106          1           0        7.154890   -1.112030   -1.697917
    107          1           0        7.742221    0.496055   -2.086885
    108          1           0        8.927586    1.063077   -0.081626
    109          1           0        8.363509   -0.520650    0.593682
    110          1           0       10.378102   -0.024352   -1.861741
    111          1           0        9.266948   -2.381787   -1.731696
    112          1           0       10.920027   -2.350679   -1.372143
    113          1           0        9.753168   -2.658710   -0.122245
    114          1           0       11.131554    0.711073    0.407413
    115          1           0       11.433833   -1.001139    0.936102
    116          1           0       12.734532   -1.568301   -0.941801
    117          1           0       12.618175    0.024508   -1.681662
    118          1           0       13.733893    1.103047    0.457664
    119          1           0       13.625398   -0.644033    1.198770
    120          1           0       15.288182    0.192203   -1.332242
    121          1           0       14.913514   -2.069806   -1.345979
    122          1           0       16.550175   -1.630085   -0.855795
    123          1           0       15.583743   -1.907900    0.618581
    124          1           0       15.882854    1.527643    0.656046
    125          1           0       16.213767    0.228042    1.660552
    126          1           0       18.044679   -0.591769    0.002187
    127          1           0       17.749211    0.764230   -1.065172
    128          1           0       17.995357    2.225099    1.052775
    129          1           0       18.797954    0.779645    1.887341
    130          1           0       20.925878    0.488606    0.008526
    131          1           0       19.830945    3.128961   -1.172895
    132          1           0       21.036465    1.994213   -1.541369
    133          1           0       19.493874    1.659366   -1.707572
    134          1           0       21.164887    1.646737    2.231601
    135          1           0       22.223021    2.155940    0.767384
    136          1           0       20.576459    3.076676    1.366563
    137          1           0       -6.991893    1.665018    0.327038
    138          1           0       -7.423597   -0.417178   -0.238955
 ---------------------------------------------------------------------

 SCF Done:  E(RB3LYP) =  -2732.95477035     A.U. after   17 cycles

 Excitation energies and oscillator strengths:

 Excited State   1:      Singlet-A      2.0073 eV  617.66 nm  f=0.1558  <S**2>=0.000
     235 -> 238       -0.31456
     236 -> 237        0.62339
 This state for optimization and/or second-order correction.
 Total Energy, E(TD-HF/TD-DFT) =  -2732.88100234
 Copying the excited state density for this state as the 1-particle RhoCI density.

 The electronic state is 1-A.
 Alpha  occ. eigenvalues --  -19.18856 -19.18608 -19.14125 -19.13572 -19.12818
 Alpha  occ. eigenvalues --  -14.37116 -14.35551 -14.33307 -14.30019 -10.32916
 Alpha  occ. eigenvalues --  -10.32898 -10.29524 -10.25259 -10.25015 -10.24430
 Alpha  occ. eigenvalues --  -10.24041 -10.23776 -10.23303 -10.23129 -10.22828
 Alpha  occ. eigenvalues --  -10.22648 -10.22539 -10.22398 -10.22314 -10.21802
 Alpha  occ. eigenvalues --  -10.21699 -10.21455 -10.21330 -10.21034 -10.21023
 Alpha  occ. eigenvalues --  -10.20979 -10.20849 -10.20837 -10.20711 -10.20622
 Alpha  occ. eigenvalues --  -10.20535 -10.20508 -10.20477 -10.20431 -10.20408
 Alpha  occ. eigenvalues --  -10.20251 -10.20229 -10.20170 -10.20122 -10.19745
 Alpha  occ. eigenvalues --  -10.19693 -10.19681 -10.19663 -10.19233 -10.19055
 Alpha  occ. eigenvalues --  -10.18850 -10.18832 -10.18811 -10.18782 -10.18754
 Alpha  occ. eigenvalues --  -10.18681 -10.18506 -10.18346 -10.18302 -10.18278
 Alpha  occ. eigenvalues --  -10.17801 -10.17322 -10.16357 -10.15006  -1.09199
 Alpha  occ. eigenvalues --   -1.09122  -1.05890  -1.00336  -0.99278  -0.98166
 Alpha  occ. eigenvalues --   -0.96935  -0.93624  -0.93259  -0.86273  -0.82976
 Alpha  occ. eigenvalues --   -0.82839  -0.82233  -0.81929  -0.81170  -0.80850
 Alpha  occ. eigenvalues --   -0.79972  -0.79690  -0.79625  -0.79293  -0.78269
 Alpha  occ. eigenvalues --   -0.77131  -0.76451  -0.75820  -0.75128  -0.74488
 Alpha  occ. eigenvalues --   -0.74058  -0.73867  -0.72624  -0.71621  -0.70265
 Alpha  occ. eigenvalues --   -0.69581  -0.69527  -0.68665  -0.68497  -0.67898
 Alpha  occ. eigenvalues --   -0.67830  -0.66719  -0.66374  -0.66016  -0.65635
 Alpha  occ. eigenvalues --   -0.65124  -0.63531  -0.62556  -0.61862  -0.61122
 Alpha  occ. eigenvalues --   -0.60921  -0.58891  -0.58590  -0.58126  -0.57703
 Alpha  occ. eigenvalues --   -0.57295  -0.56480  -0.56298  -0.55757  -0.55114
 Alpha  occ. eigenvalues --   -0.54724  -0.54404  -0.53794  -0.53633  -0.53286
 Alpha  occ. eigenvalues --   -0.52629  -0.52335  -0.51659  -0.51607  -0.50969
 Alpha  occ. eigenvalues --   -0.50204  -0.49554  -0.49318  -0.48837  -0.48407
 Alpha  occ. eigenvalues --   -0.48325  -0.48138  -0.47788  -0.47663  -0.47546
 Alpha  occ. eigenvalues --   -0.47392  -0.47119  -0.46626  -0.46318  -0.46225
 Alpha  occ. eigenvalues --   -0.46052  -0.45527  -0.45096  -0.45050  -0.44791
 Alpha  occ. eigenvalues --   -0.44476  -0.44361  -0.44223  -0.44043  -0.43793
 Alpha  occ. eigenvalues --   -0.43689  -0.43650  -0.43352  -0.43062  -0.42640
 Alpha  occ. eigenvalues --   -0.42611  -0.42299  -0.42201  -0.42101  -0.41894
 Alpha  occ. eigenvalues --   -0.41541  -0.41324  -0.41130  -0.41055  -0.40870
 Alpha  occ. eigenvalues --   -0.40816  -0.40247  -0.40059  -0.39966  -0.39788
 Alpha  occ. eigenvalues --   -0.39682  -0.39305  -0.39245  -0.38937  -0.38897
 Alpha  occ. eigenvalues --   -0.38515  -0.38392  -0.37739  -0.37610  -0.37475
 Alpha  occ. eigenvalues --   -0.37432  -0.37185  -0.37047  -0.36839  -0.36631
 Alpha  occ. eigenvalues --   -0.36457  -0.36223  -0.36017  -0.35945  -0.35851
 Alpha  occ. eigenvalues --   -0.35590  -0.35494  -0.35080  -0.34741  -0.34580
 Alpha  occ. eigenvalues --   -0.34548  -0.34463  -0.34352  -0.34310  -0.33979
 Alpha  occ. eigenvalues --   -0.33784  -0.33145  -0.32909  -0.32764  -0.32568
 Alpha  occ. eigenvalues --   -0.32439  -0.31900  -0.31710  -0.31481  -0.31479
 Alpha  occ. eigenvalues --   -0.31026  -0.30770  -0.30450  -0.30014  -0.29971
 Alpha  occ. eigenvalues --   -0.29867  -0.28684  -0.28563  -0.28147  -0.28045
 Alpha  occ. eigenvalues --   -0.27847  -0.26936  -0.26704  -0.26179  -0.25667
 Alpha  occ. eigenvalues --   -0.25509  -0.24651  -0.23242  -0.22573  -0.20136
 Alpha  occ. eigenvalues --   -0.18644
 Alpha virt. eigenvalues --   -0.10077  -0.08347  -0.04910  -0.03492  -0.02906
 Alpha virt. eigenvalues --   -0.01753  -0.00277   0.00010   0.00995   0.02709
 Alpha virt. eigenvalues --    0.03298   0.03761   0.03887   0.03952   0.04137

 Mulliken charges:
               1
     1  C    0.069084
     2  C   -0.059792
     3  C   -0.070561
     4  C   -0.135276
     5  N   -0.230055
     6  C   -0.030011
     7  C   -0.026180
     8  C   -0.130987
     9  C    0.049143
    10  C    0.079582
    11  C    0.173024
    12  C   -0.021333
    13  C    0.212845
    14  O   -0.258305
    15  O   -0.302100
    16  N   -0.114419
    17  C    0.057763
    18  C   -0.145126
    19  C    0.076860
    20  C    0.080253
    21  C    0.095462
    22  C   -0.056516
    23  C   -0.055448
    24  N   -0.182248
    25  C    0.048064
    26  C   -0.127427
    27  C   -0.046895
    28  C    0.061332
    29  C    0.097155
    30  C   -0.076075
    31  C    0.072602
    32  N   -0.051015
    33  C    0.153712
    34  C   -0.170207
    35  C   -0.031142
    36  C    0.074417
    37  C   -0.029923
    38  C    0.094400
    39  O   -0.122561
    40  C   -0.052143
    41  C    0.198667
    42  O   -0.275479
    43  O   -0.295345
    44  C    0.182476
    45  C    0.236893
    46  C   -0.077704
    47  C   -0.084143
    48  C   -0.008694
    49  C    0.008288
    50  C   -0.069125
    51  C    0.075674
    52  C   -0.074317
    53  C    0.168178
    54  C   -0.038007
    55  C   -0.021085
    56  C    0.099954
    57  C   -0.108364
    58  C    0.017121
    59  C    0.034982
    60  C    0.014440
    61  C   -0.001481
    62  C   -0.179550
    63  C    0.222080
    64  C   -0.012035
    65  H   -0.016238
    66  H   -0.008741
    67  H   -0.011700
    68  H   -0.023418
    69  H    0.025989
    70  H    0.032309
    71  H    0.043919
    72  H    0.028235
    73  H    0.010837
    74  H    0.020590
    75  H   -0.013133
    76  H    0.066444
    77  H    0.020245
    78  H   -0.009434
    79  H    0.052145
    80  H   -0.007678
    81  H    0.051057
    82  H    0.029978
    83  H   -0.000838
    84  H    0.038781
    85  H    0.026237
    86  H    0.017236
    87  H    0.021822
    88  H    0.005129
    89  H    0.013695
    90  H   -0.020863
    91  H    0.040604
    92  H    0.076907
    93  H    0.091225
    94  H    0.040243
    95  H    0.047534
    96  H    0.012515
    97  H    0.020693
    98  H    0.016632
    99  H    0.008153
   100  H   -0.031383
   101  H    0.028772
   102  H    0.024097
   103  H    0.066273
   104  H    0.024240
   105  H    0.002013
   106  H    0.019427
   107  H   -0.018559
   108  H    0.003364
   109  H   -0.011897
   110  H    0.007235
   111  H   -0.013601
   112  H   -0.032921
   113  H   -0.013762
   114  H   -0.013427
   115  H   -0.007476
   116  H    0.007973
   117  H   -0.006316
   118  H    0.009849
   119  H   -0.008799
   120  H   -0.022124
   121  H    0.028705
   122  H   -0.008275
   123  H    0.001681
   124  H   -0.015833
   125  H   -0.010348
   126  H    0.001818
   127  H    0.007264
   128  H    0.021750
   129  H    0.006476
   130  H    0.018752
   131  H   -0.015050
   132  H   -0.051465
   133  H   -0.055682
   134  H    0.012757
   135  H    0.030705
   136  H    0.008762
   137  H    0.165532
   138  H    0.108987
 Sum of Mulliken charges =  -0.00000

 Dipole moment (field-independent basis, Debye):
    X=              3.1403    Y=              3.1947    Z=              0.8146  Tot=              4.5532
 Quadrupole moment (field-independent basis, Debye-Ang):
   XX=           -368.3176   YY=           -389.4530   ZZ=           -399.6716
   XY=            -25.9897   XZ=              0.4226   YZ=              0.7520

 Normal termination of Gaussian 16 at Fri Aug 16 15:40:35 2019.
