 Gaussian 16, Revision A.03,
 Gaussian 16:  ES64L-G16RevA.03 25-Dec-2016

 --------------------------
 # td=(NStates=1) B3LYP/SVP
 --------------------------

 --
 TD
 --
 Symbolic Z-matrix:
 Charge =  0 Multiplicity = 1

                         Standard orientation:
 ---------------------------------------------------------------------
 Center     Atomic      Atomic             Coordinates (Angstroms)
 Number     Number       Type             X           Y           Z
 ---------------------------------------------------------------------
      1          6           0       -5.050392   -1.961815    0.544978
      2          6           0       -4.770058    2.691284    1.394924
      3          6           0       -9.287671    3.395073   -0.266072
      4          6           0       -9.822351   -1.426118   -0.854510
      5          7           0       -5.200647    0.374585    0.934689
      6          6           0       -4.450556   -0.761579    0.938589
      7          6           0       -3.035827   -0.601321    1.315660
      8          6           0       -3.065717    0.881823    1.983107
      9          6           0       -4.398010    1.339189    1.436260
     10          6           0       -2.923617    0.815296    3.460121
     11          6           0       -2.041136   -0.689929    0.092798
     12          6           0       -0.569800   -0.782541    0.487953
     13          6           0        0.264332   -1.085854   -0.736570
     14          8           0       -0.084457   -1.218930   -1.870013
     15          8           0        1.566574   -1.013577   -0.371455
     16          7           0       -7.111772    2.719230    0.431343
     17          6           0       -5.919312    3.338017    0.967174
     18          6           0       -6.173229    4.783693    1.115155
     19          6           0       -7.507044    4.992356    0.713239
     20          6           0       -7.978158    3.695806    0.200604
     21          6           0       -5.329335    5.853855    1.595092
     22          6           0       -8.074493    6.329108    0.366848
     23          6           0       -8.868980    6.847664   -0.597805
     24          7           0       -9.137778    0.935921   -0.619928
     25          6           0       -9.812206    2.154346   -0.589324
     26          6           0      -11.172898    1.868014   -1.012284
     27          6           0      -11.397216    0.480907   -1.106339
     28          6           0      -10.107057   -0.001876   -0.836586
     29          6           0      -12.273678    3.005835   -1.149029
     30          6           0      -12.537636   -0.235987   -1.689814
     31          6           0      -12.543839   -0.538605   -3.125595
     32          7           0       -7.526128   -1.359915   -0.049653
     33          6           0       -8.552135   -2.027201   -0.568885
     34          6           0       -8.224237   -3.404028   -0.692405
     35          6           0       -6.838002   -3.441078   -0.290516
     36          6           0       -6.446637   -2.123973    0.173452
     37          6           0       -8.990564   -4.597791   -1.199879
     38          6           0       -5.642139   -4.330866   -0.069331
     39          8           0       -5.498351   -5.595358   -0.081258
     40          6           0       -4.399140   -3.304375    0.527351
     41          6           0       -3.951065   -3.829044    1.854143
     42          8           0       -4.234713   -3.300270    2.878808
     43          8           0       -3.120678   -4.876811    1.617974
     44          6           0       -2.515080   -5.423779    2.822274
     45          6           0        2.712768   -0.962736   -1.362277
     46          6           0        3.978612   -0.878432   -0.693050
     47          6           0        4.900761    0.052946   -1.088147
     48          6           0        4.882632    1.013724   -2.386812
     49          6           0        6.191062    0.082080   -0.338747
     50          6           0        7.530867   -0.327176   -1.118455
     51          6           0        8.748416   -0.351978   -0.257191
     52          6           0       10.057599   -0.860624   -0.930399
     53          6           0       10.126939   -2.302976   -1.057550
     54          6           0       11.297014   -0.316043   -0.113386
     55          6           0       12.670512   -0.742661   -0.586470
     56          6           0       13.821392   -0.153514    0.288358
     57          6           0       15.204958   -0.288813   -0.290675
     58          6           0       15.614303   -1.846001   -0.391036
     59          6           0       16.308396    0.426017    0.562357
     60          6           0       17.610440    0.709940   -0.191293
     61          6           0       18.434917    1.595117    0.663016
     62          6           0       19.939304    1.874397    0.126203
     63          6           0       19.967814    2.590939   -1.206335
     64          6           0       20.744779    2.673101    1.184678
     65          1           0       -3.981424    3.235772    1.868555
     66          1           0       -9.987525    4.253953   -0.432963
     67          1           0      -10.682136   -1.964724   -1.303469
     68          1           0       -2.694861   -1.229342    2.056703
     69          1           0       -2.291547    1.363704    1.555313
     70          1           0       -1.811184    0.467429    3.856300
     71          1           0       -3.044702    1.905293    3.818041
     72          1           0       -3.689449    0.053785    3.996646
     73          1           0       -2.295522   -1.345179   -0.652450
     74          1           0       -2.250316    0.282434   -0.592356
     75          1           0       -0.321946    0.269165    0.949211
     76          1           0       -0.120306   -1.572823    1.373356
     77          1           0       -4.269728    5.695909    1.149884
     78          1           0       -5.672319    6.897559    1.241724
     79          1           0       -5.170475    5.880273    2.653396
     80          1           0       -7.653517    7.116811    0.896876
     81          1           0       -9.435361    6.327315   -1.423835
     82          1           0       -9.118524    7.696693   -0.587399
     83          1           0      -12.344501    3.626109   -0.236365
     84          1           0      -12.048820    3.655203   -2.051323
     85          1           0      -13.251057    2.526754   -1.171194
     86          1           0      -12.582593   -1.135209   -1.089952
     87          1           0      -13.446387    0.245168   -1.291393
     88          1           0      -12.406003    0.548540   -3.867213
     89          1           0      -11.384749   -0.828458   -3.304849
     90          1           0      -13.337987   -1.075409   -3.586435
     91          1           0      -10.158005   -4.720384   -0.877565
     92          1           0       -9.092616   -4.424811   -2.381114
     93          1           0       -8.469666   -5.443779   -0.930195
     94          1           0       -3.672562   -3.593062   -0.334448
     95          1           0       -1.774070   -6.069255    2.450827
     96          1           0       -2.037386   -4.520126    3.375602
     97          1           0       -3.282273   -5.876604    3.247517
     98          1           0        2.288792   -2.025870   -1.944010
     99          1           0        2.587876   -0.205413   -2.322377
    100          1           0        4.177028   -1.447963    0.291337
    101          1           0        5.286024    1.946641   -2.010708
    102          1           0        5.483810    0.571686   -3.362462
    103          1           0        3.882061    1.210040   -2.721156
    104          1           0        6.324376    1.203144    0.118330
    105          1           0        6.088174   -0.721983    0.555290
    106          1           0        7.496359   -1.363902   -1.602037
    107          1           0        7.758822    0.431714   -2.153752
    108          1           0        8.950558    0.471531    0.272239
    109          1           0        8.674163   -0.998903    0.528741
    110          1           0        9.923359   -0.178174   -1.746705
    111          1           0        9.248470   -2.861953   -1.689415
    112          1           0       10.851245   -2.594437   -1.723910
    113          1           0       10.317838   -3.035969   -0.199848
    114          1           0       11.011918    0.650781    0.066037
    115          1           0       11.297141   -0.643965    0.862571
    116          1           0       12.847012   -2.019489   -0.414392
    117          1           0       12.776504   -0.443983   -1.609326
    118          1           0       13.538389    0.870617    0.547299
    119          1           0       13.774399   -0.317823    1.357353
    120          1           0       15.463657    0.123364   -1.260406
    121          1           0       14.923095   -2.346148   -1.246486
    122          1           0       16.568255   -1.858826   -0.924134
    123          1           0       15.391826   -2.202451    0.595907
    124          1           0       15.767413    1.384626    0.689251
    125          1           0       16.602908   -0.288097    1.661343
    126          1           0       18.280020   -0.141465   -0.308215
    127          1           0       17.520162    1.180433   -1.009943
    128          1           0       18.123330    2.693642    0.768744
    129          1           0       18.568467    1.003208    1.772753
    130          1           0       20.353516    0.886269   -0.157125
    131          1           0       19.247394    3.477191   -1.117839
    132          1           0       21.001946    3.073827   -1.421892
    133          1           0       19.475207    2.085923   -2.205730
    134          1           0       20.348286    2.470342    2.203853
    135          1           0       21.810153    2.533314    1.148850
    136          1           0       20.397939    3.701342    0.740876
    137          1           0       -7.197538    1.846333    0.185394
    138          1           0       -7.675170   -0.367933    0.037235
 ---------------------------------------------------------------------

 SCF Done:  E(RB3LYP) =  -2732.94849359     A.U. after   17 cycles

 Excitation energies and oscillator strengths:

 Excited State   1:      Singlet-A      2.0044 eV  618.55 nm  f=0.1326  <S**2>=0.000
     235 -> 237       -0.19436
     235 -> 238       -0.28736
     236 -> 237        0.59318
     236 -> 238       -0.14892
 This state for optimization and/or second-order correction.
 Total Energy, E(TD-HF/TD-DFT) =  -2732.87483227
 Copying the excited state density for this state as the 1-particle RhoCI density.

 The electronic state is 1-A.
 Alpha  occ. eigenvalues --  -19.16766 -19.16141 -19.12412 -19.12343 -19.12243
 Alpha  occ. eigenvalues --  -14.36980 -14.36953 -14.32351 -14.29311 -10.31145
 Alpha  occ. eigenvalues --  -10.30712 -10.28783 -10.27022 -10.24890 -10.23939
 Alpha  occ. eigenvalues --  -10.23843 -10.23411 -10.23298 -10.22634 -10.22540
 Alpha  occ. eigenvalues --  -10.22386 -10.22033 -10.21942 -10.21702 -10.21467
 Alpha  occ. eigenvalues --  -10.21449 -10.21383 -10.21310 -10.21127 -10.21067
 Alpha  occ. eigenvalues --  -10.20887 -10.20857 -10.20841 -10.20794 -10.20668
 Alpha  occ. eigenvalues --  -10.20615 -10.20583 -10.20411 -10.20349 -10.20202
 Alpha  occ. eigenvalues --  -10.19972 -10.19947 -10.19941 -10.19854 -10.19792
 Alpha  occ. eigenvalues --  -10.19692 -10.19647 -10.19493 -10.19315 -10.19115
 Alpha  occ. eigenvalues --  -10.19018 -10.18987 -10.18942 -10.18853 -10.18704
 Alpha  occ. eigenvalues --  -10.18538 -10.18446 -10.18321 -10.18196 -10.18114
 Alpha  occ. eigenvalues --  -10.17783 -10.16896 -10.16848 -10.16247  -1.08732
 Alpha  occ. eigenvalues --   -1.08114  -1.01302  -1.00027  -0.99776  -0.98927
 Alpha  occ. eigenvalues --   -0.98685  -0.94732  -0.92652  -0.83497  -0.83051
 Alpha  occ. eigenvalues --   -0.82889  -0.82088  -0.81694  -0.80865  -0.80744
 Alpha  occ. eigenvalues --   -0.79963  -0.79700  -0.79583  -0.78397  -0.77432
 Alpha  occ. eigenvalues --   -0.76999  -0.76544  -0.75562  -0.75221  -0.74059
 Alpha  occ. eigenvalues --   -0.73446  -0.73179  -0.72757  -0.71973  -0.71621
 Alpha  occ. eigenvalues --   -0.69957  -0.69178  -0.68751  -0.68289  -0.67572
 Alpha  occ. eigenvalues --   -0.67096  -0.66456  -0.66106  -0.65715  -0.65088
 Alpha  occ. eigenvalues --   -0.64385  -0.63169  -0.62530  -0.62239  -0.61629
 Alpha  occ. eigenvalues --   -0.60523  -0.59053  -0.58489  -0.58079  -0.57673
 Alpha  occ. eigenvalues --   -0.57551  -0.57355  -0.56900  -0.55649  -0.55298
 Alpha  occ. eigenvalues --   -0.54951  -0.54253  -0.54062  -0.53951  -0.52918
 Alpha  occ. eigenvalues --   -0.52236  -0.51760  -0.51372  -0.50693  -0.50099
 Alpha  occ. eigenvalues --   -0.49383  -0.49172  -0.48926  -0.48811  -0.48712
 Alpha  occ. eigenvalues --   -0.48351  -0.47752  -0.47376  -0.47253  -0.47018
 Alpha  occ. eigenvalues --   -0.46884  -0.46777  -0.46438  -0.46141  -0.45797
 Alpha  occ. eigenvalues --   -0.45507  -0.45292  -0.45085  -0.44958  -0.44678
 Alpha  occ. eigenvalues --   -0.44539  -0.44457  -0.44425  -0.43904  -0.43359
 Alpha  occ. eigenvalues --   -0.43197  -0.42823  -0.42571  -0.42357  -0.42198
 Alpha  occ. eigenvalues --   -0.42112  -0.41982  -0.41854  -0.41826  -0.41431
 Alpha  occ. eigenvalues --   -0.41059  -0.40870  -0.40780  -0.40645  -0.40622
 Alpha  occ. eigenvalues --   -0.40401  -0.40195  -0.40085  -0.39846  -0.39570
 Alpha  occ. eigenvalues --   -0.39350  -0.38672  -0.38556  -0.38402  -0.38270
 Alpha  occ. eigenvalues --   -0.38165  -0.37923  -0.37836  -0.37768  -0.37507
 Alpha  occ. eigenvalues --   -0.37335  -0.36959  -0.36932  -0.36606  -0.36378
 Alpha  occ. eigenvalues --   -0.36191  -0.36000  -0.35855  -0.35602  -0.35453
 Alpha  occ. eigenvalues --   -0.35305  -0.35221  -0.35172  -0.35105  -0.34936
 Alpha  occ. eigenvalues --   -0.34890  -0.34730  -0.34548  -0.34356  -0.34031
 Alpha  occ. eigenvalues --   -0.33921  -0.33862  -0.33246  -0.32309  -0.32085
 Alpha  occ. eigenvalues --   -0.31639  -0.31422  -0.31078  -0.30956  -0.30724
 Alpha  occ. eigenvalues --   -0.30694  -0.30278  -0.30115  -0.29897  -0.29689
 Alpha  occ. eigenvalues --   -0.29189  -0.28806  -0.28470  -0.28174  -0.28000
 Alpha  occ. eigenvalues --   -0.27875  -0.27664  -0.26780  -0.26270  -0.25497
 Alpha  occ. eigenvalues --   -0.24770  -0.24236  -0.24098  -0.22134  -0.19610
 Alpha  occ. eigenvalues --   -0.18835
 Alpha virt. eigenvalues --   -0.10420  -0.08002  -0.04672  -0.02695  -0.02211
 Alpha virt. eigenvalues --   -0.00193   0.00031   0.00712   0.02143   0.03333
 Alpha virt. eigenvalues --    0.03570   0.03593   0.04174   0.04576   0.04745

 Mulliken charges:
               1
     1  C    0.047337
     2  C   -0.061392
     3  C   -0.083148
     4  C   -0.070756
     5  N   -0.156010
     6  C   -0.037855
     7  C    0.015652
     8  C    0.057127
     9  C   -0.069770
    10  C   -0.013015
    11  C    0.063045
    12  C   -0.060196
    13  C    0.196837
    14  O   -0.212207
    15  O   -0.354634
    16  N    0.040136
    17  C    0.185097
    18  C   -0.105458
    19  C    0.031111
    20  C    0.038923
    21  C    0.071674
    22  C   -0.022397
    23  C    0.060933
    24  N   -0.278582
    25  C    0.090211
    26  C   -0.146092
    27  C   -0.134757
    28  C    0.012866
    29  C    0.085220
    30  C    0.131422
    31  C   -0.021686
    32  N    0.056987
    33  C    0.052391
    34  C   -0.128244
    35  C   -0.027454
    36  C    0.056433
    37  C    0.059772
    38  C    0.084474
    39  O   -0.224178
    40  C   -0.123540
    41  C    0.220915
    42  O   -0.203055
    43  O   -0.330563
    44  C    0.249121
    45  C    0.143689
    46  C   -0.032569
    47  C   -0.130250
    48  C    0.046555
    49  C   -0.009390
    50  C   -0.025270
    51  C    0.129254
    52  C   -0.044064
    53  C    0.050912
    54  C    0.076366
    55  C    0.036153
    56  C    0.058415
    57  C   -0.057092
    58  C    0.008750
    59  C   -0.030948
    60  C    0.191004
    61  C   -0.097066
    62  C   -0.100483
    63  C   -0.063248
    64  C    0.040013
    65  H   -0.052393
    66  H   -0.013482
    67  H   -0.005872
    68  H   -0.033051
    69  H   -0.049846
    70  H    0.033930
    71  H    0.020454
    72  H    0.062684
    73  H   -0.009299
    74  H    0.015636
    75  H    0.056117
    76  H    0.066066
    77  H    0.028033
    78  H    0.037386
    79  H    0.028077
    80  H   -0.019611
    81  H    0.023213
    82  H   -0.083257
    83  H    0.022314
    84  H    0.032828
    85  H    0.000238
    86  H   -0.011531
    87  H   -0.013462
    88  H    0.010733
    89  H    0.031773
    90  H    0.029936
    91  H    0.041169
    92  H    0.052582
    93  H    0.028601
    94  H    0.078582
    95  H    0.020802
    96  H    0.040944
    97  H    0.002822
    98  H    0.045380
    99  H    0.055877
   100  H    0.026267
   101  H    0.019119
   102  H    0.069953
   103  H    0.008956
   104  H    0.034183
   105  H    0.022406
   106  H    0.015104
   107  H    0.012220
   108  H   -0.069755
   109  H   -0.058799
   110  H   -0.025527
   111  H   -0.002166
   112  H   -0.018239
   113  H    0.022933
   114  H   -0.046097
   115  H   -0.046861
   116  H    0.032983
   117  H   -0.004028
   118  H   -0.039532
   119  H   -0.026509
   120  H   -0.022143
   121  H    0.016510
   122  H    0.008575
   123  H    0.018678
   124  H   -0.002581
   125  H    0.018276
   126  H   -0.002374
   127  H   -0.076611
   128  H    0.005491
   129  H    0.014104
   130  H   -0.011372
   131  H   -0.000515
   132  H    0.031750
   133  H    0.033679
   134  H    0.018926
   135  H    0.017206
   136  H    0.014503
   137  H    0.058787
   138  H    0.124701
 Sum of Mulliken charges =  -0.00000

 Dipole moment (field-independent basis, Debye):
    X=              4.0385    Y=              4.9591    Z=              0.8988  Tot=              6.4583
 Quadrupole moment (field-independent basis, Debye-Ang):
   XX=           -358.7639   YY=           -385.0566   ZZ=           -395.8662
   XY=            -19.0805   XZ=              3.0098   YZ=             -2.4048

 Normal termination of Gaussian 16 at Sun Aug 25 10:53:39 2019.
