 Gaussian 16, Revision A.03,
 Gaussian 16:  ES64L-G16RevA.03 25-Dec-2016

 --------------------------
 # td=(NStates=1) B3LYP/SVP
 --------------------------

 --
 TD
 --
 Symbolic Z-matrix:
 Charge =  0 Multiplicity = 1

                         Standard orientation:
 ---------------------------------------------------------------------
 Center     Atomic      Atomic             Coordinates (Angstroms)
 Number     Number       Type             X           Y           Z
 ---------------------------------------------------------------------
      1          6           0       -5.130680   -1.906745    0.305908
      2          6           0       -4.799888    2.738437    1.549954
      3          6           0       -9.455723    3.354072   -0.170520
      4          6           0       -9.819090   -1.473338   -0.996562
      5          7           0       -5.203779    0.395828    0.891425
      6          6           0       -4.512536   -0.766651    0.811655
      7          6           0       -3.107141   -0.581155    1.184521
      8          6           0       -3.111581    0.883374    1.813141
      9          6           0       -4.501399    1.399696    1.319727
     10          6           0       -2.878986    0.874012    3.313218
     11          6           0       -2.056380   -0.772658    0.016140
     12          6           0       -0.581359   -0.679545    0.450769
     13          6           0        0.422678   -0.923926   -0.554811
     14          8           0        0.086282   -1.188110   -1.750442
     15          8           0        1.631800   -0.811500   -0.137255
     16          7           0       -7.227732    2.762628    0.576002
     17          6           0       -6.050932    3.367004    1.080341
     18          6           0       -6.406676    4.740063    1.035563
     19          6           0       -7.655099    4.972234    0.532191
     20          6           0       -8.175922    3.715125    0.263353
     21          6           0       -5.409530    5.800714    1.558666
     22          6           0       -8.288446    6.256268    0.432558
     23          6           0       -9.252108    6.631595   -0.387605
     24          7           0       -9.314268    0.842705   -0.410368
     25          6           0       -9.982594    1.997852   -0.543580
     26          6           0      -11.213604    1.924634   -1.071628
     27          6           0      -11.360965    0.493710   -1.264335
     28          6           0      -10.162935   -0.127232   -0.859928
     29          6           0      -12.294891    2.983032   -1.296477
     30          6           0      -12.558282   -0.198320   -1.855133
     31          6           0      -12.489348   -0.277191   -3.420058
     32          7           0       -7.563462   -1.273541   -0.197148
     33          6           0       -8.581680   -2.022041   -0.687626
     34          6           0       -8.166718   -3.381790   -0.560799
     35          6           0       -6.835758   -3.420568   -0.185827
     36          6           0       -6.496718   -2.112685    0.044066
     37          6           0       -9.001301   -4.579010   -0.986671
     38          6           0       -5.743421   -4.326792    0.113918
     39          8           0       -5.705332   -5.509045   -0.031541
     40          6           0       -4.506353   -3.386163    0.379661
     41          6           0       -3.886671   -3.842687    1.621340
     42          8           0       -4.061304   -3.472701    2.781008
     43          8           0       -3.041028   -4.820727    1.425679
     44          6           0       -2.538895   -5.485158    2.538648
     45          6           0        2.771455   -1.039916   -1.071408
     46          6           0        4.008452   -0.774772   -0.344082
     47          6           0        5.022958   -0.081159   -0.920659
     48          6           0        5.018939    0.587584   -2.287863
     49          6           0        6.292802    0.132364   -0.227506
     50          6           0        7.516398   -0.600988   -0.724541
     51          6           0        8.792733   -0.140630   -0.011006
     52          6           0       10.172118   -0.833501   -0.694686
     53          6           0       10.090928   -2.359671   -0.685464
     54          6           0       11.301023   -0.332979    0.140636
     55          6           0       12.692525   -0.699213   -0.487357
     56          6           0       13.885814   -0.127476    0.288759
     57          6           0       15.272037   -0.120313   -0.346347
     58          6           0       15.707537   -1.540457   -0.667174
     59          6           0       16.341599    0.540652    0.443723
     60          6           0       17.820277    0.710200   -0.243830
     61          6           0       18.724607    1.571563    0.503661
     62          6           0       20.164738    1.889598   -0.026947
     63          6           0       20.084089    2.491938   -1.459308
     64          6           0       21.008025    2.653180    0.859810
     65          1           0       -4.240298    3.629442    1.842493
     66          1           0      -10.076288    4.262025   -0.186243
     67          1           0      -10.568691   -2.103357   -1.682942
     68          1           0       -2.698929   -1.352702    1.896047
     69          1           0       -2.406584    1.506412    1.222581
     70          1           0       -1.748865    0.466116    3.428267
     71          1           0       -3.021545    1.707727    3.947089
     72          1           0       -3.743303    0.269141    3.759976
     73          1           0       -2.406476   -1.649331   -0.544374
     74          1           0       -2.277346    0.015047   -0.649132
     75          1           0       -0.401658    0.521987    0.754690
     76          1           0       -0.402924   -1.264740    1.353869
     77          1           0       -4.589347    5.995687    0.783693
     78          1           0       -5.698183    6.807659    1.560161
     79          1           0       -5.077306    5.622778    2.598639
     80          1           0       -7.878949    6.982532    1.054418
     81          1           0       -9.690204    5.805357   -1.162176
     82          1           0       -9.782636    7.586862   -0.261118
     83          1           0      -12.563742    3.238299   -0.396219
     84          1           0      -11.806273    3.609478   -1.998161
     85          1           0      -13.236565    2.604508   -1.643272
     86          1           0      -12.633710   -1.181026   -1.182489
     87          1           0      -13.605382    0.464902   -1.454827
     88          1           0      -12.158391    0.580963   -3.922724
     89          1           0      -11.594272   -1.063998   -3.522286
     90          1           0      -13.350278   -0.629950   -3.706360
     91          1           0       -9.772880   -4.930492   -0.039197
     92          1           0       -9.367239   -4.094984   -2.045779
     93          1           0       -8.614382   -5.529242   -0.998104
     94          1           0       -3.882133   -3.535963   -0.403926
     95          1           0       -2.011568   -6.408300    2.330517
     96          1           0       -2.034927   -4.781356    3.080160
     97          1           0       -3.377699   -5.789167    3.286814
     98          1           0        2.761655   -2.188424   -1.335244
     99          1           0        2.501715   -0.458604   -1.883306
    100          1           0        4.062150   -1.001105    0.668222
    101          1           0        5.335691    1.757059   -2.099408
    102          1           0        5.889555    0.079102   -2.969052
    103          1           0        4.110228    0.685669   -2.828919
    104          1           0        6.605352    1.272941   -0.392813
    105          1           0        6.162805   -0.011724    0.870126
    106          1           0        7.232545   -1.670873   -0.648945
    107          1           0        7.570238   -0.376421   -1.914432
    108          1           0        8.823404    1.059199   -0.235291
    109          1           0        8.866572   -0.530958    1.159840
    110          1           0       10.152784   -0.622086   -1.737195
    111          1           0        9.151473   -2.626088   -1.124988
    112          1           0       10.910362   -2.923255   -1.297242
    113          1           0        9.998070   -2.913401    0.486829
    114          1           0       11.185416    0.724021    0.166701
    115          1           0       11.364192   -0.844873    1.235920
    116          1           0       13.072406   -1.807840   -0.386297
    117          1           0       12.836063   -0.298940   -1.514592
    118          1           0       13.569389    0.751262    0.603156
    119          1           0       13.831043   -0.580181    1.286213
    120          1           0       15.385713    0.423225   -1.363250
    121          1           0       15.045525   -2.120740   -1.336446
    122          1           0       16.856162   -1.684600   -0.926861
    123          1           0       15.635420   -2.045497    0.215531
    124          1           0       15.894305    1.651034    0.427605
    125          1           0       16.480918    0.038169    1.473855
    126          1           0       18.245487   -0.309010   -0.339200
    127          1           0       17.703296    0.894998   -1.306427
    128          1           0       18.345792    2.662825    0.974515
    129          1           0       18.916482    0.895044    1.400777
    130          1           0       20.732460    0.926303   -0.317565
    131          1           0       19.811298    3.570830   -1.338052
    132          1           0       21.066538    2.309791   -2.013335
    133          1           0       19.247536    2.165637   -2.205565
    134          1           0       21.260129    2.044992    1.710152
    135          1           0       22.131844    2.983994    0.410359
    136          1           0       20.538203    3.771862    1.293312
    137          1           0       -7.463853    1.825225    0.331301
    138          1           0       -7.814756   -0.282589    0.007802
 ---------------------------------------------------------------------

 SCF Done:  E(RB3LYP) =  -2733.02916730     A.U. after   16 cycles

 Excitation energies and oscillator strengths:

 Excited State   1:      Singlet-A      2.0931 eV  592.34 nm  f=0.0908  <S**2>=0.000
     235 -> 237       -0.26977
     235 -> 238        0.33814
     236 -> 237        0.52809
     236 -> 238        0.17137
 This state for optimization and/or second-order correction.
 Total Energy, E(TD-HF/TD-DFT) =  -2732.95224598
 Copying the excited state density for this state as the 1-particle RhoCI density.

 The electronic state is 1-A.
 Alpha  occ. eigenvalues --  -19.18218 -19.17514 -19.12968 -19.10863 -19.10256
 Alpha  occ. eigenvalues --  -14.36358 -14.36054 -14.31211 -14.29087 -10.30891
 Alpha  occ. eigenvalues --  -10.30688 -10.28290 -10.25755 -10.24443 -10.23457
 Alpha  occ. eigenvalues --  -10.23388 -10.22914 -10.22860 -10.22766 -10.22745
 Alpha  occ. eigenvalues --  -10.21996 -10.21561 -10.21490 -10.21471 -10.21240
 Alpha  occ. eigenvalues --  -10.21231 -10.21222 -10.21014 -10.20853 -10.20786
 Alpha  occ. eigenvalues --  -10.20664 -10.20495 -10.20484 -10.20480 -10.20416
 Alpha  occ. eigenvalues --  -10.20303 -10.20260 -10.20100 -10.20089 -10.19847
 Alpha  occ. eigenvalues --  -10.19781 -10.19732 -10.19728 -10.19716 -10.19712
 Alpha  occ. eigenvalues --  -10.19666 -10.19635 -10.19626 -10.19594 -10.19414
 Alpha  occ. eigenvalues --  -10.19348 -10.19123 -10.19106 -10.18959 -10.18823
 Alpha  occ. eigenvalues --  -10.18615 -10.18467 -10.18325 -10.18201 -10.17737
 Alpha  occ. eigenvalues --  -10.17431 -10.17416 -10.17121 -10.16618  -1.11290
 Alpha  occ. eigenvalues --   -1.10049  -1.04635  -0.99067  -0.98776  -0.97632
 Alpha  occ. eigenvalues --   -0.97083  -0.95095  -0.94151  -0.85489  -0.83765
 Alpha  occ. eigenvalues --   -0.82664  -0.82368  -0.81092  -0.80844  -0.80496
 Alpha  occ. eigenvalues --   -0.80169  -0.80045  -0.79250  -0.78441  -0.78336
 Alpha  occ. eigenvalues --   -0.77647  -0.76473  -0.76127  -0.75318  -0.74742
 Alpha  occ. eigenvalues --   -0.74179  -0.73475  -0.72706  -0.72258  -0.71117
 Alpha  occ. eigenvalues --   -0.70310  -0.69955  -0.69136  -0.68428  -0.67624
 Alpha  occ. eigenvalues --   -0.67204  -0.66663  -0.66462  -0.66048  -0.65513
 Alpha  occ. eigenvalues --   -0.64930  -0.63243  -0.62569  -0.61680  -0.61444
 Alpha  occ. eigenvalues --   -0.61023  -0.58916  -0.58260  -0.57816  -0.57565
 Alpha  occ. eigenvalues --   -0.56732  -0.56706  -0.56502  -0.55867  -0.55309
 Alpha  occ. eigenvalues --   -0.54581  -0.54526  -0.53855  -0.53652  -0.53621
 Alpha  occ. eigenvalues --   -0.53453  -0.52601  -0.51845  -0.51706  -0.50924
 Alpha  occ. eigenvalues --   -0.50413  -0.49887  -0.49284  -0.49087  -0.48457
 Alpha  occ. eigenvalues --   -0.48139  -0.47953  -0.47469  -0.47434  -0.47253
 Alpha  occ. eigenvalues --   -0.47017  -0.46566  -0.46389  -0.45990  -0.45859
 Alpha  occ. eigenvalues --   -0.45553  -0.45510  -0.45403  -0.45300  -0.44969
 Alpha  occ. eigenvalues --   -0.44846  -0.44653  -0.44282  -0.44123  -0.44007
 Alpha  occ. eigenvalues --   -0.43627  -0.43457  -0.43369  -0.42889  -0.42579
 Alpha  occ. eigenvalues --   -0.42458  -0.42115  -0.42085  -0.41846  -0.41694
 Alpha  occ. eigenvalues --   -0.41234  -0.41120  -0.41027  -0.40658  -0.40513
 Alpha  occ. eigenvalues --   -0.40153  -0.40095  -0.39710  -0.39614  -0.39567
 Alpha  occ. eigenvalues --   -0.39369  -0.39188  -0.38824  -0.38358  -0.38317
 Alpha  occ. eigenvalues --   -0.38236  -0.38214  -0.38012  -0.37819  -0.37649
 Alpha  occ. eigenvalues --   -0.37319  -0.37167  -0.36877  -0.36667  -0.36249
 Alpha  occ. eigenvalues --   -0.36071  -0.35930  -0.35771  -0.35466  -0.35356
 Alpha  occ. eigenvalues --   -0.35098  -0.35033  -0.34792  -0.34575  -0.34508
 Alpha  occ. eigenvalues --   -0.34388  -0.34237  -0.34047  -0.33628  -0.33334
 Alpha  occ. eigenvalues --   -0.33095  -0.33035  -0.32974  -0.32915  -0.32322
 Alpha  occ. eigenvalues --   -0.31966  -0.31930  -0.31638  -0.31205  -0.30982
 Alpha  occ. eigenvalues --   -0.30886  -0.30772  -0.30001  -0.29759  -0.29706
 Alpha  occ. eigenvalues --   -0.29633  -0.29378  -0.28912  -0.28274  -0.27105
 Alpha  occ. eigenvalues --   -0.26870  -0.26645  -0.26094  -0.26012  -0.25610
 Alpha  occ. eigenvalues --   -0.25130  -0.24936  -0.24381  -0.21255  -0.19915
 Alpha  occ. eigenvalues --   -0.19537
 Alpha virt. eigenvalues --   -0.10394  -0.08713  -0.04670  -0.01437  -0.01282
 Alpha virt. eigenvalues --    0.00008   0.00527   0.00823   0.02592   0.02983
 Alpha virt. eigenvalues --    0.03269   0.03847   0.04199   0.04246   0.04661

 Mulliken charges:
               1
     1  C   -0.005920
     2  C   -0.014914
     3  C   -0.095990
     4  C   -0.111238
     5  N   -0.122081
     6  C   -0.036428
     7  C   -0.077126
     8  C   -0.024350
     9  C    0.015737
    10  C    0.054770
    11  C    0.096940
    12  C    0.007446
    13  C    0.174068
    14  O   -0.313676
    15  O   -0.290745
    16  N   -0.078249
    17  C    0.038106
    18  C   -0.133947
    19  C    0.107573
    20  C    0.006607
    21  C    0.083487
    22  C   -0.026279
    23  C   -0.058830
    24  N   -0.257222
    25  C    0.087496
    26  C   -0.208208
    27  C   -0.098728
    28  C    0.070409
    29  C    0.258759
    30  C   -0.099252
    31  C    0.127669
    32  N   -0.040305
    33  C    0.038509
    34  C   -0.139600
    35  C    0.028293
    36  C    0.110779
    37  C    0.050740
    38  C    0.043535
    39  O   -0.135388
    40  C    0.021286
    41  C    0.177553
    42  O   -0.262143
    43  O   -0.256489
    44  C    0.221008
    45  C    0.308167
    46  C   -0.059579
    47  C   -0.108090
    48  C    0.007408
    49  C    0.041476
    50  C   -0.024244
    51  C   -0.041026
    52  C   -0.056407
    53  C   -0.039866
    54  C    0.085732
    55  C   -0.043894
    56  C    0.120645
    57  C   -0.028396
    58  C    0.026980
    59  C   -0.040352
    60  C    0.044108
    61  C    0.006741
    62  C   -0.067766
    63  C   -0.033982
    64  C   -0.028374
    65  H   -0.019434
    66  H   -0.021935
    67  H    0.036021
    68  H    0.017989
    69  H   -0.007698
    70  H    0.034382
    71  H   -0.000743
    72  H    0.030898
    73  H    0.008662
    74  H   -0.017760
    75  H    0.056074
    76  H    0.027790
    77  H    0.033121
    78  H   -0.023075
    79  H    0.043546
    80  H   -0.033886
    81  H    0.052129
    82  H    0.029552
    83  H   -0.020904
    84  H    0.021657
    85  H   -0.017453
    86  H    0.035879
    87  H    0.010907
    88  H    0.010950
    89  H    0.008558
    90  H   -0.015750
    91  H    0.040470
    92  H    0.066901
    93  H    0.000865
    94  H    0.013942
    95  H    0.032538
    96  H   -0.010512
    97  H    0.024024
    98  H    0.050778
    99  H    0.005823
   100  H   -0.026851
   101  H    0.037570
   102  H    0.053225
   103  H    0.009726
   104  H   -0.002435
   105  H   -0.001369
   106  H    0.011579
   107  H    0.010095
   108  H    0.031829
   109  H    0.035849
   110  H   -0.012630
   111  H   -0.000469
   112  H    0.038439
   113  H    0.012229
   114  H   -0.013880
   115  H    0.020576
   116  H    0.024567
   117  H   -0.001021
   118  H   -0.085045
   119  H   -0.033866
   120  H   -0.004746
   121  H    0.013878
   122  H    0.015726
   123  H   -0.038750
   124  H    0.015512
   125  H    0.010968
   126  H   -0.008852
   127  H   -0.021159
   128  H    0.018489
   129  H   -0.000578
   130  H   -0.001144
   131  H    0.001980
   132  H    0.021328
   133  H    0.017918
   134  H    0.009784
   135  H    0.026607
   136  H    0.026262
   137  H    0.122714
   138  H    0.158695
 Sum of Mulliken charges =  -0.00000

 Dipole moment (field-independent basis, Debye):
    X=              2.6792    Y=              4.0926    Z=              0.1722  Tot=              4.8946
 Quadrupole moment (field-independent basis, Debye-Ang):
   XX=           -359.8222   YY=           -378.7275   ZZ=           -398.1550
   XY=            -34.4668   XZ=              9.9837   YZ=              0.8342

 Normal termination of Gaussian 16 at Fri Aug 30 00:30:37 2019.
