 Gaussian 16, Revision A.03,
 Gaussian 16:  ES64L-G16RevA.03 25-Dec-2016

 --------------------------
 # td=(NStates=1) B3LYP/SVP
 --------------------------

 --
 TD
 --
 Symbolic Z-matrix:
 Charge =  0 Multiplicity = 1

                         Standard orientation:
 ---------------------------------------------------------------------
 Center     Atomic      Atomic             Coordinates (Angstroms)
 Number     Number       Type             X           Y           Z
 ---------------------------------------------------------------------
      1          6           0       -5.041489   -1.897460    0.505806
      2          6           0       -4.758989    2.697423    1.471316
      3          6           0       -9.321552    3.355416   -0.255806
      4          6           0       -9.697936   -1.430344   -0.965666
      5          7           0       -5.132657    0.463282    0.827976
      6          6           0       -4.481481   -0.715938    0.849384
      7          6           0       -3.066982   -0.576848    1.286162
      8          6           0       -3.035210    0.828140    1.897740
      9          6           0       -4.358514    1.405908    1.358433
     10          6           0       -3.008354    0.797878    3.445641
     11          6           0       -2.029900   -0.708179    0.073472
     12          6           0       -0.549824   -0.808608    0.490405
     13          6           0        0.294408   -1.202544   -0.621594
     14          8           0       -0.130768   -1.736523   -1.638833
     15          8           0        1.563442   -0.862331   -0.277330
     16          7           0       -7.019479    2.668714    0.538821
     17          6           0       -5.865927    3.336384    1.005515
     18          6           0       -6.079537    4.781779    1.040554
     19          6           0       -7.390161    5.021769    0.585748
     20          6           0       -8.025099    3.639213    0.263012
     21          6           0       -5.206352    5.833332    1.525284
     22          6           0       -8.187904    6.319631    0.322500
     23          6           0       -9.020494    6.744741   -0.552342
     24          7           0       -9.193062    0.973684   -0.521378
     25          6           0       -9.837208    2.122183   -0.580842
     26          6           0      -11.254002    1.955544   -0.953982
     27          6           0      -11.381432    0.589907   -1.159637
     28          6           0      -10.080653   -0.010797   -0.842149
     29          6           0      -12.298929    3.019231   -1.289665
     30          6           0      -12.621435   -0.109304   -1.619941
     31          6           0      -12.465008   -0.494231   -3.296221
     32          7           0       -7.553502   -1.179929   -0.068682
     33          6           0       -8.617855   -2.008733   -0.379493
     34          6           0       -8.165187   -3.378830   -0.499437
     35          6           0       -6.806943   -3.326781   -0.128049
     36          6           0       -6.411380   -1.988623    0.203431
     37          6           0       -9.059167   -4.516956   -0.972834
     38          6           0       -5.777101   -4.296356    0.039327
     39          8           0       -5.676040   -5.455718   -0.136934
     40          6           0       -4.546685   -3.353071    0.401430
     41          6           0       -4.050074   -3.857266    1.770674
     42          8           0       -4.239167   -3.399845    2.853414
     43          8           0       -3.094060   -4.836115    1.556297
     44          6           0       -2.649908   -5.566021    2.784099
     45          6           0        2.642234   -1.172581   -1.241790
     46          6           0        3.885201   -0.772968   -0.664096
     47          6           0        4.968052   -0.021154   -1.270275
     48          6           0        4.873327    0.555388   -2.670698
     49          6           0        6.257303    0.189578   -0.441060
     50          6           0        7.469017   -0.444651   -1.120646
     51          6           0        8.783669   -0.254837   -0.203876
     52          6           0       10.033636   -0.697459   -0.887374
     53          6           0       10.003952   -2.237616   -1.031941
     54          6           0       11.301133   -0.256132    0.071239
     55          6           0       12.722565   -0.360092   -0.638554
     56          6           0       13.847882    0.149208    0.312500
     57          6           0       15.200977   -0.038879   -0.346911
     58          6           0       15.633831   -1.477328   -0.615733
     59          6           0       16.274071    0.674203    0.379980
     60          6           0       17.750434    0.658404   -0.089047
     61          6           0       18.645813    1.536654    0.803990
     62          6           0       20.026075    1.656746    0.339883
     63          6           0       20.183854    1.912981   -1.159326
     64          6           0       20.942381    2.553104    1.136138
     65          1           0       -4.177938    3.454500    1.858274
     66          1           0       -9.978559    4.113214   -0.322997
     67          1           0      -10.593995   -2.045697   -1.220987
     68          1           0       -2.786820   -1.709101    1.859317
     69          1           0       -2.206407    1.415385    1.298988
     70          1           0       -2.052241    0.286138    3.616976
     71          1           0       -3.065562    1.887270    3.767108
     72          1           0       -3.628524    0.155592    3.756545
     73          1           0       -2.209733   -1.491651   -0.632488
     74          1           0       -2.058857   -0.088008   -0.584245
     75          1           0       -0.164754    0.224274    0.755269
     76          1           0       -0.471302   -1.429532    1.496431
     77          1           0       -4.348802    5.847658    0.842941
     78          1           0       -5.730294    6.866714    1.594236
     79          1           0       -5.127995    5.455969    2.628115
     80          1           0       -7.549494    7.133057    1.042074
     81          1           0       -9.460059    5.933323   -1.153862
     82          1           0       -9.294476    7.752345   -0.756322
     83          1           0      -12.328179    3.802453   -0.412120
     84          1           0      -12.109282    3.665479   -2.081685
     85          1           0      -13.226395    2.545750   -1.256757
     86          1           0      -12.779015   -0.954893   -0.979488
     87          1           0      -13.491481    0.468096   -1.598524
     88          1           0      -12.220156    0.373308   -3.884749
     89          1           0      -11.635762   -1.357768   -3.554730
     90          1           0      -13.677245   -0.836153   -3.516727
     91          1           0      -10.055817   -4.507423   -0.525627
     92          1           0       -9.198296   -4.616279   -2.228632
     93          1           0       -8.371754   -5.377052   -0.570835
     94          1           0       -3.664690   -3.447694   -0.157858
     95          1           0       -2.029924   -6.464827    2.213198
     96          1           0       -2.195302   -4.902124    3.532567
     97          1           0       -3.546187   -5.973371    3.213576
     98          1           0        2.540907   -2.285796   -1.566376
     99          1           0        2.422927   -0.599068   -2.349267
    100          1           0        4.142342   -1.038106    0.250358
    101          1           0        5.145173    1.734535   -2.492247
    102          1           0        5.499119   -0.050006   -3.381920
    103          1           0        3.799434    0.359020   -3.253086
    104          1           0        6.474212    1.365059   -0.272100
    105          1           0        5.946293   -0.144122    0.600195
    106          1           0        7.269699   -1.460053   -1.360277
    107          1           0        7.590223   -0.026734   -1.930004
    108          1           0        9.002859    0.805007    0.184005
    109          1           0        8.503421   -0.899187    0.689864
    110          1           0       10.123206   -0.082203   -1.914570
    111          1           0        9.208449   -2.272272   -1.784553
    112          1           0       10.969853   -2.608349   -1.646699
    113          1           0        9.713568   -2.857242   -0.091788
    114          1           0       11.106872    0.686550    0.304903
    115          1           0       11.110365   -0.947793    1.029593
    116          1           0       13.077713   -1.420752   -1.083724
    117          1           0       12.890688    0.224252   -1.476522
    118          1           0       13.624945    1.251211    0.623512
    119          1           0       13.801038   -0.536463    1.226414
    120          1           0       15.173209    0.378902   -1.334159
    121          1           0       14.899038   -1.952110   -1.255884
    122          1           0       16.554214   -1.607392   -1.146124
    123          1           0       15.769350   -2.025752    0.494056
    124          1           0       16.037328    1.734784    0.441897
    125          1           0       16.378409    0.271538    1.375759
    126          1           0       18.167688   -0.267705   -0.407105
    127          1           0       17.430036    1.043892   -1.145314
    128          1           0       18.106636    2.691123    0.941798
    129          1           0       18.462307    1.115295    1.845247
    130          1           0       20.540985    0.634422    0.471816
    131          1           0       19.662219    2.843022   -1.563528
    132          1           0       21.369135    2.078714   -1.107760
    133          1           0       19.814798    1.268692   -2.012142
    134          1           0       20.770436    2.483757    2.331578
    135          1           0       22.122436    2.385808    1.005935
    136          1           0       20.534228    3.819910    0.849167
    137          1           0       -7.307894    1.642376    0.418323
    138          1           0       -7.655748   -0.196677   -0.024399
 ---------------------------------------------------------------------

 SCF Done:  E(RB3LYP) =  -2732.94421740     A.U. after   16 cycles

 Excitation energies and oscillator strengths:

 Excited State   1:      Singlet-A      2.0415 eV  607.31 nm  f=0.1505  <S**2>=0.000
     235 -> 238       -0.30155
     236 -> 237        0.62344
     236 -> 238       -0.10219
 This state for optimization and/or second-order correction.
 Total Energy, E(TD-HF/TD-DFT) =  -2732.86919259
 Copying the excited state density for this state as the 1-particle RhoCI density.

 The electronic state is 1-A.
 Alpha  occ. eigenvalues --  -19.18053 -19.16309 -19.12727 -19.12672 -19.12555
 Alpha  occ. eigenvalues --  -14.37013 -14.36489 -14.31480 -14.29614 -10.31360
 Alpha  occ. eigenvalues --  -10.30945 -10.27567 -10.26612 -10.25184 -10.24214
 Alpha  occ. eigenvalues --  -10.24030 -10.23865 -10.22595 -10.22233 -10.22115
 Alpha  occ. eigenvalues --  -10.21976 -10.21965 -10.21961 -10.21940 -10.21859
 Alpha  occ. eigenvalues --  -10.21625 -10.21610 -10.21549 -10.21498 -10.21401
 Alpha  occ. eigenvalues --  -10.21233 -10.21122 -10.21036 -10.20935 -10.20482
 Alpha  occ. eigenvalues --  -10.20388 -10.20264 -10.20158 -10.20121 -10.20062
 Alpha  occ. eigenvalues --  -10.19829 -10.19781 -10.19483 -10.19454 -10.19437
 Alpha  occ. eigenvalues --  -10.19265 -10.19121 -10.19044 -10.18960 -10.18898
 Alpha  occ. eigenvalues --  -10.18854 -10.18830 -10.18771 -10.18675 -10.18603
 Alpha  occ. eigenvalues --  -10.18236 -10.18209 -10.18166 -10.18089 -10.18076
 Alpha  occ. eigenvalues --  -10.17907 -10.17698 -10.16955 -10.16776  -1.08264
 Alpha  occ. eigenvalues --   -1.08055  -1.05053  -1.00516  -0.99543  -0.97059
 Alpha  occ. eigenvalues --   -0.95601  -0.94787  -0.93670  -0.85226  -0.82670
 Alpha  occ. eigenvalues --   -0.82304  -0.81927  -0.81203  -0.80930  -0.80678
 Alpha  occ. eigenvalues --   -0.80094  -0.79701  -0.78802  -0.78510  -0.77938
 Alpha  occ. eigenvalues --   -0.77337  -0.76474  -0.75664  -0.75315  -0.73965
 Alpha  occ. eigenvalues --   -0.72945  -0.72905  -0.72034  -0.71705  -0.70468
 Alpha  occ. eigenvalues --   -0.69990  -0.68565  -0.67960  -0.67365  -0.67106
 Alpha  occ. eigenvalues --   -0.67057  -0.66669  -0.66180  -0.65845  -0.65555
 Alpha  occ. eigenvalues --   -0.64172  -0.63540  -0.62717  -0.61688  -0.61181
 Alpha  occ. eigenvalues --   -0.60506  -0.59820  -0.58744  -0.57661  -0.57221
 Alpha  occ. eigenvalues --   -0.57149  -0.55663  -0.55507  -0.55243  -0.54883
 Alpha  occ. eigenvalues --   -0.54539  -0.54113  -0.53810  -0.52966  -0.52846
 Alpha  occ. eigenvalues --   -0.52470  -0.51374  -0.51058  -0.50554  -0.50289
 Alpha  occ. eigenvalues --   -0.49364  -0.49190  -0.48572  -0.48249  -0.48149
 Alpha  occ. eigenvalues --   -0.48022  -0.47509  -0.47123  -0.47035  -0.46775
 Alpha  occ. eigenvalues --   -0.46552  -0.46527  -0.46298  -0.46016  -0.45891
 Alpha  occ. eigenvalues --   -0.45422  -0.45073  -0.44769  -0.44611  -0.44546
 Alpha  occ. eigenvalues --   -0.44363  -0.44243  -0.43879  -0.43771  -0.43649
 Alpha  occ. eigenvalues --   -0.43618  -0.43471  -0.43375  -0.43191  -0.43021
 Alpha  occ. eigenvalues --   -0.42721  -0.42679  -0.42005  -0.41879  -0.41570
 Alpha  occ. eigenvalues --   -0.41167  -0.40858  -0.40801  -0.40537  -0.40099
 Alpha  occ. eigenvalues --   -0.39973  -0.39773  -0.39754  -0.39605  -0.39258
 Alpha  occ. eigenvalues --   -0.39103  -0.38789  -0.38693  -0.38242  -0.38168
 Alpha  occ. eigenvalues --   -0.38102  -0.38013  -0.37743  -0.37456  -0.37199
 Alpha  occ. eigenvalues --   -0.37067  -0.36991  -0.36629  -0.36373  -0.36144
 Alpha  occ. eigenvalues --   -0.36059  -0.35906  -0.35843  -0.35733  -0.35556
 Alpha  occ. eigenvalues --   -0.35231  -0.35190  -0.35100  -0.34903  -0.34769
 Alpha  occ. eigenvalues --   -0.34674  -0.34419  -0.34294  -0.34049  -0.33942
 Alpha  occ. eigenvalues --   -0.33372  -0.33031  -0.32770  -0.32672  -0.32546
 Alpha  occ. eigenvalues --   -0.32371  -0.32348  -0.32012  -0.31753  -0.31557
 Alpha  occ. eigenvalues --   -0.31298  -0.31017  -0.30590  -0.30310  -0.29878
 Alpha  occ. eigenvalues --   -0.29329  -0.28748  -0.28204  -0.28202  -0.27907
 Alpha  occ. eigenvalues --   -0.27614  -0.26910  -0.26611  -0.26112  -0.25978
 Alpha  occ. eigenvalues --   -0.24991  -0.24463  -0.23904  -0.22253  -0.19980
 Alpha  occ. eigenvalues --   -0.18471
 Alpha virt. eigenvalues --   -0.09873  -0.07930  -0.04299  -0.02307  -0.00982
 Alpha virt. eigenvalues --   -0.00731   0.00602   0.00959   0.02383   0.03345
 Alpha virt. eigenvalues --    0.03599   0.03789   0.03823   0.04311   0.04416

 Mulliken charges:
               1
     1  C   -0.027188
     2  C   -0.039387
     3  C   -0.016132
     4  C   -0.031658
     5  N   -0.140393
     6  C   -0.020466
     7  C   -0.174761
     8  C    0.000232
     9  C   -0.007040
    10  C    0.212593
    11  C    0.176570
    12  C   -0.012041
    13  C    0.201796
    14  O   -0.243201
    15  O   -0.326225
    16  N   -0.145189
    17  C    0.119262
    18  C   -0.130780
    19  C   -0.005464
    20  C    0.070989
    21  C    0.055475
    22  C   -0.028570
    23  C   -0.007855
    24  N   -0.226316
    25  C    0.047539
    26  C   -0.161317
    27  C   -0.077304
    28  C   -0.013848
    29  C    0.149585
    30  C    0.103719
    31  C   -0.106300
    32  N   -0.084929
    33  C    0.099960
    34  C   -0.103242
    35  C   -0.065039
    36  C    0.168386
    37  C    0.001120
    38  C    0.082616
    39  O   -0.119968
    40  C   -0.008127
    41  C    0.171663
    42  O   -0.206149
    43  O   -0.354778
    44  C    0.164599
    45  C    0.216511
    46  C    0.002352
    47  C   -0.180658
    48  C   -0.014745
    49  C    0.018819
    50  C    0.156762
    51  C   -0.008631
    52  C   -0.144555
    53  C    0.009900
    54  C    0.105707
    55  C    0.024485
    56  C    0.005297
    57  C   -0.031445
    58  C    0.016139
    59  C    0.057051
    60  C   -0.017546
    61  C    0.006677
    62  C   -0.023889
    63  C   -0.026117
    64  C   -0.095817
    65  H   -0.087094
    66  H   -0.094231
    67  H   -0.006234
    68  H    0.054524
    69  H    0.014142
    70  H    0.001316
    71  H    0.031468
    72  H   -0.038600
    73  H   -0.004457
    74  H   -0.120649
    75  H    0.030876
    76  H    0.053041
    77  H    0.049387
    78  H    0.037041
    79  H    0.057929
    80  H    0.005102
    81  H    0.022086
    82  H    0.023920
    83  H    0.009664
    84  H    0.011576
    85  H   -0.006870
    86  H    0.007320
    87  H   -0.022358
    88  H    0.032810
    89  H    0.052336
    90  H    0.033209
    91  H    0.036877
    92  H    0.065952
    93  H    0.064280
    94  H    0.023335
    95  H    0.069165
    96  H    0.044770
    97  H    0.027057
    98  H    0.050759
    99  H    0.040675
   100  H   -0.067809
   101  H    0.057776
   102  H    0.044923
   103  H    0.029990
   104  H    0.018508
   105  H    0.008470
   106  H    0.000467
   107  H   -0.086970
   108  H    0.005078
   109  H    0.001321
   110  H    0.011494
   111  H   -0.001283
   112  H    0.026555
   113  H    0.039868
   114  H   -0.048636
   115  H    0.012440
   116  H    0.010806
   117  H   -0.036209
   118  H    0.012998
   119  H    0.000640
   120  H   -0.036846
   121  H   -0.003645
   122  H    0.002675
   123  H    0.017988
   124  H   -0.015110
   125  H   -0.032033
   126  H   -0.007289
   127  H   -0.014506
   128  H    0.004815
   129  H    0.005767
   130  H    0.004194
   131  H    0.005042
   132  H    0.021200
   133  H    0.024466
   134  H    0.031934
   135  H    0.048516
   136  H    0.019718
   137  H    0.181400
   138  H    0.112434
 Sum of Mulliken charges =  -0.00000

 Dipole moment (field-independent basis, Debye):
    X=              2.9468    Y=              4.0035    Z=              0.3767  Tot=              4.9853
 Quadrupole moment (field-independent basis, Debye-Ang):
   XX=           -361.0593   YY=           -385.3673   ZZ=           -394.2726
   XY=            -31.6295   XZ=             -0.2591   YZ=             -5.5310

 Normal termination of Gaussian 16 at Mon Aug 19 07:57:56 2019.
