 Gaussian 16, Revision A.03,
 Gaussian 16:  ES64L-G16RevA.03 25-Dec-2016

 --------------------------
 # td=(NStates=1) B3LYP/SVP
 --------------------------

 --
 TD
 --
 Symbolic Z-matrix:
 Charge =  0 Multiplicity = 1

                         Standard orientation:
 ---------------------------------------------------------------------
 Center     Atomic      Atomic             Coordinates (Angstroms)
 Number     Number       Type             X           Y           Z
 ---------------------------------------------------------------------
      1          6           0       -5.068777   -1.959770    0.474314
      2          6           0       -4.769656    2.755137    1.498720
      3          6           0       -9.253550    3.319050   -0.283612
      4          6           0       -9.729107   -1.496770   -1.070714
      5          7           0       -5.183247    0.368212    0.968627
      6          6           0       -4.512701   -0.769372    0.877948
      7          6           0       -3.088391   -0.642077    1.381988
      8          6           0       -3.023442    0.825188    1.916993
      9          6           0       -4.425964    1.352542    1.508028
     10          6           0       -2.936315    0.863811    3.467746
     11          6           0       -2.038335   -0.762431    0.274072
     12          6           0       -0.513258   -0.686090    0.649940
     13          6           0        0.415038   -0.946416   -0.485971
     14          8           0        0.104133   -1.306203   -1.557522
     15          8           0        1.645841   -0.683262   -0.101968
     16          7           0       -7.008978    2.675959    0.584898
     17          6           0       -5.969700    3.308988    1.155607
     18          6           0       -6.275987    4.717801    1.175711
     19          6           0       -7.593163    4.913653    0.575599
     20          6           0       -7.988525    3.616443    0.279929
     21          6           0       -5.312181    5.806074    1.786707
     22          6           0       -8.179615    6.219625    0.388989
     23          6           0       -9.148825    6.564323   -0.486259
     24          7           0       -9.158836    0.842869   -0.616729
     25          6           0       -9.773737    2.043515   -0.591377
     26          6           0      -11.129158    1.916641   -1.125404
     27          6           0      -11.333716    0.510042   -1.327221
     28          6           0      -10.059206   -0.107670   -1.049376
     29          6           0      -12.320294    2.853749   -1.227145
     30          6           0      -12.478662   -0.278085   -1.978218
     31          6           0      -12.531540   -0.384422   -3.503465
     32          7           0       -7.427174   -1.324755   -0.278801
     33          6           0       -8.500765   -2.099845   -0.741030
     34          6           0       -8.153459   -3.390906   -0.768905
     35          6           0       -6.806777   -3.486453   -0.178408
     36          6           0       -6.393468   -2.111461   -0.050192
     37          6           0       -9.090337   -4.569749   -1.047233
     38          6           0       -5.639780   -4.342372    0.045615
     39          8           0       -5.512049   -5.532286   -0.084292
     40          6           0       -4.441531   -3.335248    0.401314
     41          6           0       -3.944449   -3.856575    1.756838
     42          8           0       -4.254778   -3.493727    2.833550
     43          8           0       -3.004188   -4.817459    1.596132
     44          6           0       -2.445623   -5.436828    2.738250
     45          6           0        2.636778   -0.812391   -1.234870
     46          6           0        3.949002   -0.466970   -0.629761
     47          6           0        4.954943    0.208785   -1.074454
     48          6           0        4.813620    1.088294   -2.303382
     49          6           0        6.281678    0.361467   -0.300177
     50          6           0        7.504841   -0.182197   -1.031829
     51          6           0        8.760614   -0.005593   -0.133807
     52          6           0       10.000469   -0.633775   -0.752058
     53          6           0        9.897785   -2.134642   -0.881197
     54          6           0       11.220673   -0.260577    0.108273
     55          6           0       12.539205   -0.520199   -0.588854
     56          6           0       13.833426   -0.007915    0.177762
     57          6           0       15.075946   -0.263997   -0.415720
     58          6           0       15.453505   -1.765153   -0.315393
     59          6           0       16.237149    0.594690    0.283892
     60          6           0       17.615230    0.561266   -0.223929
     61          6           0       18.503211    1.529714    0.510348
     62          6           0       20.023944    1.504492    0.053015
     63          6           0       20.198470    1.828852   -1.497385
     64          6           0       20.859002    2.467390    0.932317
     65          1           0       -4.075833    3.512784    1.910449
     66          1           0      -10.042014    4.065837   -0.569140
     67          1           0      -10.559924   -2.387651   -1.412522
     68          1           0       -2.913375   -1.433325    2.149368
     69          1           0       -2.166874    1.373368    1.577539
     70          1           0       -1.861950    0.429205    3.640337
     71          1           0       -2.933371    1.921877    3.968717
     72          1           0       -3.680846    0.266766    4.044543
     73          1           0       -2.167021   -1.660148   -0.140990
     74          1           0       -2.247584    0.001954   -0.565744
     75          1           0       -0.283654    0.199792    1.191469
     76          1           0       -0.259454   -1.489979    1.278647
     77          1           0       -4.302210    5.526186    1.468914
     78          1           0       -5.599768    6.799497    1.645264
     79          1           0       -5.127363    5.749155    2.998210
     80          1           0       -7.789280    7.002832    1.185226
     81          1           0       -9.580136    5.911317   -1.157280
     82          1           0       -9.677105    7.604296   -0.349088
     83          1           0      -12.334831    3.673487   -0.397336
     84          1           0      -12.245061    3.353902   -2.256800
     85          1           0      -13.190681    2.090127   -1.356843
     86          1           0      -12.714108   -1.405334   -1.462358
     87          1           0      -13.307405    0.205900   -1.576893
     88          1           0      -12.563975    0.577861   -3.944131
     89          1           0      -11.534716   -0.927869   -3.885110
     90          1           0      -13.358759   -0.779931   -3.794421
     91          1           0       -9.824472   -4.942309   -0.124894
     92          1           0       -9.920815   -4.148752   -1.818863
     93          1           0       -8.491426   -5.585297   -1.111990
     94          1           0       -3.472970   -3.549713   -0.092151
     95          1           0       -1.906434   -6.328519    2.373280
     96          1           0       -1.700081   -4.583397    3.068489
     97          1           0       -3.329561   -5.633238    3.372314
     98          1           0        2.823165   -1.854555   -1.689374
     99          1           0        2.250603   -0.183191   -1.930389
    100          1           0        4.235146   -0.968233    0.254724
    101          1           0        5.032739    2.093805   -1.995291
    102          1           0        5.385009    0.751336   -3.088249
    103          1           0        3.658872    1.236620   -2.671794
    104          1           0        6.265592    1.473842   -0.184971
    105          1           0        6.319158   -0.094783    0.775490
    106          1           0        7.400712   -1.260138   -1.204514
    107          1           0        7.478502    0.253965   -2.106748
    108          1           0        8.872248    1.144061   -0.127822
    109          1           0        8.600793   -0.250173    0.713337
    110          1           0       10.107485   -0.097569   -1.789527
    111          1           0        9.026939   -2.171799   -1.765569
    112          1           0       10.546844   -2.819113   -1.491465
    113          1           0        9.603722   -2.644096    0.054476
    114          1           0       11.127450    0.855383    0.463594
    115          1           0       11.323310   -0.907750    1.138892
    116          1           0       12.694997   -1.615898   -0.717633
    117          1           0       12.673924   -0.057832   -1.613579
    118          1           0       13.486983    1.217789    0.280282
    119          1           0       13.804353   -0.346902    1.015196
    120          1           0       15.330106    0.157042   -1.418488
    121          1           0       15.016695   -2.307579   -1.059788
    122          1           0       16.570426   -2.012152   -0.364937
    123          1           0       15.237158   -2.101550    0.671717
    124          1           0       15.845525    1.545408    0.313598
    125          1           0       16.334189   -0.003843    1.482007
    126          1           0       18.131627   -0.343547   -0.158083
    127          1           0       17.535588    0.915237   -1.309692
    128          1           0       18.112108    2.644309    0.619076
    129          1           0       18.501736    1.288151    1.539650
    130          1           0       20.390210    0.486443    0.289994
    131          1           0       19.838862    2.775674   -1.668133
    132          1           0       21.305386    1.700229   -1.810716
    133          1           0       19.668948    1.125908   -2.053623
    134          1           0       20.659169    2.389575    2.134653
    135          1           0       22.099100    2.209085    0.908424
    136          1           0       20.721281    3.645954    0.417067
    137          1           0       -7.229713    1.639517    0.555508
    138          1           0       -7.435103   -0.285312   -0.092068
 ---------------------------------------------------------------------

 SCF Done:  E(RB3LYP) =  -2733.03975444     A.U. after   16 cycles

 Excitation energies and oscillator strengths:

 Excited State   1:      Singlet-A      2.0856 eV  594.46 nm  f=0.1232  <S**2>=0.000
     235 -> 237       -0.41564
     235 -> 238        0.21255
     236 -> 237        0.45199
     236 -> 238        0.26187
 This state for optimization and/or second-order correction.
 Total Energy, E(TD-HF/TD-DFT) =  -2732.96310824
 Copying the excited state density for this state as the 1-particle RhoCI density.

 The electronic state is 1-A.
 Alpha  occ. eigenvalues --  -19.17544 -19.16147 -19.11794 -19.11764 -19.11750
 Alpha  occ. eigenvalues --  -14.37404 -14.36915 -14.32423 -14.29770 -10.30552
 Alpha  occ. eigenvalues --  -10.30370 -10.27778 -10.25014 -10.24874 -10.24048
 Alpha  occ. eigenvalues --  -10.23992 -10.23807 -10.23301 -10.22914 -10.22668
 Alpha  occ. eigenvalues --  -10.22418 -10.22387 -10.21820 -10.21778 -10.21713
 Alpha  occ. eigenvalues --  -10.21585 -10.21511 -10.21463 -10.21337 -10.21161
 Alpha  occ. eigenvalues --  -10.20966 -10.20948 -10.20721 -10.20427 -10.20271
 Alpha  occ. eigenvalues --  -10.20229 -10.20136 -10.20129 -10.20064 -10.19949
 Alpha  occ. eigenvalues --  -10.19948 -10.19887 -10.19763 -10.19687 -10.19613
 Alpha  occ. eigenvalues --  -10.19257 -10.19233 -10.19209 -10.19132 -10.19124
 Alpha  occ. eigenvalues --  -10.19077 -10.19004 -10.18821 -10.18743 -10.18590
 Alpha  occ. eigenvalues --  -10.18296 -10.18194 -10.17881 -10.17806 -10.17462
 Alpha  occ. eigenvalues --  -10.17371 -10.17276 -10.17241 -10.17092  -1.10458
 Alpha  occ. eigenvalues --   -1.09778  -1.02776  -1.01383  -1.00935  -0.98964
 Alpha  occ. eigenvalues --   -0.98797  -0.95090  -0.92988  -0.84308  -0.83262
 Alpha  occ. eigenvalues --   -0.82817  -0.82224  -0.81702  -0.81056  -0.80912
 Alpha  occ. eigenvalues --   -0.80270  -0.79888  -0.78831  -0.78610  -0.77684
 Alpha  occ. eigenvalues --   -0.76593  -0.76007  -0.75664  -0.75219  -0.74681
 Alpha  occ. eigenvalues --   -0.73726  -0.73258  -0.72933  -0.71764  -0.70644
 Alpha  occ. eigenvalues --   -0.69907  -0.69051  -0.68323  -0.68101  -0.67709
 Alpha  occ. eigenvalues --   -0.67216  -0.67117  -0.66372  -0.66054  -0.65406
 Alpha  occ. eigenvalues --   -0.64081  -0.62898  -0.62592  -0.62267  -0.61502
 Alpha  occ. eigenvalues --   -0.61143  -0.59152  -0.58244  -0.57906  -0.57790
 Alpha  occ. eigenvalues --   -0.57519  -0.56254  -0.56107  -0.56041  -0.55193
 Alpha  occ. eigenvalues --   -0.55050  -0.54065  -0.53966  -0.53746  -0.53167
 Alpha  occ. eigenvalues --   -0.52707  -0.52085  -0.51594  -0.50801  -0.50102
 Alpha  occ. eigenvalues --   -0.49611  -0.49385  -0.49000  -0.48804  -0.48454
 Alpha  occ. eigenvalues --   -0.48138  -0.47792  -0.47388  -0.47269  -0.47189
 Alpha  occ. eigenvalues --   -0.46672  -0.46563  -0.46512  -0.46084  -0.45831
 Alpha  occ. eigenvalues --   -0.45719  -0.45359  -0.45201  -0.44990  -0.44952
 Alpha  occ. eigenvalues --   -0.44551  -0.44494  -0.44393  -0.44221  -0.43939
 Alpha  occ. eigenvalues --   -0.43452  -0.43112  -0.42899  -0.42825  -0.42670
 Alpha  occ. eigenvalues --   -0.42508  -0.42369  -0.42073  -0.42017  -0.41945
 Alpha  occ. eigenvalues --   -0.41666  -0.41425  -0.40958  -0.40826  -0.40315
 Alpha  occ. eigenvalues --   -0.40122  -0.39905  -0.39779  -0.39639  -0.39414
 Alpha  occ. eigenvalues --   -0.39299  -0.39065  -0.38811  -0.38579  -0.38517
 Alpha  occ. eigenvalues --   -0.38314  -0.38204  -0.38139  -0.37826  -0.37586
 Alpha  occ. eigenvalues --   -0.37344  -0.37327  -0.37146  -0.36910  -0.36703
 Alpha  occ. eigenvalues --   -0.36680  -0.36162  -0.36110  -0.35775  -0.35713
 Alpha  occ. eigenvalues --   -0.35542  -0.35185  -0.35146  -0.35018  -0.34570
 Alpha  occ. eigenvalues --   -0.34540  -0.34381  -0.34373  -0.33994  -0.33979
 Alpha  occ. eigenvalues --   -0.33803  -0.33510  -0.33233  -0.32953  -0.32919
 Alpha  occ. eigenvalues --   -0.32445  -0.32286  -0.32192  -0.32183  -0.31491
 Alpha  occ. eigenvalues --   -0.31307  -0.31119  -0.30958  -0.30779  -0.29666
 Alpha  occ. eigenvalues --   -0.29481  -0.28685  -0.28314  -0.27959  -0.27479
 Alpha  occ. eigenvalues --   -0.26981  -0.26917  -0.26433  -0.26013  -0.25541
 Alpha  occ. eigenvalues --   -0.25455  -0.24631  -0.24009  -0.22056  -0.20037
 Alpha  occ. eigenvalues --   -0.19520
 Alpha virt. eigenvalues --   -0.10894  -0.08180  -0.04603  -0.02089  -0.00236
 Alpha virt. eigenvalues --    0.01644   0.01842   0.02115   0.02579   0.03074
 Alpha virt. eigenvalues --    0.03815   0.03853   0.04193   0.04295   0.04384

 Mulliken charges:
               1
     1  C    0.116247
     2  C   -0.069733
     3  C   -0.101177
     4  C   -0.113509
     5  N   -0.150839
     6  C   -0.099375
     7  C   -0.021973
     8  C   -0.018037
     9  C    0.023355
    10  C   -0.016285
    11  C    0.082284
    12  C    0.100034
    13  C    0.125401
    14  O   -0.205464
    15  O   -0.321424
    16  N   -0.063508
    17  C    0.114393
    18  C   -0.141703
    19  C    0.044947
    20  C    0.132411
    21  C    0.069207
    22  C   -0.063239
    23  C   -0.027814
    24  N   -0.245323
    25  C    0.020009
    26  C   -0.168761
    27  C   -0.086613
    28  C    0.060714
    29  C    0.050182
    30  C    0.006520
    31  C    0.120981
    32  N   -0.027905
    33  C    0.112303
    34  C   -0.100557
    35  C   -0.046357
    36  C    0.007228
    37  C   -0.034370
    38  C    0.083848
    39  O   -0.157927
    40  C   -0.084969
    41  C    0.155268
    42  O   -0.198322
    43  O   -0.319262
    44  C    0.159195
    45  C    0.345687
    46  C   -0.091398
    47  C   -0.151746
    48  C    0.071354
    49  C    0.043448
    50  C   -0.017210
    51  C    0.166650
    52  C   -0.050777
    53  C   -0.020366
    54  C   -0.002581
    55  C    0.009601
    56  C    0.125729
    57  C   -0.021943
    58  C    0.072341
    59  C   -0.044984
    60  C    0.131292
    61  C   -0.014296
    62  C   -0.078981
    63  C    0.069430
    64  C   -0.101508
    65  H   -0.026184
    66  H   -0.018379
    67  H    0.036532
    68  H    0.019595
    69  H   -0.002140
    70  H    0.017752
    71  H    0.023349
    72  H    0.040118
    73  H   -0.044735
    74  H    0.017885
    75  H    0.009283
    76  H   -0.001387
    77  H    0.031345
    78  H    0.007548
    79  H    0.035642
    80  H    0.031759
    81  H    0.009010
    82  H    0.042645
    83  H    0.052124
    84  H    0.026653
    85  H    0.030937
    86  H    0.012141
    87  H   -0.025209
    88  H   -0.011762
    89  H    0.032906
    90  H   -0.033498
    91  H    0.049153
    92  H    0.049307
    93  H    0.069044
    94  H    0.055211
    95  H    0.044181
    96  H    0.037239
    97  H    0.048970
    98  H    0.058531
    99  H   -0.019788
   100  H   -0.038910
   101  H    0.008359
   102  H    0.013853
   103  H    0.019410
   104  H    0.007331
   105  H    0.008826
   106  H   -0.002296
   107  H    0.003917
   108  H    0.000291
   109  H   -0.113067
   110  H    0.004953
   111  H    0.010481
   112  H    0.029580
   113  H    0.022609
   114  H    0.000914
   115  H    0.004682
   116  H   -0.008353
   117  H   -0.006629
   118  H   -0.004291
   119  H   -0.113302
   120  H   -0.021433
   121  H   -0.003730
   122  H   -0.000059
   123  H   -0.008519
   124  H   -0.024172
   125  H   -0.020497
   126  H   -0.018861
   127  H   -0.002059
   128  H   -0.004281
   129  H   -0.029086
   130  H   -0.003113
   131  H   -0.005045
   132  H    0.017612
   133  H   -0.003535
   134  H    0.038296
   135  H    0.026393
   136  H    0.033697
   137  H    0.174970
   138  H    0.159467
 Sum of Mulliken charges =  -0.00000

 Dipole moment (field-independent basis, Debye):
    X=              2.0636    Y=              4.1217    Z=              0.4567  Tot=              4.6320
 Quadrupole moment (field-independent basis, Debye-Ang):
   XX=           -356.8797   YY=           -385.0068   ZZ=           -397.0224
   XY=            -40.6662   XZ=              2.9545   YZ=             -0.5700

 Normal termination of Gaussian 16 at Thu Aug 15 11:51:42 2019.
