 Gaussian 16, Revision A.03,
 Gaussian 16:  ES64L-G16RevA.03 25-Dec-2016

 --------------------------
 # td=(NStates=1) B3LYP/SVP
 --------------------------

 --
 TD
 --
 Symbolic Z-matrix:
 Charge =  0 Multiplicity = 1

                         Standard orientation:
 ---------------------------------------------------------------------
 Center     Atomic      Atomic             Coordinates (Angstroms)
 Number     Number       Type             X           Y           Z
 ---------------------------------------------------------------------
      1          6           0       -5.054169   -1.927053    0.475357
      2          6           0       -4.721290    2.761584    1.550788
      3          6           0       -9.257012    3.342349   -0.284634
      4          6           0       -9.733491   -1.394436   -0.999274
      5          7           0       -5.244284    0.333401    0.999966
      6          6           0       -4.554280   -0.776052    1.002569
      7          6           0       -3.055093   -0.643413    1.383180
      8          6           0       -3.145752    0.838930    2.020892
      9          6           0       -4.411953    1.440373    1.415840
     10          6           0       -3.016011    0.884210    3.563613
     11          6           0       -2.139065   -0.653826    0.206515
     12          6           0       -0.622927   -0.629132    0.559473
     13          6           0        0.354335   -0.905158   -0.647381
     14          8           0       -0.011123   -1.330395   -1.720614
     15          8           0        1.667028   -0.741918   -0.334575
     16          7           0       -7.019804    2.674314    0.608764
     17          6           0       -5.857582    3.356528    1.065523
     18          6           0       -6.161323    4.764418    1.040150
     19          6           0       -7.383854    4.988628    0.461116
     20          6           0       -7.982163    3.706049    0.258741
     21          6           0       -5.155575    5.719868    1.523039
     22          6           0       -8.056343    6.316282    0.270353
     23          6           0       -8.841030    6.647475   -0.703469
     24          7           0       -9.203291    0.867596   -0.471617
     25          6           0       -9.818537    2.127459   -0.542705
     26          6           0      -11.200193    1.947779   -0.999388
     27          6           0      -11.361071    0.691737   -1.232499
     28          6           0      -10.145929    0.074574   -0.907836
     29          6           0      -12.284702    2.982593   -1.120156
     30          6           0      -12.522143   -0.200017   -1.766209
     31          6           0      -12.468742   -0.432590   -3.272909
     32          7           0       -7.449426   -1.211514   -0.254112
     33          6           0       -8.526248   -1.954888   -0.619006
     34          6           0       -8.132546   -3.304361   -0.691465
     35          6           0       -6.875210   -3.363956   -0.244235
     36          6           0       -6.393869   -2.022469   -0.012770
     37          6           0       -9.126928   -4.470096   -0.994291
     38          6           0       -5.799894   -4.276395   -0.051173
     39          8           0       -5.663179   -5.526352   -0.118553
     40          6           0       -4.474543   -3.258759    0.415100
     41          6           0       -3.973528   -3.884605    1.781075
     42          8           0       -4.459929   -3.534203    2.810424
     43          8           0       -3.026175   -4.816495    1.556926
     44          6           0       -2.614971   -5.501939    2.716056
     45          6           0        2.656437   -1.063248   -1.265813
     46          6           0        3.920739   -0.846104   -0.589545
     47          6           0        5.047955   -0.059166   -1.077127
     48          6           0        4.872281    0.574486   -2.407265
     49          6           0        6.276726    0.016780   -0.239823
     50          6           0        7.561593   -0.522090   -0.951691
     51          6           0        8.782584   -0.406731   -0.121452
     52          6           0       10.098481   -0.851254   -0.892946
     53          6           0       10.000173   -2.356459   -1.179403
     54          6           0       11.297962   -0.397717   -0.000564
     55          6           0       12.630814   -0.647863   -0.631411
     56          6           0       13.873578   -0.123053    0.212092
     57          6           0       15.256892   -0.329658   -0.361415
     58          6           0       15.706310   -1.705757   -0.475368
     59          6           0       16.169521    0.638555    0.345195
     60          6           0       17.663976    0.691193   -0.111606
     61          6           0       18.532488    1.718114    0.583257
     62          6           0       20.004271    1.843838    0.142694
     63          6           0       20.008278    2.590181   -1.200631
     64          6           0       20.791486    2.509472    1.203207
     65          1           0       -4.061465    3.505853    1.969519
     66          1           0       -9.994258    4.187153   -0.351012
     67          1           0      -10.460609   -2.120170   -1.339275
     68          1           0       -2.974227   -1.351660    2.232615
     69          1           0       -2.518748    1.610209    1.688791
     70          1           0       -2.088885    0.573431    3.880268
     71          1           0       -3.150987    1.950457    4.032433
     72          1           0       -3.861323    0.215163    4.010846
     73          1           0       -2.392383   -1.584024   -0.124324
     74          1           0       -2.315033    0.155739   -0.455591
     75          1           0       -0.210033    0.335299    0.930991
     76          1           0       -0.458661   -1.376848    1.234747
     77          1           0       -4.375826    6.186990    0.246305
     78          1           0       -5.844517    6.546573    1.896779
     79          1           0       -4.204893    5.121022    2.257446
     80          1           0       -7.603663    7.207593    0.757946
     81          1           0       -9.284544    5.884182   -1.202947
     82          1           0       -9.358867    7.744063   -0.742318
     83          1           0      -12.355443    3.863651   -0.273125
     84          1           0      -12.031040    3.730636   -1.872445
     85          1           0      -13.287314    2.493903   -1.277895
     86          1           0      -12.640089   -1.239382   -1.189831
     87          1           0      -13.514364    0.219259   -1.493053
     88          1           0      -12.712248    0.530230   -3.756207
     89          1           0      -11.641976   -1.060385   -3.535481
     90          1           0      -13.121952   -1.197473   -3.760977
     91          1           0      -10.101928   -4.534844   -0.390911
     92          1           0       -9.495500   -4.519913   -2.023190
     93          1           0       -8.592318   -5.501775   -0.700696
     94          1           0       -3.584920   -3.297186   -0.424083
     95          1           0       -1.652369   -5.847096    2.350090
     96          1           0       -2.514878   -4.665060    3.573423
     97          1           0       -3.292745   -6.450798    3.086176
     98          1           0        2.580782   -2.208435   -1.622065
     99          1           0        2.425183   -0.399936   -2.346467
    100          1           0        4.078619   -1.328163    0.417552
    101          1           0        5.254482    1.712436   -2.403452
    102          1           0        5.535964    0.046519   -3.172800
    103          1           0        3.823284    0.563236   -2.669999
    104          1           0        6.413931    1.068363    0.081735
    105          1           0        6.100528   -0.501932    0.704957
    106          1           0        7.231353   -1.379145   -1.235708
    107          1           0        7.717583    0.029290   -1.832955
    108          1           0        8.778047    0.691484    0.062034
    109          1           0        8.655637   -0.991792    0.742350
    110          1           0       10.120201   -0.340771   -1.900446
    111          1           0        9.146927   -2.601212   -1.796525
    112          1           0       10.928544   -2.749830   -1.655669
    113          1           0       10.045219   -3.150715   -0.349287
    114          1           0       11.133596    0.517985    0.206497
    115          1           0       11.303278   -1.007356    0.972262
    116          1           0       13.106454   -1.732855   -1.061343
    117          1           0       12.698424   -0.140344   -1.574068
    118          1           0       13.823650    0.934052    0.377526
    119          1           0       13.675436   -0.395643    1.196241
    120          1           0       15.245017    0.093913   -1.388659
    121          1           0       14.990745   -2.193270   -1.187678
    122          1           0       16.541622   -1.845233   -0.864862
    123          1           0       15.650885   -2.342510    0.507570
    124          1           0       15.821490    1.800754   -0.003488
    125          1           0       16.190843    0.303172    1.534889
    126          1           0       18.046313   -0.394078    0.064704
    127          1           0       17.669695    0.689746   -1.345643
    128          1           0       18.114228    2.959515    0.573261
    129          1           0       18.225611    1.323370    1.698499
    130          1           0       20.316380    0.743357    0.087525
    131          1           0       19.853238    3.578315   -1.291243
    132          1           0       21.117471    2.450361   -1.685541
    133          1           0       19.311102    2.217773   -1.917270
    134          1           0       20.904583    2.099373    2.410565
    135          1           0       21.878044    3.135175    0.933438
    136          1           0       20.260227    3.377132    1.480972
    137          1           0       -7.087484    1.699655    0.687910
    138          1           0       -7.397942   -0.289487   -0.002392
 ---------------------------------------------------------------------

 SCF Done:  E(RB3LYP) =  -2732.93386664     A.U. after   17 cycles

 Excitation energies and oscillator strengths:

 Excited State   1:      Singlet-A      1.9828 eV  625.31 nm  f=0.1705  <S**2>=0.000
     235 -> 237       -0.13729
     235 -> 238       -0.26573
     236 -> 237        0.62960
     236 -> 238       -0.10042
 This state for optimization and/or second-order correction.
 Total Energy, E(TD-HF/TD-DFT) =  -2732.86100164
 Copying the excited state density for this state as the 1-particle RhoCI density.

 The electronic state is 1-A.
 Alpha  occ. eigenvalues --  -19.18579 -19.17868 -19.13211 -19.13052 -19.12373
 Alpha  occ. eigenvalues --  -14.36951 -14.36741 -14.32435 -14.29879 -10.31771
 Alpha  occ. eigenvalues --  -10.31667 -10.29020 -10.26633 -10.25896 -10.25028
 Alpha  occ. eigenvalues --  -10.24407 -10.23984 -10.23589 -10.23347 -10.23024
 Alpha  occ. eigenvalues --  -10.22581 -10.22149 -10.22043 -10.21580 -10.21472
 Alpha  occ. eigenvalues --  -10.21163 -10.21080 -10.21055 -10.20880 -10.20811
 Alpha  occ. eigenvalues --  -10.20783 -10.20752 -10.20713 -10.20693 -10.20621
 Alpha  occ. eigenvalues --  -10.20547 -10.20505 -10.20462 -10.20228 -10.20063
 Alpha  occ. eigenvalues --  -10.19916 -10.19834 -10.19810 -10.19668 -10.19537
 Alpha  occ. eigenvalues --  -10.19436 -10.19384 -10.19349 -10.19270 -10.19264
 Alpha  occ. eigenvalues --  -10.18975 -10.18898 -10.18842 -10.18710 -10.18451
 Alpha  occ. eigenvalues --  -10.18412 -10.18184 -10.18025 -10.17830 -10.17789
 Alpha  occ. eigenvalues --  -10.17751 -10.16836 -10.16730 -10.16453  -1.10441
 Alpha  occ. eigenvalues --   -1.09729  -1.02521  -1.00905  -1.00839  -1.00084
 Alpha  occ. eigenvalues --   -0.95969  -0.95109  -0.93701  -0.84815  -0.82856
 Alpha  occ. eigenvalues --   -0.82590  -0.82406  -0.82321  -0.81444  -0.80931
 Alpha  occ. eigenvalues --   -0.80886  -0.80352  -0.80227  -0.79208  -0.77804
 Alpha  occ. eigenvalues --   -0.77540  -0.76455  -0.75771  -0.75245  -0.74582
 Alpha  occ. eigenvalues --   -0.73938  -0.73175  -0.72715  -0.72145  -0.70626
 Alpha  occ. eigenvalues --   -0.70246  -0.69212  -0.69019  -0.68506  -0.68105
 Alpha  occ. eigenvalues --   -0.68048  -0.67462  -0.66392  -0.66226  -0.64767
 Alpha  occ. eigenvalues --   -0.64435  -0.63034  -0.62892  -0.61971  -0.61411
 Alpha  occ. eigenvalues --   -0.60817  -0.59780  -0.59471  -0.57919  -0.57615
 Alpha  occ. eigenvalues --   -0.57585  -0.56678  -0.56453  -0.55302  -0.55229
 Alpha  occ. eigenvalues --   -0.55043  -0.54647  -0.53921  -0.53599  -0.53168
 Alpha  occ. eigenvalues --   -0.52601  -0.52224  -0.51586  -0.50704  -0.50533
 Alpha  occ. eigenvalues --   -0.49568  -0.49525  -0.49358  -0.48784  -0.48434
 Alpha  occ. eigenvalues --   -0.48274  -0.47866  -0.47729  -0.47675  -0.46994
 Alpha  occ. eigenvalues --   -0.46608  -0.46519  -0.46417  -0.46324  -0.45994
 Alpha  occ. eigenvalues --   -0.45824  -0.45717  -0.45387  -0.45166  -0.45108
 Alpha  occ. eigenvalues --   -0.44971  -0.44590  -0.44176  -0.44080  -0.43881
 Alpha  occ. eigenvalues --   -0.43668  -0.43153  -0.43098  -0.42963  -0.42596
 Alpha  occ. eigenvalues --   -0.42400  -0.41967  -0.41778  -0.41665  -0.41293
 Alpha  occ. eigenvalues --   -0.41122  -0.41011  -0.40703  -0.40583  -0.40432
 Alpha  occ. eigenvalues --   -0.40104  -0.39983  -0.39593  -0.39384  -0.39284
 Alpha  occ. eigenvalues --   -0.39176  -0.38907  -0.38387  -0.38332  -0.38120
 Alpha  occ. eigenvalues --   -0.38006  -0.37918  -0.37690  -0.37499  -0.37266
 Alpha  occ. eigenvalues --   -0.37213  -0.37099  -0.36925  -0.36748  -0.36653
 Alpha  occ. eigenvalues --   -0.36525  -0.36468  -0.36325  -0.36121  -0.35840
 Alpha  occ. eigenvalues --   -0.35796  -0.35474  -0.35298  -0.34868  -0.34811
 Alpha  occ. eigenvalues --   -0.34773  -0.34609  -0.34450  -0.34409  -0.33906
 Alpha  occ. eigenvalues --   -0.33779  -0.33485  -0.33291  -0.32944  -0.32643
 Alpha  occ. eigenvalues --   -0.32521  -0.31990  -0.31580  -0.31519  -0.31003
 Alpha  occ. eigenvalues --   -0.30931  -0.30767  -0.30718  -0.30265  -0.29907
 Alpha  occ. eigenvalues --   -0.29806  -0.29573  -0.28752  -0.28411  -0.28140
 Alpha  occ. eigenvalues --   -0.27843  -0.27604  -0.27415  -0.27158  -0.26097
 Alpha  occ. eigenvalues --   -0.25010  -0.24369  -0.24088  -0.22806  -0.20099
 Alpha  occ. eigenvalues --   -0.19041
 Alpha virt. eigenvalues --   -0.10772  -0.08141  -0.05061  -0.02628  -0.01315
 Alpha virt. eigenvalues --   -0.00614   0.00190   0.00329   0.00611   0.02444
 Alpha virt. eigenvalues --    0.02812   0.03302   0.03883   0.04266   0.04472

 Mulliken charges:
               1
     1  C    0.076137
     2  C   -0.056680
     3  C   -0.099491
     4  C   -0.042480
     5  N   -0.204974
     6  C   -0.113873
     7  C   -0.051384
     8  C   -0.020970
     9  C    0.050265
    10  C    0.054190
    11  C    0.218590
    12  C    0.068487
    13  C    0.155170
    14  O   -0.227932
    15  O   -0.290087
    16  N   -0.118642
    17  C    0.105947
    18  C   -0.069553
    19  C    0.055428
    20  C    0.093289
    21  C   -0.105738
    22  C   -0.019505
    23  C   -0.031355
    24  N   -0.201185
    25  C    0.073542
    26  C   -0.110778
    27  C   -0.039460
    28  C    0.006910
    29  C    0.052666
    30  C    0.012636
    31  C    0.036211
    32  N    0.064433
    33  C    0.078340
    34  C   -0.109450
    35  C    0.062703
    36  C    0.016316
    37  C    0.018633
    38  C    0.086626
    39  O   -0.204415
    40  C   -0.163162
    41  C    0.207317
    42  O   -0.202690
    43  O   -0.273031
    44  C    0.098441
    45  C    0.157758
    46  C   -0.086986
    47  C   -0.188882
    48  C    0.064668
    49  C    0.103863
    50  C    0.079164
    51  C    0.081245
    52  C   -0.099229
    53  C    0.011868
    54  C    0.185804
    55  C   -0.008976
    56  C    0.083635
    57  C   -0.043693
    58  C    0.155062
    59  C   -0.080332
    60  C   -0.035659
    61  C   -0.083213
    62  C    0.003421
    63  C    0.061306
    64  C   -0.024597
    65  H   -0.054456
    66  H   -0.008308
    67  H   -0.037480
    68  H    0.013269
    69  H   -0.032996
    70  H   -0.000995
    71  H    0.013988
    72  H    0.032814
    73  H   -0.040445
    74  H    0.007566
    75  H    0.030313
    76  H   -0.001113
    77  H    0.025502
    78  H    0.062408
    79  H    0.080467
    80  H    0.001481
    81  H   -0.009516
    82  H    0.048998
    83  H    0.024744
    84  H    0.008451
    85  H    0.034418
    86  H    0.016624
    87  H   -0.003806
    88  H    0.028225
    89  H   -0.001880
    90  H   -0.004902
    91  H    0.043042
    92  H    0.031361
    93  H    0.060565
    94  H    0.089525
    95  H    0.034531
    96  H    0.054968
    97  H    0.067799
    98  H    0.045293
    99  H    0.055939
   100  H    0.005777
   101  H    0.021441
   102  H    0.038700
   103  H    0.001111
   104  H   -0.004574
   105  H   -0.019035
   106  H   -0.050130
   107  H   -0.028003
   108  H   -0.009227
   109  H   -0.019353
   110  H   -0.003735
   111  H    0.009468
   112  H   -0.000350
   113  H    0.004377
   114  H   -0.071800
   115  H    0.001438
   116  H    0.011573
   117  H   -0.031959
   118  H   -0.042536
   119  H   -0.044636
   120  H   -0.023337
   121  H   -0.008374
   122  H   -0.068854
   123  H    0.008179
   124  H    0.028920
   125  H    0.018574
   126  H    0.012064
   127  H    0.001825
   128  H    0.012451
   129  H    0.020063
   130  H    0.008057
   131  H   -0.020905
   132  H    0.016869
   133  H   -0.003645
   134  H    0.028824
   135  H    0.019418
   136  H   -0.019214
   137  H    0.119999
   138  H    0.092475
 Sum of Mulliken charges =  -0.00000

 Dipole moment (field-independent basis, Debye):
    X=              0.8896    Y=              3.3587    Z=              0.4751  Tot=              3.5068
 Quadrupole moment (field-independent basis, Debye-Ang):
   XX=           -353.3472   YY=           -386.8419   ZZ=           -396.7655
   XY=            -20.4320   XZ=              4.8446   YZ=             -1.9528

 Normal termination of Gaussian 16 at Tue Aug 20 04:02:02 2019.
