 Gaussian 16, Revision A.03,
 Gaussian 16:  ES64L-G16RevA.03 25-Dec-2016

 --------------------------
 # td=(NStates=1) B3LYP/SVP
 --------------------------

 --
 TD
 --
 Symbolic Z-matrix:
 Charge =  0 Multiplicity = 1

                         Standard orientation:
 ---------------------------------------------------------------------
 Center     Atomic      Atomic             Coordinates (Angstroms)
 Number     Number       Type             X           Y           Z
 ---------------------------------------------------------------------
      1          6           0       -5.130836   -1.895969    0.359668
      2          6           0       -4.673086    2.704798    1.364089
      3          6           0       -9.253497    3.383366   -0.272383
      4          6           0       -9.918058   -1.419190   -0.970973
      5          7           0       -5.222393    0.321685    0.883390
      6          6           0       -4.510461   -0.738467    0.776673
      7          6           0       -3.154012   -0.652647    1.236442
      8          6           0       -3.150539    0.850527    1.826505
      9          6           0       -4.401363    1.423524    1.353210
     10          6           0       -3.020796    0.838160    3.299614
     11          6           0       -2.132853   -0.808283    0.160871
     12          6           0       -0.640292   -0.984629    0.572599
     13          6           0        0.349888   -1.141149   -0.591008
     14          8           0        0.130079   -1.307608   -1.732222
     15          8           0        1.665003   -0.947941   -0.121286
     16          7           0       -6.932145    2.721380    0.502610
     17          6           0       -5.910326    3.487353    1.024159
     18          6           0       -6.103858    4.904065    0.921588
     19          6           0       -7.384511    4.969521    0.394871
     20          6           0       -7.969517    3.727981    0.216111
     21          6           0       -5.090012    5.857533    1.490021
     22          6           0       -7.996191    6.320177    0.339549
     23          6           0       -8.971455    6.745732   -0.491803
     24          7           0       -9.198108    0.938224   -0.489149
     25          6           0       -9.803677    2.128464   -0.524750
     26          6           0      -11.217066    1.868057   -0.960024
     27          6           0      -11.369303    0.619061   -1.170858
     28          6           0      -10.122057   -0.046570   -0.783748
     29          6           0      -12.265032    3.061768   -1.147503
     30          6           0      -12.692915   -0.128265   -1.637887
     31          6           0      -12.613108   -0.558454   -3.091158
     32          7           0       -7.512162   -1.237554   -0.356449
     33          6           0       -8.652230   -2.144745   -0.547907
     34          6           0       -8.216266   -3.463311   -0.617442
     35          6           0       -6.823300   -3.388014   -0.395165
     36          6           0       -6.470807   -2.062660   -0.045479
     37          6           0       -9.117940   -4.675416   -0.950872
     38          6           0       -5.776430   -4.245121   -0.055105
     39          8           0       -5.663117   -5.449996   -0.192945
     40          6           0       -4.556662   -3.281838    0.459741
     41          6           0       -4.065528   -3.678753    1.780116
     42          8           0       -4.604895   -3.273598    2.866922
     43          8           0       -3.146783   -4.668692    1.759350
     44          6           0       -2.667934   -5.200558    2.941977
     45          6           0        2.783304   -1.069680   -1.168050
     46          6           0        4.040610   -0.706831   -0.467889
     47          6           0        4.952086   -0.039630   -1.083242
     48          6           0        4.903593    0.727265   -2.339130
     49          6           0        6.361313    0.097830   -0.391161
     50          6           0        7.492468   -0.560411   -1.050417
     51          6           0        8.876659   -0.365783   -0.265051
     52          6           0       10.159641   -0.852441   -0.928363
     53          6           0       10.075293   -2.393666   -1.015498
     54          6           0       11.308355   -0.232400   -0.158566
     55          6           0       12.714351   -0.573148   -0.736183
     56          6           0       13.812596   -0.164769    0.224802
     57          6           0       15.277620   -0.235296   -0.489062
     58          6           0       15.743260   -1.643383   -0.617768
     59          6           0       16.206872    0.563273    0.451580
     60          6           0       17.689572    0.588089   -0.094082
     61          6           0       18.517747    1.530611    0.765328
     62          6           0       20.038703    1.754844    0.180993
     63          6           0       20.004147    2.608137   -1.126504
     64          6           0       20.900096    2.473250    1.251332
     65          1           0       -3.815489    3.346991    1.607592
     66          1           0      -10.169162    4.143413   -0.194111
     67          1           0      -10.739772   -2.090705   -1.146560
     68          1           0       -2.883695   -1.292673    2.085057
     69          1           0       -2.178887    1.282155    1.472112
     70          1           0       -1.953652    0.594703    3.501734
     71          1           0       -3.372146    1.837629    3.841955
     72          1           0       -3.626790    0.136950    3.972444
     73          1           0       -2.463621   -1.642009   -0.411674
     74          1           0       -2.119058    0.046888   -0.676419
     75          1           0       -0.289621   -0.141765    0.989961
     76          1           0       -0.494915   -1.822525    1.375561
     77          1           0       -4.228059    6.153491    0.595497
     78          1           0       -5.515683    6.893043    1.832064
     79          1           0       -4.602963    5.439979    2.430540
     80          1           0       -7.308473    7.100495    0.851367
     81          1           0       -9.535832    5.809439   -1.141692
     82          1           0       -9.335518    7.712187   -0.505828
     83          1           0      -12.189913    3.741025   -0.221272
     84          1           0      -11.846217    3.598887   -2.239975
     85          1           0      -13.273148    2.519113   -1.270126
     86          1           0      -13.139440   -0.910262   -0.832825
     87          1           0      -13.461614    0.537425   -1.498422
     88          1           0      -12.188328    0.284620   -3.746935
     89          1           0      -12.128160   -1.466496   -3.246177
     90          1           0      -13.681982   -0.840184   -3.653808
     91          1           0       -9.815100   -4.825583   -0.126335
     92          1           0       -9.581267   -4.510314   -1.968339
     93          1           0       -8.656939   -5.774810   -0.994541
     94          1           0       -3.749555   -3.661980   -0.291740
     95          1           0       -1.840317   -5.727469    2.601329
     96          1           0       -2.356452   -4.360452    3.538349
     97          1           0       -3.552149   -5.723390    3.757661
     98          1           0        2.872363   -2.111530   -1.527568
     99          1           0        2.511784   -0.527896   -2.059121
    100          1           0        4.098160   -1.230686    0.401407
    101          1           0        5.324945    1.751515   -2.339907
    102          1           0        5.620960    0.272630   -3.017868
    103          1           0        3.920339    0.768156   -2.715439
    104          1           0        6.582855    1.164430   -0.346582
    105          1           0        6.195146   -0.346184    0.428654
    106          1           0        7.262298   -1.644260   -1.213687
    107          1           0        7.641776   -0.164216   -2.068623
    108          1           0        9.097409    0.742854   -0.007373
    109          1           0        8.726190   -0.593080    0.716641
    110          1           0       10.278830   -0.411576   -1.927594
    111          1           0        8.990478   -2.694231   -1.390673
    112          1           0       11.077048   -2.890855   -1.375234
    113          1           0       10.047616   -2.730155    0.065327
    114          1           0       11.535142    0.752152   -0.340741
    115          1           0       11.195631   -0.703893    0.800095
    116          1           0       12.694960   -1.656044   -0.892001
    117          1           0       12.857869    0.006409   -1.528196
    118          1           0       13.619914    0.874235    0.639831
    119          1           0       13.819871   -1.082298    1.056457
    120          1           0       15.370492    0.294368   -1.356349
    121          1           0       15.100537   -2.434426   -1.215413
    122          1           0       16.726698   -1.582758   -1.054894
    123          1           0       15.840283   -2.167285    0.451441
    124          1           0       15.761353    1.563079    0.594266
    125          1           0       16.218470    0.214644    1.386801
    126          1           0       18.324727   -0.223738   -0.223368
    127          1           0       17.577075    0.931429   -1.194550
    128          1           0       18.050656    2.582578    0.933989
    129          1           0       18.693924    1.070375    1.794914
    130          1           0       20.577835    0.735196   -0.161244
    131          1           0       19.765849    3.690093   -1.021671
    132          1           0       21.034647    2.626755   -1.604099
    133          1           0       19.216446    2.172449   -1.926897
    134          1           0       21.134724    1.692056    2.092025
    135          1           0       21.904409    2.677934    1.062421
    136          1           0       20.326358    3.431032    1.626360
    137          1           0       -6.985361    1.692723    0.636635
    138          1           0       -7.702981   -0.214710   -0.126833
 ---------------------------------------------------------------------

 SCF Done:  E(RB3LYP) =  -2733.04541201     A.U. after   18 cycles

 Excitation energies and oscillator strengths:

 Excited State   1:      Singlet-A      1.9161 eV  647.05 nm  f=0.3253  <S**2>=0.000
     235 -> 238        0.18573
     236 -> 237        0.68199
     236 <- 237       -0.12304
 This state for optimization and/or second-order correction.
 Total Energy, E(TD-HF/TD-DFT) =  -2732.97499519
 Copying the excited state density for this state as the 1-particle RhoCI density.

 The electronic state is 1-A.
 Alpha  occ. eigenvalues --  -19.18212 -19.15890 -19.12841 -19.11730 -19.11255
 Alpha  occ. eigenvalues --  -14.37487 -14.36230 -14.32048 -14.30747 -10.31252
 Alpha  occ. eigenvalues --  -10.31241 -10.27201 -10.24871 -10.24623 -10.24590
 Alpha  occ. eigenvalues --  -10.24172 -10.24160 -10.23366 -10.23306 -10.22390
 Alpha  occ. eigenvalues --  -10.22181 -10.22153 -10.22121 -10.22103 -10.21922
 Alpha  occ. eigenvalues --  -10.21706 -10.21418 -10.21226 -10.21144 -10.21084
 Alpha  occ. eigenvalues --  -10.21060 -10.20992 -10.20722 -10.20694 -10.20614
 Alpha  occ. eigenvalues --  -10.20310 -10.20054 -10.19817 -10.19777 -10.19643
 Alpha  occ. eigenvalues --  -10.19638 -10.19619 -10.19592 -10.19556 -10.19482
 Alpha  occ. eigenvalues --  -10.19416 -10.19200 -10.18821 -10.18771 -10.18694
 Alpha  occ. eigenvalues --  -10.18665 -10.18660 -10.18579 -10.18572 -10.18493
 Alpha  occ. eigenvalues --  -10.18214 -10.18148 -10.18098 -10.17859 -10.17431
 Alpha  occ. eigenvalues --  -10.17264 -10.16735 -10.16705 -10.16511  -1.09346
 Alpha  occ. eigenvalues --   -1.08009  -1.02010  -0.98905  -0.97493  -0.97012
 Alpha  occ. eigenvalues --   -0.96521  -0.95185  -0.94274  -0.84615  -0.83556
 Alpha  occ. eigenvalues --   -0.82667  -0.82333  -0.81587  -0.81084  -0.80915
 Alpha  occ. eigenvalues --   -0.80019  -0.79668  -0.78938  -0.78554  -0.77661
 Alpha  occ. eigenvalues --   -0.77202  -0.76106  -0.75778  -0.75085  -0.74490
 Alpha  occ. eigenvalues --   -0.73620  -0.73387  -0.72822  -0.72273  -0.71045
 Alpha  occ. eigenvalues --   -0.70884  -0.68778  -0.68416  -0.67867  -0.67191
 Alpha  occ. eigenvalues --   -0.66689  -0.66436  -0.66220  -0.66133  -0.65085
 Alpha  occ. eigenvalues --   -0.63879  -0.62846  -0.62400  -0.61948  -0.61560
 Alpha  occ. eigenvalues --   -0.60622  -0.59142  -0.58765  -0.57872  -0.57453
 Alpha  occ. eigenvalues --   -0.57023  -0.56216  -0.55685  -0.55588  -0.55458
 Alpha  occ. eigenvalues --   -0.55367  -0.54454  -0.54002  -0.53618  -0.53128
 Alpha  occ. eigenvalues --   -0.52617  -0.52142  -0.51535  -0.50801  -0.50463
 Alpha  occ. eigenvalues --   -0.49988  -0.49569  -0.49482  -0.48894  -0.48592
 Alpha  occ. eigenvalues --   -0.48182  -0.47882  -0.47507  -0.47166  -0.46893
 Alpha  occ. eigenvalues --   -0.46866  -0.46649  -0.45799  -0.45635  -0.45262
 Alpha  occ. eigenvalues --   -0.45167  -0.44899  -0.44755  -0.44365  -0.44183
 Alpha  occ. eigenvalues --   -0.44048  -0.43920  -0.43765  -0.43656  -0.43434
 Alpha  occ. eigenvalues --   -0.43215  -0.43015  -0.42672  -0.42550  -0.42518
 Alpha  occ. eigenvalues --   -0.42172  -0.42018  -0.41703  -0.41552  -0.41282
 Alpha  occ. eigenvalues --   -0.41241  -0.41043  -0.40972  -0.40862  -0.40549
 Alpha  occ. eigenvalues --   -0.40308  -0.39856  -0.39738  -0.39678  -0.39407
 Alpha  occ. eigenvalues --   -0.39343  -0.39302  -0.39068  -0.38864  -0.38611
 Alpha  occ. eigenvalues --   -0.38319  -0.38191  -0.37857  -0.37794  -0.37728
 Alpha  occ. eigenvalues --   -0.37399  -0.37382  -0.36998  -0.36850  -0.36607
 Alpha  occ. eigenvalues --   -0.36369  -0.36311  -0.35996  -0.35846  -0.35757
 Alpha  occ. eigenvalues --   -0.35637  -0.35408  -0.35216  -0.35108  -0.34893
 Alpha  occ. eigenvalues --   -0.34516  -0.34303  -0.34194  -0.34126  -0.33769
 Alpha  occ. eigenvalues --   -0.33516  -0.33375  -0.32941  -0.32425  -0.32253
 Alpha  occ. eigenvalues --   -0.32070  -0.31933  -0.31865  -0.31578  -0.30986
 Alpha  occ. eigenvalues --   -0.30973  -0.30555  -0.30267  -0.30057  -0.29748
 Alpha  occ. eigenvalues --   -0.29102  -0.29055  -0.28015  -0.27793  -0.27414
 Alpha  occ. eigenvalues --   -0.27057  -0.26946  -0.26609  -0.26476  -0.26267
 Alpha  occ. eigenvalues --   -0.25546  -0.24648  -0.24566  -0.24284  -0.20988
 Alpha  occ. eigenvalues --   -0.18835
 Alpha virt. eigenvalues --   -0.11812  -0.07374  -0.03950  -0.02054  -0.01504
 Alpha virt. eigenvalues --   -0.00293   0.00706   0.01439   0.01845   0.03026
 Alpha virt. eigenvalues --    0.03645   0.03688   0.04162   0.04447   0.04904

 Mulliken charges:
               1
     1  C    0.086627
     2  C   -0.069522
     3  C   -0.118957
     4  C   -0.041418
     5  N   -0.178937
     6  C   -0.087689
     7  C   -0.028780
     8  C   -0.017645
     9  C    0.090660
    10  C    0.001745
    11  C    0.027129
    12  C    0.077386
    13  C    0.166761
    14  O   -0.184876
    15  O   -0.400026
    16  N   -0.134091
    17  C    0.045170
    18  C   -0.068834
    19  C    0.002149
    20  C    0.162745
    21  C   -0.018850
    22  C   -0.043009
    23  C   -0.043276
    24  N   -0.227207
    25  C   -0.000087
    26  C   -0.114227
    27  C   -0.105229
    28  C    0.071943
    29  C   -0.002595
    30  C    0.103192
    31  C   -0.021692
    32  N   -0.127721
    33  C    0.055513
    34  C   -0.098611
    35  C   -0.000804
    36  C    0.105298
    37  C    0.039167
    38  C    0.050435
    39  O   -0.172783
    40  C   -0.091191
    41  C    0.210449
    42  O   -0.301480
    43  O   -0.270949
    44  C    0.174423
    45  C    0.254326
    46  C   -0.042097
    47  C   -0.139815
    48  C    0.142252
    49  C    0.192214
    50  C    0.026287
    51  C    0.023330
    52  C   -0.019310
    53  C   -0.006416
    54  C    0.046137
    55  C    0.116212
    56  C   -0.050621
    57  C   -0.022940
    58  C   -0.002390
    59  C    0.098999
    60  C    0.028871
    61  C   -0.007332
    62  C   -0.135305
    63  C   -0.020584
    64  C    0.027493
    65  H   -0.026077
    66  H    0.033676
    67  H   -0.004413
    68  H    0.018668
    69  H   -0.000152
    70  H    0.013278
    71  H    0.016131
    72  H    0.034585
    73  H   -0.001913
    74  H    0.023946
    75  H   -0.013068
    76  H    0.046741
    77  H    0.061057
    78  H    0.040927
    79  H    0.055552
    80  H    0.010872
    81  H    0.059098
    82  H    0.009013
    83  H    0.057015
    84  H    0.063423
    85  H    0.038518
    86  H    0.020951
    87  H   -0.050295
    88  H    0.037028
    89  H    0.006346
    90  H    0.013221
    91  H    0.034193
    92  H    0.048254
    93  H    0.053997
    94  H    0.064364
    95  H    0.020745
    96  H    0.008191
    97  H    0.058074
    98  H    0.025861
    99  H    0.013943
   100  H   -0.046376
   101  H    0.010207
   102  H    0.010214
   103  H   -0.007955
   104  H   -0.006159
   105  H   -0.085181
   106  H   -0.001796
   107  H   -0.013405
   108  H   -0.022118
   109  H   -0.047584
   110  H   -0.026077
   111  H    0.036488
   112  H    0.036359
   113  H   -0.008286
   114  H   -0.025971
   115  H   -0.017932
   116  H   -0.014819
   117  H   -0.054423
   118  H    0.003719
   119  H    0.011246
   120  H   -0.035272
   121  H    0.025704
   122  H    0.005089
   123  H    0.014276
   124  H   -0.014102
   125  H   -0.049921
   126  H   -0.011207
   127  H   -0.004470
   128  H    0.008467
   129  H    0.008639
   130  H    0.013987
   131  H    0.007156
   132  H    0.011576
   133  H    0.021976
   134  H    0.006426
   135  H   -0.009615
   136  H    0.028982
   137  H    0.169959
   138  H    0.170833
 Sum of Mulliken charges =  -0.00000

 Dipole moment (field-independent basis, Debye):
    X=              1.8167    Y=              4.8054    Z=              0.7096  Tot=              5.1861
 Quadrupole moment (field-independent basis, Debye-Ang):
   XX=           -335.5085   YY=           -383.6472   ZZ=           -398.5357
   XY=            -22.6815   XZ=              4.3513   YZ=              1.4036

 Normal termination of Gaussian 16 at Fri Aug  9 05:25:34 2019.
