 Gaussian 16, Revision A.03,
 Gaussian 16:  ES64L-G16RevA.03 25-Dec-2016

 --------------------------
 # td=(NStates=1) B3LYP/SVP
 --------------------------

 --
 TD
 --
 Symbolic Z-matrix:
 Charge =  0 Multiplicity = 1

                         Standard orientation:
 ---------------------------------------------------------------------
 Center     Atomic      Atomic             Coordinates (Angstroms)
 Number     Number       Type             X           Y           Z
 ---------------------------------------------------------------------
      1          6           0       -5.089903   -1.919793    0.304730
      2          6           0       -4.717138    2.648644    1.704183
      3          6           0       -9.080121    3.334555   -0.278996
      4          6           0       -9.754016   -1.386200   -1.169535
      5          7           0       -5.218764    0.443135    0.901800
      6          6           0       -4.580813   -0.707354    0.827178
      7          6           0       -3.109799   -0.560287    1.390558
      8          6           0       -3.158999    0.848243    2.111911
      9          6           0       -4.465712    1.410192    1.496117
     10          6           0       -3.111344    0.713790    3.598028
     11          6           0       -2.038255   -0.801449    0.277631
     12          6           0       -0.616198   -0.712091    0.670056
     13          6           0        0.287100   -1.033711   -0.382781
     14          8           0       -0.025187   -1.540714   -1.412765
     15          8           0        1.578227   -0.633815   -0.051783
     16          7           0       -6.896839    2.771465    0.608533
     17          6           0       -5.822212    3.320482    1.213182
     18          6           0       -6.091823    4.802484    1.199511
     19          6           0       -7.402406    4.936367    0.607480
     20          6           0       -7.867661    3.622864    0.279041
     21          6           0       -5.129438    5.885316    1.760303
     22          6           0       -7.840537    6.358880    0.270251
     23          6           0       -8.855073    6.647874   -0.575437
     24          7           0       -9.016283    0.946816   -0.673250
     25          6           0       -9.720860    2.152456   -0.805455
     26          6           0      -11.088826    2.004573   -1.150484
     27          6           0      -11.267438    0.715145   -1.338077
     28          6           0       -9.969642    0.020519   -1.045317
     29          6           0      -12.175525    3.078349   -1.216175
     30          6           0      -12.584560   -0.005481   -1.741326
     31          6           0      -12.557862   -0.316407   -3.268732
     32          7           0       -7.418131   -1.267216   -0.417383
     33          6           0       -8.503885   -1.963863   -0.793131
     34          6           0       -8.138241   -3.341107   -0.795852
     35          6           0       -6.785513   -3.352067   -0.483986
     36          6           0       -6.361344   -1.968983   -0.079785
     37          6           0       -8.983070   -4.486195   -1.249334
     38          6           0       -5.714434   -4.319130   -0.245160
     39          8           0       -5.698174   -5.535016   -0.253024
     40          6           0       -4.513148   -3.340141    0.309721
     41          6           0       -4.194297   -3.926147    1.769794
     42          8           0       -4.404597   -3.588987    2.883075
     43          8           0       -3.350801   -5.002567    1.594624
     44          6           0       -3.037324   -5.725740    2.886328
     45          6           0        2.596418   -0.859611   -1.000730
     46          6           0        3.917339   -0.803231   -0.393049
     47          6           0        4.889554    0.047051   -0.883250
     48          6           0        4.852667    0.809883   -2.215723
     49          6           0        6.237488    0.103018   -0.233348
     50          6           0        7.534260   -0.363097   -0.980880
     51          6           0        8.683528   -0.292866   -0.037053
     52          6           0       10.022456   -0.798688   -0.703437
     53          6           0        9.996692   -2.235802   -1.381949
     54          6           0       11.268597   -0.451879    0.133140
     55          6           0       12.569849   -0.675742   -0.503808
     56          6           0       13.851173   -0.111093    0.308967
     57          6           0       15.176805   -0.195591   -0.300305
     58          6           0       15.677300   -1.639525   -0.479445
     59          6           0       16.212180    0.663702    0.414916
     60          6           0       17.515817    0.731612   -0.339269
     61          6           0       18.646078    1.461687    0.451515
     62          6           0       20.085482    1.663699   -0.138862
     63          6           0       20.060633    2.556546   -1.414801
     64          6           0       21.076713    2.298653    0.998106
     65          1           0       -3.836483    3.012415    2.145287
     66          1           0       -9.796515    4.110639   -0.364714
     67          1           0      -10.504623   -2.113926   -1.301457
     68          1           0       -3.016870   -1.320971    2.302929
     69          1           0       -2.247891    1.249037    1.703830
     70          1           0       -2.131815    0.277474    4.026815
     71          1           0       -3.214015    1.628734    3.960005
     72          1           0       -3.782823   -0.075799    3.995009
     73          1           0       -2.275156   -1.792902   -0.177321
     74          1           0       -2.321340   -0.026137   -0.530911
     75          1           0       -0.299074    0.150392    1.312078
     76          1           0       -0.196247   -1.465546    1.537734
     77          1           0       -4.376238    6.033190    1.224194
     78          1           0       -5.495340    6.749037    2.140160
     79          1           0       -5.123844    5.586524    2.835397
     80          1           0       -7.383302    7.216256    0.871283
     81          1           0       -9.398112    5.814520   -1.151836
     82          1           0       -8.988917    7.755355   -0.803800
     83          1           0      -12.279679    3.582427   -0.242066
     84          1           0      -11.923266    3.751065   -2.146501
     85          1           0      -13.099867    2.612186   -1.501876
     86          1           0      -12.519543   -0.899547   -1.218912
     87          1           0      -13.433301    0.735387   -1.550266
     88          1           0      -12.232170    0.635113   -3.876901
     89          1           0      -11.640373   -0.867620   -3.578679
     90          1           0      -13.497970   -0.714300   -3.709303
     91          1           0       -9.938209   -4.533683   -0.908936
     92          1           0       -9.050574   -4.406925   -2.274859
     93          1           0       -8.528117   -5.607199   -1.239108
     94          1           0       -3.738890   -3.602452   -0.287192
     95          1           0       -2.129833   -6.239775    2.652811
     96          1           0       -2.934571   -5.065674    3.807962
     97          1           0       -3.985604   -6.412599    2.942085
     98          1           0        2.269669   -1.811042   -1.669691
     99          1           0        2.563694   -0.142740   -1.850077
    100          1           0        4.144504   -1.448554    0.585084
    101          1           0        5.413618    1.807734   -1.977810
    102          1           0        5.489185    0.268632   -3.011961
    103          1           0        3.948421    0.881225   -2.898389
    104          1           0        6.366629    1.135936    0.081352
    105          1           0        6.240149   -0.477898    0.656394
    106          1           0        7.264474   -1.433628   -1.418011
    107          1           0        7.825595    0.298149   -1.897558
    108          1           0        8.686281    0.863163    0.258570
    109          1           0        8.500097   -0.845565    0.988439
    110          1           0       10.014932    0.007654   -1.521675
    111          1           0        8.931779   -2.262939   -2.225255
    112          1           0       10.774988   -2.578481   -1.972969
    113          1           0        9.940623   -3.253067   -0.628278
    114          1           0       11.072760    0.487107    0.426762
    115          1           0       11.191400   -1.163503    0.975550
    116          1           0       12.664289   -1.709805   -0.844619
    117          1           0       12.719885   -0.090908   -1.460093
    118          1           0       13.432001    0.908507    0.679376
    119          1           0       13.706187   -0.698307    1.343886
    120          1           0       14.969347    0.265388   -1.260795
    121          1           0       14.992840   -2.042905   -1.153599
    122          1           0       16.542909   -1.739519   -0.833553
    123          1           0       15.650700   -2.263399    0.440956
    124          1           0       15.914696    1.595387    0.479917
    125          1           0       16.603705    0.075059    1.337072
    126          1           0       18.010737   -0.290202   -0.801456
    127          1           0       17.321827    1.190399   -1.343388
    128          1           0       18.104108    2.563647    0.657709
    129          1           0       18.781256    0.965784    1.447019
    130          1           0       20.273050    0.497324   -0.251039
    131          1           0       19.376425    3.653687   -1.223417
    132          1           0       21.105312    2.691469   -1.718695
    133          1           0       19.587574    2.065932   -2.194711
    134          1           0       21.096382    1.794765    1.841272
    135          1           0       21.965975    2.365551    0.614977
    136          1           0       20.489737    3.340510    1.264636
    137          1           0       -6.953049    1.824847    0.528033
    138          1           0       -7.604006   -0.160577   -0.204868
 ---------------------------------------------------------------------

 SCF Done:  E(RB3LYP) =  -2733.00391955     A.U. after   17 cycles

 Excitation energies and oscillator strengths:

 Excited State   1:      Singlet-A      2.1203 eV  584.75 nm  f=0.2353  <S**2>=0.000
     235 -> 237       -0.12882
     235 -> 238       -0.26565
     236 -> 237        0.63514
 This state for optimization and/or second-order correction.
 Total Energy, E(TD-HF/TD-DFT) =  -2732.92599997
 Copying the excited state density for this state as the 1-particle RhoCI density.

 The electronic state is 1-A.
 Alpha  occ. eigenvalues --  -19.16492 -19.15448 -19.12572 -19.12564 -19.12136
 Alpha  occ. eigenvalues --  -14.37196 -14.36789 -14.32103 -14.30972 -10.30897
 Alpha  occ. eigenvalues --  -10.30890 -10.27925 -10.24283 -10.24270 -10.24020
 Alpha  occ. eigenvalues --  -10.23516 -10.23432 -10.23305 -10.23017 -10.22056
 Alpha  occ. eigenvalues --  -10.21665 -10.21562 -10.21495 -10.21455 -10.21387
 Alpha  occ. eigenvalues --  -10.21192 -10.21166 -10.21023 -10.20815 -10.20761
 Alpha  occ. eigenvalues --  -10.20630 -10.20618 -10.20608 -10.20501 -10.20352
 Alpha  occ. eigenvalues --  -10.20261 -10.20193 -10.20117 -10.20095 -10.20025
 Alpha  occ. eigenvalues --  -10.19985 -10.19914 -10.19859 -10.19427 -10.19392
 Alpha  occ. eigenvalues --  -10.19262 -10.19256 -10.19180 -10.19158 -10.19100
 Alpha  occ. eigenvalues --  -10.19018 -10.18850 -10.18506 -10.18431 -10.18413
 Alpha  occ. eigenvalues --  -10.18408 -10.18243 -10.18225 -10.18108 -10.17968
 Alpha  occ. eigenvalues --  -10.17468 -10.17222 -10.17205 -10.15723  -1.08779
 Alpha  occ. eigenvalues --   -1.08194  -1.02490  -1.01310  -1.00197  -0.99615
 Alpha  occ. eigenvalues --   -0.98402  -0.94659  -0.93172  -0.84918  -0.82662
 Alpha  occ. eigenvalues --   -0.82233  -0.82171  -0.81410  -0.80947  -0.80591
 Alpha  occ. eigenvalues --   -0.80504  -0.79902  -0.79501  -0.78623  -0.78082
 Alpha  occ. eigenvalues --   -0.76990  -0.76349  -0.75215  -0.74722  -0.74490
 Alpha  occ. eigenvalues --   -0.73461  -0.72945  -0.72556  -0.72042  -0.71329
 Alpha  occ. eigenvalues --   -0.70390  -0.69487  -0.68680  -0.68462  -0.67985
 Alpha  occ. eigenvalues --   -0.67859  -0.67191  -0.66898  -0.66399  -0.64927
 Alpha  occ. eigenvalues --   -0.64653  -0.62958  -0.62261  -0.61919  -0.61647
 Alpha  occ. eigenvalues --   -0.60861  -0.59633  -0.58538  -0.58033  -0.57344
 Alpha  occ. eigenvalues --   -0.56756  -0.56450  -0.55580  -0.55386  -0.55069
 Alpha  occ. eigenvalues --   -0.54646  -0.53962  -0.53564  -0.53213  -0.53105
 Alpha  occ. eigenvalues --   -0.52472  -0.51705  -0.51616  -0.51084  -0.50349
 Alpha  occ. eigenvalues --   -0.50043  -0.49149  -0.49104  -0.48928  -0.48865
 Alpha  occ. eigenvalues --   -0.48478  -0.47870  -0.47600  -0.47077  -0.46855
 Alpha  occ. eigenvalues --   -0.46676  -0.46394  -0.46177  -0.46043  -0.45859
 Alpha  occ. eigenvalues --   -0.45565  -0.45482  -0.45389  -0.45232  -0.45038
 Alpha  occ. eigenvalues --   -0.44593  -0.44422  -0.44224  -0.44034  -0.43973
 Alpha  occ. eigenvalues --   -0.43760  -0.43659  -0.43546  -0.43311  -0.42795
 Alpha  occ. eigenvalues --   -0.42765  -0.42308  -0.41936  -0.41803  -0.41512
 Alpha  occ. eigenvalues --   -0.41407  -0.41269  -0.41080  -0.40896  -0.40591
 Alpha  occ. eigenvalues --   -0.40252  -0.40023  -0.39931  -0.39838  -0.39416
 Alpha  occ. eigenvalues --   -0.39116  -0.39029  -0.38595  -0.38424  -0.38317
 Alpha  occ. eigenvalues --   -0.37967  -0.37785  -0.37682  -0.37525  -0.37311
 Alpha  occ. eigenvalues --   -0.37239  -0.37046  -0.36859  -0.36665  -0.36320
 Alpha  occ. eigenvalues --   -0.36234  -0.36194  -0.36005  -0.35864  -0.35652
 Alpha  occ. eigenvalues --   -0.35450  -0.35215  -0.34895  -0.34789  -0.34670
 Alpha  occ. eigenvalues --   -0.34457  -0.34175  -0.34038  -0.33700  -0.33516
 Alpha  occ. eigenvalues --   -0.33452  -0.33183  -0.33031  -0.33005  -0.32563
 Alpha  occ. eigenvalues --   -0.32465  -0.32341  -0.31718  -0.30952  -0.30700
 Alpha  occ. eigenvalues --   -0.30601  -0.30314  -0.29948  -0.29739  -0.29129
 Alpha  occ. eigenvalues --   -0.29089  -0.28834  -0.28653  -0.28618  -0.28437
 Alpha  occ. eigenvalues --   -0.28132  -0.27770  -0.27015  -0.26518  -0.26167
 Alpha  occ. eigenvalues --   -0.24581  -0.23918  -0.23750  -0.23592  -0.20549
 Alpha  occ. eigenvalues --   -0.18953
 Alpha virt. eigenvalues --   -0.10299  -0.07730  -0.04026  -0.01293  -0.00543
 Alpha virt. eigenvalues --    0.00211   0.00921   0.01329   0.02657   0.03392
 Alpha virt. eigenvalues --    0.04283   0.04435   0.04531   0.04792   0.05205

 Mulliken charges:
               1
     1  C   -0.037422
     2  C   -0.001156
     3  C   -0.073291
     4  C   -0.034068
     5  N   -0.153220
     6  C   -0.069104
     7  C   -0.126263
     8  C   -0.013595
     9  C   -0.059928
    10  C    0.126429
    11  C    0.092445
    12  C   -0.001207
    13  C    0.179407
    14  O   -0.202086
    15  O   -0.339031
    16  N    0.070667
    17  C    0.110437
    18  C   -0.186796
    19  C   -0.003985
    20  C    0.113414
    21  C    0.235371
    22  C   -0.032237
    23  C   -0.064615
    24  N   -0.293629
    25  C    0.019407
    26  C   -0.135083
    27  C   -0.137658
    28  C    0.084659
    29  C    0.121483
    30  C    0.141867
    31  C   -0.037918
    32  N   -0.038047
    33  C    0.011832
    34  C   -0.119270
    35  C   -0.070956
    36  C    0.139590
    37  C    0.133993
    38  C    0.072735
    39  O   -0.160539
    40  C   -0.024074
    41  C    0.207490
    42  O   -0.198457
    43  O   -0.357680
    44  C    0.143984
    45  C    0.235919
    46  C   -0.092030
    47  C   -0.113771
    48  C    0.003069
    49  C    0.094803
    50  C   -0.036139
    51  C   -0.045336
    52  C   -0.066758
    53  C   -0.053557
    54  C    0.146395
    55  C    0.006285
    56  C   -0.043301
    57  C   -0.023906
    58  C    0.182682
    59  C    0.149363
    60  C   -0.059917
    61  C   -0.027535
    62  C   -0.150288
    63  C    0.036577
    64  C    0.124647
    65  H   -0.045835
    66  H   -0.042421
    67  H   -0.036772
    68  H    0.023318
    69  H   -0.018067
    70  H    0.007473
    71  H   -0.033711
    72  H    0.031158
    73  H    0.027231
    74  H    0.024360
    75  H    0.028594
    76  H    0.047145
    77  H   -0.014763
    78  H   -0.032530
    79  H    0.017199
    80  H    0.020157
    81  H    0.045522
    82  H    0.032471
    83  H    0.042239
    84  H    0.035728
    85  H   -0.010003
    86  H   -0.010056
    87  H    0.017967
    88  H    0.006727
    89  H    0.010957
    90  H    0.030662
    91  H   -0.003508
    92  H    0.003250
    93  H    0.052089
    94  H    0.018325
    95  H    0.032547
    96  H    0.063976
    97  H    0.057354
    98  H    0.033821
    99  H   -0.013072
   100  H    0.019091
   101  H    0.030721
   102  H    0.037573
   103  H    0.032677
   104  H   -0.004950
   105  H   -0.023734
   106  H    0.032695
   107  H    0.011617
   108  H    0.014732
   109  H    0.010715
   110  H   -0.007744
   111  H    0.027686
   112  H    0.014254
   113  H    0.023897
   114  H   -0.049508
   115  H   -0.010162
   116  H   -0.002006
   117  H   -0.021476
   118  H   -0.002955
   119  H   -0.013622
   120  H   -0.028811
   121  H   -0.024459
   122  H   -0.074174
   123  H    0.002103
   124  H   -0.051194
   125  H    0.006788
   126  H    0.002212
   127  H   -0.016523
   128  H   -0.007149
   129  H    0.001674
   130  H    0.014667
   131  H    0.033667
   132  H    0.013528
   133  H   -0.001774
   134  H   -0.031701
   135  H   -0.025728
   136  H    0.021388
   137  H    0.078402
   138  H    0.216956
 Sum of Mulliken charges =  -0.00000

 Dipole moment (field-independent basis, Debye):
    X=              1.2939    Y=              4.3910    Z=              0.6745  Tot=              4.6271
 Quadrupole moment (field-independent basis, Debye-Ang):
   XX=           -334.9256   YY=           -387.3709   ZZ=           -391.1427
   XY=            -24.3246   XZ=              1.5490   YZ=              1.1408

 Normal termination of Gaussian 16 at Tue Aug 13 07:43:41 2019.
