 Gaussian 16, Revision A.03,
 Gaussian 16:  ES64L-G16RevA.03 25-Dec-2016

 --------------------------
 # td=(NStates=1) B3LYP/SVP
 --------------------------

 --
 TD
 --
 Symbolic Z-matrix:
 Charge =  0 Multiplicity = 1

                         Standard orientation:
 ---------------------------------------------------------------------
 Center     Atomic      Atomic             Coordinates (Angstroms)
 Number     Number       Type             X           Y           Z
 ---------------------------------------------------------------------
      1          6           0       -5.035990   -1.935685    0.569992
      2          6           0       -4.799535    2.744924    1.480610
      3          6           0       -9.358960    3.234918   -0.228430
      4          6           0       -9.796998   -1.536893   -0.877306
      5          7           0       -5.181120    0.504537    0.904264
      6          6           0       -4.471609   -0.723019    0.817880
      7          6           0       -2.986419   -0.426602    1.297717
      8          6           0       -2.995186    0.885856    1.943203
      9          6           0       -4.293107    1.425205    1.429634
     10          6           0       -2.925454    0.926170    3.406579
     11          6           0       -2.069766   -0.669876    0.126061
     12          6           0       -0.535657   -0.643939    0.428808
     13          6           0        0.337131   -0.844314   -0.709689
     14          8           0        0.028530   -1.224739   -1.845520
     15          8           0        1.612415   -0.802288   -0.341385
     16          7           0       -7.062912    2.642840    0.675074
     17          6           0       -5.949560    3.383303    1.186953
     18          6           0       -6.256548    4.782354    1.049553
     19          6           0       -7.615804    4.864118    0.489431
     20          6           0       -8.103071    3.510141    0.148212
     21          6           0       -5.286793    5.853421    1.324242
     22          6           0       -8.349669    6.195361    0.394707
     23          6           0       -9.121007    6.631023   -0.564395
     24          7           0       -9.237173    0.797510   -0.547993
     25          6           0       -9.818641    1.967635   -0.563214
     26          6           0      -11.260299    1.779087   -1.011972
     27          6           0      -11.464658    0.436470   -1.125477
     28          6           0      -10.119925   -0.232336   -0.827046
     29          6           0      -12.307759    2.832309   -1.204298
     30          6           0      -12.697026   -0.300406   -1.538650
     31          6           0      -12.741363   -0.726386   -3.034407
     32          7           0       -7.445137   -1.243144   -0.169066
     33          6           0       -8.610670   -2.079653   -0.474218
     34          6           0       -8.118983   -3.481824   -0.532725
     35          6           0       -6.851428   -3.413898   -0.099788
     36          6           0       -6.466441   -2.021784    0.128086
     37          6           0       -9.003273   -4.674612   -0.915562
     38          6           0       -5.663778   -4.267904    0.022937
     39          8           0       -5.560172   -5.519231   -0.030877
     40          6           0       -4.512510   -3.292291    0.485455
     41          6           0       -3.764222   -3.736780    1.778229
     42          8           0       -3.905347   -3.251225    2.860281
     43          8           0       -2.896250   -4.740575    1.488320
     44          6           0       -2.346010   -5.405996    2.658628
     45          6           0        2.604945   -0.981523   -1.364797
     46          6           0        3.968620   -0.539527   -0.817579
     47          6           0        4.930112    0.118166   -1.416774
     48          6           0        4.946892    0.848439   -2.803798
     49          6           0        6.208894    0.429935   -0.658183
     50          6           0        7.433147   -0.362738   -1.165456
     51          6           0        8.638267    0.016022   -0.311426
     52          6           0       10.053934   -0.586619   -0.789811
     53          6           0       10.220692   -2.147046   -0.888116
     54          6           0       11.238537   -0.062153   -0.061109
     55          6           0       12.647896   -0.605282   -0.498047
     56          6           0       13.804805   -0.012859    0.295465
     57          6           0       15.205036   -0.311051   -0.266998
     58          6           0       15.502494   -1.781789   -0.333583
     59          6           0       16.215296    0.508153    0.444680
     60          6           0       17.617239    0.726536   -0.079417
     61          6           0       18.598998    1.437834    0.777749
     62          6           0       20.001130    1.555038    0.249857
     63          6           0       20.154032    2.027627   -1.162212
     64          6           0       20.762030    2.377436    1.201578
     65          1           0       -4.074074    3.398833    1.964669
     66          1           0      -10.130286    4.207731   -0.297297
     67          1           0      -10.608511   -2.226926   -1.134100
     68          1           0       -2.737772   -1.293327    1.972388
     69          1           0       -2.129986    1.475339    1.556071
     70          1           0       -2.076767    0.537973    3.888726
     71          1           0       -2.850371    1.998484    3.824953
     72          1           0       -3.926044    0.390433    3.621712
     73          1           0       -2.003121   -1.871658   -0.364844
     74          1           0       -2.283955    0.054087   -0.614695
     75          1           0       -0.290044    0.561402    0.720132
     76          1           0       -0.111785   -1.275832    1.203399
     77          1           0       -4.622473    6.094819    0.351828
     78          1           0       -5.680604    6.672313    1.521477
     79          1           0       -4.779857    5.627009    2.117797
     80          1           0       -7.719961    6.935445    1.121280
     81          1           0       -9.494472    6.027611   -1.426063
     82          1           0       -9.577424    7.663848   -0.392081
     83          1           0      -12.077549    3.767139   -0.394971
     84          1           0      -12.153941    3.470960   -2.098977
     85          1           0      -13.415830    2.381991   -1.145068
     86          1           0      -12.542214   -1.104691   -0.759614
     87          1           0      -13.634987    0.281215   -1.248470
     88          1           0      -12.813849    0.024665   -3.591311
     89          1           0      -11.902734   -1.338447   -3.314929
     90          1           0      -13.512413   -1.386706   -3.065349
     91          1           0      -10.001365   -4.620553   -0.439103
     92          1           0       -9.186309   -4.767597   -1.994595
     93          1           0       -8.376862   -5.763161   -0.667928
     94          1           0       -3.779600   -3.513420   -0.407315
     95          1           0       -1.827081   -6.333181    2.320992
     96          1           0       -1.526509   -4.665592    3.215701
     97          1           0       -3.149977   -5.644804    3.364118
     98          1           0        2.503281   -2.126856   -1.806152
     99          1           0        2.358498   -0.238410   -2.043599
    100          1           0        4.208006   -1.062784    0.322916
    101          1           0        5.225221    1.973478   -2.821289
    102          1           0        5.529316    0.210591   -3.419281
    103          1           0        3.978048    0.792070   -3.139769
    104          1           0        6.534394    1.420321   -0.815489
    105          1           0        6.119647    0.121995    0.513033
    106          1           0        7.253896   -1.624181   -1.163927
    107          1           0        7.601470   -0.144044   -2.100947
    108          1           0        8.752623    1.101996   -0.133916
    109          1           0        8.671897   -0.520590    0.516265
    110          1           0       10.018159   -0.292007   -2.060622
    111          1           0        9.314045   -2.562474   -1.333216
    112          1           0       11.044652   -2.321879   -1.304454
    113          1           0       10.083075   -2.643024    0.139713
    114          1           0       11.333144    1.094536   -0.213238
    115          1           0       11.265631   -0.357523    0.964636
    116          1           0       12.667610   -1.620300   -0.457072
    117          1           0       12.702037   -0.071760   -1.506172
    118          1           0       13.574595    1.149264    0.338542
    119          1           0       13.783290   -0.389988    1.466385
    120          1           0       14.970292    0.088296   -1.411706
    121          1           0       15.075220   -2.417626   -1.046203
    122          1           0       16.628754   -2.057538   -0.702124
    123          1           0       15.406167   -2.105197    0.599895
    124          1           0       15.876597    1.446286    0.738712
    125          1           0       16.355270   -0.031492    1.193190
    126          1           0       18.025964   -0.178827   -0.146286
    127          1           0       17.583115    1.135524   -1.114947
    128          1           0       18.437942    2.371725    0.977804
    129          1           0       18.599963    1.050544    1.764653
    130          1           0       20.389418    0.398299    0.196327
    131          1           0       19.612537    3.167713   -1.315839
    132          1           0       21.203746    2.248427   -1.296119
    133          1           0       19.707987    1.417772   -1.998701
    134          1           0       20.576171    2.035665    2.154409
    135          1           0       21.792411    2.179465    0.883319
    136          1           0       20.806105    3.527526    1.072282
    137          1           0       -7.273996    1.549521    0.459096
    138          1           0       -7.398497   -0.243821   -0.311744
 ---------------------------------------------------------------------

 SCF Done:  E(RB3LYP) =  -2732.91042682     A.U. after   17 cycles

 Excitation energies and oscillator strengths:

 Excited State   1:      Singlet-A      2.0504 eV  604.68 nm  f=0.1683  <S**2>=0.000
     235 -> 238        0.26277
     236 -> 237        0.64647
 This state for optimization and/or second-order correction.
 Total Energy, E(TD-HF/TD-DFT) =  -2732.83507520
 Copying the excited state density for this state as the 1-particle RhoCI density.

 The electronic state is 1-A.
 Alpha  occ. eigenvalues --  -19.17860 -19.17338 -19.12989 -19.11949 -19.11403
 Alpha  occ. eigenvalues --  -14.38119 -14.36222 -14.32589 -14.30161 -10.31812
 Alpha  occ. eigenvalues --  -10.30908 -10.28034 -10.25754 -10.25540 -10.24127
 Alpha  occ. eigenvalues --  -10.24073 -10.23706 -10.23421 -10.23405 -10.22928
 Alpha  occ. eigenvalues --  -10.21894 -10.21863 -10.21592 -10.21580 -10.21507
 Alpha  occ. eigenvalues --  -10.21381 -10.21338 -10.21251 -10.21084 -10.20996
 Alpha  occ. eigenvalues --  -10.20976 -10.20625 -10.20564 -10.20488 -10.20419
 Alpha  occ. eigenvalues --  -10.20380 -10.20251 -10.20236 -10.19999 -10.19985
 Alpha  occ. eigenvalues --  -10.19745 -10.19663 -10.19541 -10.19536 -10.19444
 Alpha  occ. eigenvalues --  -10.19344 -10.18987 -10.18972 -10.18946 -10.18817
 Alpha  occ. eigenvalues --  -10.18814 -10.18354 -10.18253 -10.18112 -10.17939
 Alpha  occ. eigenvalues --  -10.17728 -10.17720 -10.17493 -10.17289 -10.16966
 Alpha  occ. eigenvalues --  -10.16277 -10.15956 -10.15252 -10.15086  -1.09752
 Alpha  occ. eigenvalues --   -1.09392  -1.01217  -1.00152  -0.98977  -0.98849
 Alpha  occ. eigenvalues --   -0.94272  -0.93484  -0.92728  -0.84486  -0.83448
 Alpha  occ. eigenvalues --   -0.82662  -0.82075  -0.81930  -0.81817  -0.80787
 Alpha  occ. eigenvalues --   -0.80661  -0.80368  -0.79863  -0.79289  -0.78941
 Alpha  occ. eigenvalues --   -0.77479  -0.76772  -0.75962  -0.75479  -0.74660
 Alpha  occ. eigenvalues --   -0.74074  -0.72908  -0.72805  -0.72233  -0.71140
 Alpha  occ. eigenvalues --   -0.70634  -0.69300  -0.69037  -0.68936  -0.68701
 Alpha  occ. eigenvalues --   -0.67774  -0.67321  -0.66925  -0.66178  -0.66015
 Alpha  occ. eigenvalues --   -0.64165  -0.63132  -0.62733  -0.62314  -0.62069
 Alpha  occ. eigenvalues --   -0.60399  -0.59831  -0.59269  -0.57923  -0.57417
 Alpha  occ. eigenvalues --   -0.56990  -0.55849  -0.55370  -0.55294  -0.54881
 Alpha  occ. eigenvalues --   -0.54764  -0.54030  -0.53458  -0.52622  -0.52328
 Alpha  occ. eigenvalues --   -0.51742  -0.51638  -0.51306  -0.50723  -0.50035
 Alpha  occ. eigenvalues --   -0.49936  -0.49889  -0.49128  -0.48757  -0.48557
 Alpha  occ. eigenvalues --   -0.48423  -0.48345  -0.48028  -0.47714  -0.47344
 Alpha  occ. eigenvalues --   -0.46893  -0.46820  -0.46706  -0.46082  -0.45920
 Alpha  occ. eigenvalues --   -0.45759  -0.45473  -0.45321  -0.45212  -0.44945
 Alpha  occ. eigenvalues --   -0.44750  -0.44586  -0.44492  -0.44212  -0.43745
 Alpha  occ. eigenvalues --   -0.43423  -0.43384  -0.43101  -0.42991  -0.42822
 Alpha  occ. eigenvalues --   -0.42688  -0.42426  -0.42341  -0.42122  -0.41942
 Alpha  occ. eigenvalues --   -0.41731  -0.41446  -0.41280  -0.40929  -0.40677
 Alpha  occ. eigenvalues --   -0.40595  -0.40310  -0.40107  -0.39849  -0.39708
 Alpha  occ. eigenvalues --   -0.39344  -0.39295  -0.39083  -0.38840  -0.38589
 Alpha  occ. eigenvalues --   -0.38234  -0.38076  -0.37953  -0.37735  -0.37385
 Alpha  occ. eigenvalues --   -0.37281  -0.37046  -0.36910  -0.36807  -0.36627
 Alpha  occ. eigenvalues --   -0.36472  -0.36216  -0.36103  -0.36007  -0.35688
 Alpha  occ. eigenvalues --   -0.35641  -0.35474  -0.35391  -0.34865  -0.34649
 Alpha  occ. eigenvalues --   -0.33983  -0.33946  -0.33895  -0.33653  -0.33618
 Alpha  occ. eigenvalues --   -0.33420  -0.33395  -0.32827  -0.32798  -0.32448
 Alpha  occ. eigenvalues --   -0.32326  -0.32182  -0.32053  -0.31238  -0.31086
 Alpha  occ. eigenvalues --   -0.30799  -0.30630  -0.30534  -0.30475  -0.30058
 Alpha  occ. eigenvalues --   -0.29157  -0.28573  -0.28284  -0.28254  -0.27659
 Alpha  occ. eigenvalues --   -0.27433  -0.27238  -0.27102  -0.26142  -0.25629
 Alpha  occ. eigenvalues --   -0.25536  -0.24702  -0.23314  -0.22442  -0.19991
 Alpha  occ. eigenvalues --   -0.18881
 Alpha virt. eigenvalues --   -0.10267  -0.07448  -0.04421  -0.02298  -0.00451
 Alpha virt. eigenvalues --   -0.00025   0.00423   0.00566   0.01664   0.03224
 Alpha virt. eigenvalues --    0.03378   0.04055   0.04207   0.04649   0.04787

 Mulliken charges:
               1
     1  C    0.070292
     2  C   -0.025916
     3  C   -0.177683
     4  C   -0.088159
     5  N   -0.234107
     6  C   -0.040108
     7  C   -0.029655
     8  C    0.113485
     9  C   -0.082374
    10  C    0.065262
    11  C    0.017314
    12  C   -0.016749
    13  C    0.171136
    14  O   -0.269442
    15  O   -0.313053
    16  N   -0.234484
    17  C    0.165018
    18  C   -0.170752
    19  C   -0.053748
    20  C    0.150137
    21  C    0.304469
    22  C   -0.037758
    23  C   -0.048456
    24  N   -0.217483
    25  C    0.083889
    26  C   -0.124734
    27  C   -0.081050
    28  C    0.056769
    29  C    0.009148
    30  C   -0.018173
    31  C    0.189213
    32  N    0.001019
    33  C    0.081600
    34  C   -0.104047
    35  C   -0.024749
    36  C    0.005500
    37  C    0.026445
    38  C    0.090438
    39  O   -0.211411
    40  C   -0.078384
    41  C    0.209627
    42  O   -0.201648
    43  O   -0.305713
    44  C    0.140667
    45  C    0.288066
    46  C   -0.163066
    47  C   -0.128470
    48  C    0.131583
    49  C    0.068763
    50  C    0.015925
    51  C    0.115558
    52  C   -0.172293
    53  C    0.107796
    54  C    0.045115
    55  C    0.041691
    56  C   -0.073327
    57  C   -0.079904
    58  C    0.078331
    59  C    0.196984
    60  C    0.133125
    61  C    0.125530
    62  C   -0.164635
    63  C   -0.003631
    64  C    0.088097
    65  H   -0.049987
    66  H    0.043932
    67  H   -0.019838
    68  H    0.007779
    69  H   -0.017348
    70  H    0.002992
    71  H    0.013342
    72  H    0.048184
    73  H    0.057610
    74  H   -0.006491
    75  H    0.040960
    76  H    0.042424
    77  H    0.047350
    78  H   -0.097238
    79  H   -0.033361
    80  H    0.037428
    81  H    0.046567
    82  H    0.040770
    83  H    0.024051
    84  H    0.019802
    85  H    0.044983
    86  H    0.013392
    87  H    0.003341
    88  H   -0.039251
    89  H   -0.009315
    90  H   -0.016121
    91  H    0.039043
    92  H    0.031365
    93  H    0.073131
    94  H    0.081681
    95  H    0.047789
    96  H    0.044448
    97  H    0.044452
    98  H    0.065468
    99  H   -0.014291
   100  H    0.028260
   101  H    0.046860
   102  H    0.022083
   103  H   -0.029529
   104  H   -0.017958
   105  H    0.018957
   106  H    0.016450
   107  H   -0.053303
   108  H    0.003801
   109  H   -0.043113
   110  H   -0.014897
   111  H   -0.008786
   112  H   -0.026123
   113  H   -0.003737
   114  H    0.003865
   115  H   -0.014573
   116  H   -0.009023
   117  H    0.005675
   118  H    0.007410
   119  H   -0.006096
   120  H   -0.014813
   121  H    0.000345
   122  H    0.008516
   123  H   -0.027997
   124  H   -0.034298
   125  H   -0.101041
   126  H   -0.070327
   127  H   -0.013009
   128  H   -0.080033
   129  H   -0.040727
   130  H   -0.002435
   131  H   -0.000417
   132  H    0.001206
   133  H    0.032804
   134  H   -0.009188
   135  H   -0.009510
   136  H    0.020895
   137  H    0.200467
   138  H    0.141467
 Sum of Mulliken charges =  -0.00000

 Dipole moment (field-independent basis, Debye):
    X=              2.3358    Y=              4.0794    Z=              0.4843  Tot=              4.7257
 Quadrupole moment (field-independent basis, Debye-Ang):
   XX=           -351.3363   YY=           -379.0732   ZZ=           -395.6005
   XY=            -22.4178   XZ=             18.3306   YZ=             -1.7886

 Normal termination of Gaussian 16 at Wed Aug 14 00:17:26 2019.
