 Gaussian 16, Revision A.03,
 Gaussian 16:  ES64L-G16RevA.03 25-Dec-2016

 --------------------------
 # td=(NStates=1) B3LYP/SVP
 --------------------------

 --
 TD
 --
 Symbolic Z-matrix:
 Charge =  0 Multiplicity = 1

                         Standard orientation:
 ---------------------------------------------------------------------
 Center     Atomic      Atomic             Coordinates (Angstroms)
 Number     Number       Type             X           Y           Z
 ---------------------------------------------------------------------
      1          6           0       -5.135839   -1.900028    0.587187
      2          6           0       -4.744955    2.909495    1.525260
      3          6           0       -9.211437    3.269054   -0.321289
      4          6           0       -9.792541   -1.372090   -1.152719
      5          7           0       -5.135620    0.546117    0.790777
      6          6           0       -4.554726   -0.675513    0.871372
      7          6           0       -3.085678   -0.537739    1.357117
      8          6           0       -3.038347    0.901941    1.922176
      9          6           0       -4.296335    1.485058    1.381550
     10          6           0       -2.866128    0.988511    3.391196
     11          6           0       -2.014688   -0.716863    0.182212
     12          6           0       -0.631769   -0.755554    0.615830
     13          6           0        0.248951   -1.061968   -0.573027
     14          8           0       -0.150204   -1.568842   -1.517227
     15          8           0        1.578675   -0.653164   -0.244219
     16          7           0       -6.980683    2.773730    0.493295
     17          6           0       -5.882446    3.487996    1.020275
     18          6           0       -6.260137    4.786977    1.040925
     19          6           0       -7.502861    4.940789    0.400849
     20          6           0       -8.048170    3.642814    0.185219
     21          6           0       -5.340419    5.885881    1.500911
     22          6           0       -8.094211    6.226798    0.332347
     23          6           0       -9.135785    6.470619   -0.594336
     24          7           0       -9.223892    0.946866   -0.455588
     25          6           0       -9.886037    2.169061   -0.624699
     26          6           0      -11.257430    1.845835   -1.099365
     27          6           0      -11.420934    0.576401   -1.263172
     28          6           0      -10.134257   -0.020805   -0.876202
     29          6           0      -12.241050    3.013276   -1.211606
     30          6           0      -12.548251   -0.219187   -1.746085
     31          6           0      -12.625686   -0.647954   -3.269676
     32          7           0       -7.557347   -1.215620   -0.171506
     33          6           0       -8.647386   -2.018078   -0.681053
     34          6           0       -8.235363   -3.425006   -0.727753
     35          6           0       -6.914589   -3.376887   -0.186591
     36          6           0       -6.515475   -2.087397    0.114506
     37          6           0       -9.057740   -4.609205   -1.060827
     38          6           0       -5.830577   -4.376776    0.161001
     39          8           0       -5.909440   -5.548269    0.132845
     40          6           0       -4.599064   -3.335776    0.685157
     41          6           0       -4.065836   -3.769300    2.029486
     42          8           0       -4.467157   -3.371091    3.059093
     43          8           0       -3.091980   -4.716857    1.790648
     44          6           0       -2.507231   -5.327501    2.895080
     45          6           0        2.590576   -1.039666   -1.285398
     46          6           0        3.920172   -0.880663   -0.660757
     47          6           0        5.023592   -0.101466   -1.148664
     48          6           0        4.996978    0.570549   -2.415342
     49          6           0        6.294828   -0.029677   -0.325565
     50          6           0        7.479781   -0.532668   -1.060080
     51          6           0        8.819542   -0.347696   -0.347057
     52          6           0       10.190103   -0.755814   -1.106917
     53          6           0       10.204647   -2.219528   -1.512495
     54          6           0       11.344743   -0.328555   -0.147595
     55          6           0       12.710014   -0.369612   -0.801250
     56          6           0       13.883875   -0.051037    0.241962
     57          6           0       15.274585   -0.046804   -0.398105
     58          6           0       15.776961   -1.626562   -0.824406
     59          6           0       16.325049    0.563559    0.523438
     60          6           0       17.728733    0.689873   -0.097840
     61          6           0       18.688692    1.567628    0.733074
     62          6           0       20.095151    1.737138    0.328833
     63          6           0       20.193008    2.398323   -1.119242
     64          6           0       20.908775    2.305560    1.374654
     65          1           0       -3.975897    3.599567    2.046758
     66          1           0       -9.704524    4.374602   -0.430578
     67          1           0      -10.545018   -1.998879   -1.472222
     68          1           0       -2.705459   -1.246130    2.012572
     69          1           0       -2.066917    1.564787    1.598221
     70          1           0       -2.022082    0.517913    3.569889
     71          1           0       -2.844809    2.079551    3.812992
     72          1           0       -3.764357    0.615794    3.806985
     73          1           0       -2.344564   -1.688123   -0.278821
     74          1           0       -2.159264   -0.028934   -0.561222
     75          1           0       -0.237518    0.215953    1.065981
     76          1           0       -0.426847   -1.466143    1.550289
     77          1           0       -4.496102    5.748892    0.832704
     78          1           0       -5.752335    6.910980    1.679570
     79          1           0       -5.077743    5.601104    2.415444
     80          1           0       -7.707707    7.199976    0.788426
     81          1           0       -9.534587    5.700157   -1.337792
     82          1           0       -9.384784    7.668356   -0.456605
     83          1           0      -12.421050    3.470159   -0.154016
     84          1           0      -11.901171    3.470068   -2.115026
     85          1           0      -13.226821    2.719702   -1.323526
     86          1           0      -12.441547   -0.957846   -1.155112
     87          1           0      -13.569762    0.250572   -1.443168
     88          1           0      -12.734273    0.155397   -3.836231
     89          1           0      -11.695702   -1.215311   -3.637608
     90          1           0      -13.652568   -1.243296   -3.317598
     91          1           0      -10.058660   -4.794737   -0.582835
     92          1           0       -9.489412   -4.657335   -2.261026
     93          1           0       -8.344517   -5.538699   -0.972444
     94          1           0       -3.858741   -3.842068   -0.201564
     95          1           0       -2.099326   -6.351919    2.353651
     96          1           0       -1.523598   -4.752312    3.168083
     97          1           0       -3.216260   -5.209710    3.952670
     98          1           0        2.286925   -2.084449   -1.622095
     99          1           0        2.440747   -0.335143   -2.257463
    100          1           0        4.329040   -1.661613    0.239960
    101          1           0        5.171074    1.730341   -2.582463
    102          1           0        5.556877    0.170766   -3.266569
    103          1           0        3.945980    0.650472   -2.845243
    104          1           0        6.440058    1.113056   -0.194231
    105          1           0        6.124879   -0.414797    0.650451
    106          1           0        7.164973   -1.606142   -1.159547
    107          1           0        7.525205   -0.113938   -2.119827
    108          1           0        8.734146    0.757179   -0.050342
    109          1           0        9.000611   -1.035407    0.467895
    110          1           0       10.190727   -0.258081   -2.107934
    111          1           0        9.159609   -2.505868   -1.704467
    112          1           0       10.838471   -2.632858   -2.502166
    113          1           0       10.442858   -2.773606   -0.550116
    114          1           0       11.205744    0.802941    0.437447
    115          1           0       11.330968   -1.224767    0.727744
    116          1           0       13.006157   -1.472873   -1.187148
    117          1           0       12.894420    0.318930   -1.641214
    118          1           0       13.633940    0.887383    0.475782
    119          1           0       14.037500   -0.787668    1.241115
    120          1           0       15.172833    0.770351   -1.184826
    121          1           0       15.183529   -2.261240   -1.413048
    122          1           0       16.962072   -1.472550   -1.138445
    123          1           0       15.996899   -2.152852    0.088065
    124          1           0       16.353317    1.611712    0.968401
    125          1           0       16.323944   -0.138983    1.527551
    126          1           0       18.076026   -0.315821   -0.371656
    127          1           0       17.497081    1.230619   -1.218590
    128          1           0       18.151250    2.421187    1.194375
    129          1           0       18.848237    0.917747    1.755762
    130          1           0       20.545578    0.535975    0.240466
    131          1           0       19.823033    3.418074   -1.101595
    132          1           0       21.242368    2.546195   -1.248266
    133          1           0       19.783261    1.780005   -1.917215
    134          1           0       20.540959    1.818301    2.174813
    135          1           0       22.077312    2.204974    1.211018
    136          1           0       20.652699    3.522965    1.704359
    137          1           0       -7.012710    1.779032    0.356938
    138          1           0       -7.543306   -0.322085   -0.137514
 ---------------------------------------------------------------------

 SCF Done:  E(RB3LYP) =  -2732.91862993     A.U. after   17 cycles

 Excitation energies and oscillator strengths:

 Excited State   1:      Singlet-A      1.9822 eV  625.50 nm  f=0.1486  <S**2>=0.000
     235 -> 237       -0.18700
     235 -> 238       -0.28295
     236 -> 237        0.59793
     236 -> 238       -0.15369
 This state for optimization and/or second-order correction.
 Total Energy, E(TD-HF/TD-DFT) =  -2732.84578694
 Copying the excited state density for this state as the 1-particle RhoCI density.

 The electronic state is 1-A.
 Alpha  occ. eigenvalues --  -19.17628 -19.16406 -19.13997 -19.13982 -19.13154
 Alpha  occ. eigenvalues --  -14.35940 -14.35033 -14.32780 -14.29885 -10.31483
 Alpha  occ. eigenvalues --  -10.31144 -10.29069 -10.26723 -10.26028 -10.24150
 Alpha  occ. eigenvalues --  -10.23720 -10.23640 -10.23341 -10.22924 -10.22783
 Alpha  occ. eigenvalues --  -10.22627 -10.22162 -10.21830 -10.21588 -10.21511
 Alpha  occ. eigenvalues --  -10.21299 -10.21222 -10.21220 -10.21214 -10.21106
 Alpha  occ. eigenvalues --  -10.20977 -10.20739 -10.20631 -10.20516 -10.20510
 Alpha  occ. eigenvalues --  -10.20345 -10.19987 -10.19979 -10.19770 -10.19768
 Alpha  occ. eigenvalues --  -10.19717 -10.19689 -10.19615 -10.19575 -10.19519
 Alpha  occ. eigenvalues --  -10.19394 -10.19300 -10.19289 -10.19261 -10.19201
 Alpha  occ. eigenvalues --  -10.19179 -10.19144 -10.19129 -10.19054 -10.18977
 Alpha  occ. eigenvalues --  -10.18818 -10.18359 -10.18358 -10.18345 -10.18314
 Alpha  occ. eigenvalues --  -10.18059 -10.17789 -10.17258 -10.17258  -1.09950
 Alpha  occ. eigenvalues --   -1.09860  -1.05979  -1.02826  -1.00728  -0.96931
 Alpha  occ. eigenvalues --   -0.96548  -0.93727  -0.92333  -0.83475  -0.82949
 Alpha  occ. eigenvalues --   -0.82082  -0.82016  -0.81849  -0.81528  -0.80758
 Alpha  occ. eigenvalues --   -0.80303  -0.80019  -0.79495  -0.78974  -0.78067
 Alpha  occ. eigenvalues --   -0.76685  -0.75438  -0.75363  -0.74862  -0.74829
 Alpha  occ. eigenvalues --   -0.73018  -0.72986  -0.72204  -0.71291  -0.70956
 Alpha  occ. eigenvalues --   -0.69995  -0.69580  -0.68469  -0.68465  -0.67943
 Alpha  occ. eigenvalues --   -0.66847  -0.66811  -0.65869  -0.65814  -0.64565
 Alpha  occ. eigenvalues --   -0.64344  -0.63785  -0.62481  -0.61903  -0.60782
 Alpha  occ. eigenvalues --   -0.60194  -0.58823  -0.58047  -0.57173  -0.56508
 Alpha  occ. eigenvalues --   -0.55908  -0.55807  -0.55409  -0.54963  -0.54563
 Alpha  occ. eigenvalues --   -0.54381  -0.54301  -0.53261  -0.53217  -0.53027
 Alpha  occ. eigenvalues --   -0.52476  -0.52386  -0.51455  -0.51074  -0.50188
 Alpha  occ. eigenvalues --   -0.49633  -0.49173  -0.49033  -0.48685  -0.48323
 Alpha  occ. eigenvalues --   -0.48105  -0.47741  -0.47687  -0.47194  -0.47104
 Alpha  occ. eigenvalues --   -0.46789  -0.46623  -0.46191  -0.46067  -0.45755
 Alpha  occ. eigenvalues --   -0.45568  -0.45497  -0.45191  -0.45071  -0.44703
 Alpha  occ. eigenvalues --   -0.44381  -0.44205  -0.43954  -0.43908  -0.43627
 Alpha  occ. eigenvalues --   -0.43481  -0.43396  -0.42900  -0.42765  -0.42511
 Alpha  occ. eigenvalues --   -0.42430  -0.41972  -0.41928  -0.41886  -0.41611
 Alpha  occ. eigenvalues --   -0.41354  -0.41031  -0.40818  -0.40716  -0.40479
 Alpha  occ. eigenvalues --   -0.40316  -0.39944  -0.39617  -0.39381  -0.39366
 Alpha  occ. eigenvalues --   -0.39192  -0.38802  -0.38786  -0.38673  -0.38438
 Alpha  occ. eigenvalues --   -0.38107  -0.37884  -0.37661  -0.37642  -0.37380
 Alpha  occ. eigenvalues --   -0.37222  -0.37073  -0.37016  -0.36657  -0.36589
 Alpha  occ. eigenvalues --   -0.36359  -0.36142  -0.36123  -0.35539  -0.35407
 Alpha  occ. eigenvalues --   -0.35318  -0.35289  -0.35049  -0.34915  -0.34907
 Alpha  occ. eigenvalues --   -0.34551  -0.34489  -0.34176  -0.33918  -0.33658
 Alpha  occ. eigenvalues --   -0.33570  -0.33356  -0.33271  -0.32881  -0.32416
 Alpha  occ. eigenvalues --   -0.32110  -0.31925  -0.31573  -0.31154  -0.30925
 Alpha  occ. eigenvalues --   -0.30705  -0.30535  -0.29910  -0.29844  -0.29614
 Alpha  occ. eigenvalues --   -0.29509  -0.29127  -0.28694  -0.28673  -0.28468
 Alpha  occ. eigenvalues --   -0.28049  -0.27321  -0.26448  -0.26189  -0.25784
 Alpha  occ. eigenvalues --   -0.24895  -0.24015  -0.23385  -0.22572  -0.19831
 Alpha  occ. eigenvalues --   -0.18842
 Alpha virt. eigenvalues --   -0.10514  -0.07909  -0.04221  -0.02768  -0.02057
 Alpha virt. eigenvalues --   -0.00290   0.00308   0.00499   0.02217   0.03375
 Alpha virt. eigenvalues --    0.03659   0.03714   0.03849   0.04021   0.04465

 Mulliken charges:
               1
     1  C    0.109718
     2  C   -0.115346
     3  C   -0.024267
     4  C   -0.009870
     5  N   -0.181877
     6  C   -0.058852
     7  C   -0.003517
     8  C   -0.088214
     9  C    0.010782
    10  C    0.141244
    11  C    0.095090
    12  C   -0.021477
    13  C    0.181270
    14  O   -0.143606
    15  O   -0.383190
    16  N   -0.115482
    17  C    0.155716
    18  C   -0.178552
    19  C    0.105799
    20  C    0.029009
    21  C    0.181800
    22  C   -0.111118
    23  C   -0.094689
    24  N   -0.284716
    25  C    0.035961
    26  C   -0.127350
    27  C   -0.082915
    28  C    0.033543
    29  C    0.160072
    30  C    0.122764
    31  C    0.035032
    32  N   -0.000040
    33  C    0.082118
    34  C   -0.044552
    35  C   -0.061533
    36  C    0.079498
    37  C   -0.043645
    38  C    0.090437
    39  O   -0.111477
    40  C   -0.193202
    41  C    0.226099
    42  O   -0.169112
    43  O   -0.305321
    44  C    0.058055
    45  C    0.208517
    46  C   -0.085731
    47  C   -0.132705
    48  C    0.007986
    49  C    0.108602
    50  C   -0.011966
    51  C    0.029231
    52  C   -0.061488
    53  C   -0.012228
    54  C   -0.038487
    55  C    0.000570
    56  C    0.047965
    57  C   -0.047111
    58  C    0.003590
    59  C   -0.048795
    60  C   -0.005207
    61  C   -0.021419
    62  C   -0.133044
    63  C    0.083281
    64  C    0.045215
    65  H   -0.001884
    66  H    0.006406
    67  H   -0.051805
    68  H   -0.040300
    69  H    0.018499
    70  H   -0.021171
    71  H    0.013092
    72  H    0.007234
    73  H    0.021016
    74  H   -0.028014
    75  H    0.027868
    76  H    0.043895
    77  H    0.032881
    78  H    0.018039
    79  H   -0.018278
    80  H    0.024865
    81  H    0.066471
    82  H    0.045731
    83  H    0.038053
    84  H    0.022341
    85  H   -0.041349
    86  H   -0.056904
    87  H    0.000255
    88  H   -0.017197
    89  H    0.030945
    90  H    0.028174
    91  H    0.049514
    92  H    0.034487
    93  H    0.067091
    94  H    0.092027
    95  H    0.064992
    96  H    0.027483
    97  H    0.080223
    98  H    0.039134
    99  H    0.044786
   100  H    0.033865
   101  H    0.021746
   102  H    0.036625
   103  H   -0.009089
   104  H    0.002948
   105  H   -0.014159
   106  H    0.001714
   107  H    0.012583
   108  H    0.012015
   109  H   -0.009935
   110  H   -0.009279
   111  H    0.004877
   112  H    0.049736
   113  H    0.000436
   114  H    0.029475
   115  H    0.021690
   116  H    0.013127
   117  H    0.002072
   118  H   -0.045016
   119  H    0.012999
   120  H   -0.004267
   121  H    0.025471
   122  H    0.023599
   123  H   -0.000722
   124  H    0.004544
   125  H    0.000342
   126  H    0.003328
   127  H    0.009013
   128  H    0.002035
   129  H   -0.002121
   130  H    0.007487
   131  H   -0.002781
   132  H   -0.015146
   133  H    0.022919
   134  H   -0.028222
   135  H    0.037163
   136  H    0.007234
   137  H    0.125229
   138  H    0.031003
 Sum of Mulliken charges =  -0.00000

 Dipole moment (field-independent basis, Debye):
    X=              2.5196    Y=              3.6675    Z=             -0.6963  Tot=              4.5037
 Quadrupole moment (field-independent basis, Debye-Ang):
   XX=           -358.3345   YY=           -384.3602   ZZ=           -395.0025
   XY=            -20.8529   XZ=             10.9411   YZ=              4.3813

 Normal termination of Gaussian 16 at Tue Aug 13 05:56:24 2019.
