 Gaussian 16, Revision A.03,
 Gaussian 16:  ES64L-G16RevA.03 25-Dec-2016

 --------------------------
 # td=(NStates=1) B3LYP/SVP
 --------------------------

 --
 TD
 --
 Symbolic Z-matrix:
 Charge =  0 Multiplicity = 1

                         Standard orientation:
 ---------------------------------------------------------------------
 Center     Atomic      Atomic             Coordinates (Angstroms)
 Number     Number       Type             X           Y           Z
 ---------------------------------------------------------------------
      1          6           0       -5.160050   -1.872898    0.436383
      2          6           0       -4.637383    2.686913    1.415708
      3          6           0       -9.179403    3.412804   -0.218375
      4          6           0       -9.958191   -1.343510   -0.822702
      5          7           0       -5.131137    0.434055    0.739499
      6          6           0       -4.502452   -0.737063    0.785143
      7          6           0       -3.098774   -0.792254    1.228727
      8          6           0       -2.974128    0.694307    1.894137
      9          6           0       -4.330333    1.287298    1.346926
     10          6           0       -2.768100    0.820145    3.310753
     11          6           0       -2.055638   -0.996265    0.030422
     12          6           0       -0.513789   -0.913255    0.437378
     13          6           0        0.452140   -1.132056   -0.665680
     14          8           0       -0.001728   -1.368730   -1.777959
     15          8           0        1.677708   -0.923855   -0.298332
     16          7           0       -6.926074    2.762857    0.433812
     17          6           0       -5.818991    3.314242    0.967616
     18          6           0       -6.110421    4.693037    1.089801
     19          6           0       -7.367183    4.981586    0.512431
     20          6           0       -7.883050    3.695206    0.194497
     21          6           0       -5.142198    5.692437    1.657984
     22          6           0       -8.069360    6.311511    0.620560
     23          6           0       -8.916604    6.847905   -0.413535
     24          7           0       -9.194959    1.049705   -0.476996
     25          6           0       -9.822924    2.268223   -0.541311
     26          6           0      -11.145600    2.140055   -1.105009
     27          6           0      -11.366640    0.773055   -1.169193
     28          6           0      -10.165454    0.126790   -0.709371
     29          6           0      -12.064801    3.278833   -1.284283
     30          6           0      -12.693783    0.084661   -1.633204
     31          6           0      -12.486446   -0.560992   -3.046122
     32          7           0       -7.561703   -1.259593   -0.291192
     33          6           0       -8.650155   -2.007946   -0.666721
     34          6           0       -8.262849   -3.424393   -0.670846
     35          6           0       -6.930774   -3.378675   -0.247088
     36          6           0       -6.553562   -2.025691    0.030954
     37          6           0       -9.242399   -4.435506   -0.970150
     38          6           0       -5.803874   -4.317589   -0.129243
     39          8           0       -5.868171   -5.538015   -0.111081
     40          6           0       -4.613030   -3.300040    0.407309
     41          6           0       -4.159436   -3.955335    1.713836
     42          8           0       -4.463833   -3.544315    2.843177
     43          8           0       -3.290516   -4.897155    1.505601
     44          6           0       -2.870012   -5.616301    2.774125
     45          6           0        2.770674   -1.164300   -1.261279
     46          6           0        4.001430   -0.783137   -0.588783
     47          6           0        4.895725    0.071354   -1.085573
     48          6           0        4.964410    0.893720   -2.433056
     49          6           0        6.276812    0.266862   -0.272187
     50          6           0        7.482257   -0.370999   -0.856578
     51          6           0        8.808607   -0.342436   -0.009886
     52          6           0       10.047109   -0.738173   -0.734849
     53          6           0       10.083297   -2.177016   -1.253449
     54          6           0       11.336163   -0.449044    0.112554
     55          6           0       12.652384   -0.531324   -0.785182
     56          6           0       13.703185   -0.273029    0.259867
     57          6           0       15.205229   -0.186236   -0.419731
     58          6           0       15.716279   -1.503424   -0.675947
     59          6           0       16.208553    0.622409    0.401163
     60          6           0       17.638006    0.767140   -0.125913
     61          6           0       18.558202    1.633726    0.724417
     62          6           0       19.947719    1.719027    0.085319
     63          6           0       20.308219    2.542320   -1.189266
     64          6           0       20.913961    2.212082    1.282959
     65          1           0       -3.838259    3.283004    1.723454
     66          1           0       -9.880295    4.293155   -0.170653
     67          1           0      -11.055011   -1.907540   -1.398734
     68          1           0       -2.990102   -1.638163    2.009622
     69          1           0       -2.014866    1.176287    1.389273
     70          1           0       -1.753364    0.330063    3.741437
     71          1           0       -2.669869    1.867343    3.829123
     72          1           0       -3.686180    0.262802    3.659332
     73          1           0       -2.392522   -2.150210   -0.064305
     74          1           0       -2.244812   -0.447418   -0.773811
     75          1           0       -0.446845   -0.121040    1.260094
     76          1           0       -0.138787   -1.785068    1.239257
     77          1           0       -4.192840    5.720259    1.073759
     78          1           0       -5.481834    6.728376    2.221706
     79          1           0       -4.570591    5.258808    2.550087
     80          1           0       -8.103344    6.792134    1.572013
     81          1           0       -9.012572    6.226931   -1.413024
     82          1           0       -9.378357    7.877371   -0.092694
     83          1           0      -11.973779    3.923973   -0.434111
     84          1           0      -11.723243    3.910640   -1.999919
     85          1           0      -13.157879    2.862981   -1.499143
     86          1           0      -13.048969   -0.758932   -0.861867
     87          1           0      -13.563289    0.870307   -1.685950
     88          1           0      -12.590337    0.303376   -3.874197
     89          1           0      -11.359453   -1.033668   -3.110474
     90          1           0      -13.311889   -1.248186   -3.539446
     91          1           0      -10.095966   -4.510108   -0.205302
     92          1           0       -9.606978   -4.384276   -2.039961
     93          1           0       -8.639873   -5.287566   -0.865874
     94          1           0       -3.797393   -3.417410   -0.272675
     95          1           0       -2.061717   -6.331106    2.471979
     96          1           0       -2.746076   -4.816708    3.594730
     97          1           0       -3.656456   -6.362709    3.192778
     98          1           0        2.559147   -2.345353   -1.641674
     99          1           0        2.375477   -0.580822   -2.211863
    100          1           0        4.082311   -1.179574    0.433512
    101          1           0        5.304850    1.896677   -2.288211
    102          1           0        5.751708    0.340198   -3.109884
    103          1           0        3.879254    0.941191   -2.808808
    104          1           0        6.643231    1.137062    0.135819
    105          1           0        6.009675   -0.135549    0.723175
    106          1           0        7.511776   -1.459689   -1.112736
    107          1           0        7.699761    0.211338   -1.825266
    108          1           0        8.816696    0.672811    0.452546
    109          1           0        8.686904   -1.089672    0.822249
    110          1           0       10.199289   -0.045566   -1.642125
    111          1           0        9.230612   -2.403183   -1.852551
    112          1           0       10.942129   -2.462735   -1.933175
    113          1           0        9.854254   -2.942526   -0.373102
    114          1           0       11.437092    0.568039    0.578561
    115          1           0       11.430537   -1.472306    0.975986
    116          1           0       12.857306   -1.426438   -1.531476
    117          1           0       12.571845    0.394757   -1.652423
    118          1           0       13.589924    0.841092    0.860237
    119          1           0       13.718855   -1.126091    1.082220
    120          1           0       15.386421    0.320612   -1.422178
    121          1           0       15.058017   -2.129877   -1.259345
    122          1           0       16.572128   -1.784610   -1.266289
    123          1           0       15.741659   -2.072128    0.329143
    124          1           0       15.671048    1.691796    0.556695
    125          1           0       16.014601    0.116544    1.392477
    126          1           0       18.124271   -0.236335   -0.278621
    127          1           0       17.501004    1.358757   -1.098926
    128          1           0       18.131258    2.655362    0.954340
    129          1           0       18.579872    1.022142    1.645453
    130          1           0       20.152918    0.403734    0.346775
    131          1           0       20.012034    3.599776   -1.116985
    132          1           0       21.521389    2.591117   -1.344288
    133          1           0       19.783280    2.176974   -1.862390
    134          1           0       20.623829    1.590000    2.156250
    135          1           0       22.013702    2.085768    1.098635
    136          1           0       20.894464    3.438811    1.461266
    137          1           0       -6.782277    1.801632    0.163946
    138          1           0       -7.614510   -0.236597   -0.309337
 ---------------------------------------------------------------------

 SCF Done:  E(RB3LYP) =  -2732.96964258     A.U. after   18 cycles

 Excitation energies and oscillator strengths:

 Excited State   1:      Singlet-A      2.0446 eV  606.39 nm  f=0.1720  <S**2>=0.000
     235 -> 237       -0.22643
     235 -> 238        0.23574
     236 -> 237        0.60205
     236 -> 238        0.15708
 This state for optimization and/or second-order correction.
 Total Energy, E(TD-HF/TD-DFT) =  -2732.89450429
 Copying the excited state density for this state as the 1-particle RhoCI density.

 The electronic state is 1-A.
 Alpha  occ. eigenvalues --  -19.18750 -19.18440 -19.13095 -19.11564 -19.11131
 Alpha  occ. eigenvalues --  -14.37451 -14.36529 -14.32540 -14.29414 -10.31403
 Alpha  occ. eigenvalues --  -10.31142 -10.28477 -10.27410 -10.26246 -10.23797
 Alpha  occ. eigenvalues --  -10.23678 -10.23523 -10.23461 -10.23176 -10.23033
 Alpha  occ. eigenvalues --  -10.22413 -10.22248 -10.22182 -10.21685 -10.21639
 Alpha  occ. eigenvalues --  -10.21618 -10.21595 -10.21480 -10.21477 -10.21331
 Alpha  occ. eigenvalues --  -10.21271 -10.21270 -10.21216 -10.21124 -10.21023
 Alpha  occ. eigenvalues --  -10.20952 -10.20864 -10.20849 -10.20444 -10.20249
 Alpha  occ. eigenvalues --  -10.20229 -10.20169 -10.20145 -10.20140 -10.20021
 Alpha  occ. eigenvalues --  -10.19959 -10.19421 -10.19342 -10.19179 -10.19171
 Alpha  occ. eigenvalues --  -10.19080 -10.19063 -10.18966 -10.18923 -10.18912
 Alpha  occ. eigenvalues --  -10.18883 -10.18765 -10.18634 -10.18621 -10.18566
 Alpha  occ. eigenvalues --  -10.18520 -10.18500 -10.18186 -10.16936  -1.10392
 Alpha  occ. eigenvalues --   -1.09797  -1.02653  -1.00336  -0.99870  -0.99350
 Alpha  occ. eigenvalues --   -0.98439  -0.96306  -0.93254  -0.84025  -0.82820
 Alpha  occ. eigenvalues --   -0.81895  -0.81365  -0.81212  -0.81038  -0.80424
 Alpha  occ. eigenvalues --   -0.80203  -0.79535  -0.78722  -0.78278  -0.77879
 Alpha  occ. eigenvalues --   -0.76486  -0.75650  -0.75285  -0.74701  -0.73915
 Alpha  occ. eigenvalues --   -0.73354  -0.72930  -0.72420  -0.72253  -0.70736
 Alpha  occ. eigenvalues --   -0.70073  -0.68830  -0.68559  -0.68442  -0.68106
 Alpha  occ. eigenvalues --   -0.67658  -0.66695  -0.66292  -0.65614  -0.65090
 Alpha  occ. eigenvalues --   -0.63311  -0.62710  -0.62236  -0.61558  -0.60685
 Alpha  occ. eigenvalues --   -0.59736  -0.58590  -0.57958  -0.57554  -0.57143
 Alpha  occ. eigenvalues --   -0.55832  -0.55747  -0.55591  -0.55118  -0.55030
 Alpha  occ. eigenvalues --   -0.54584  -0.54341  -0.54318  -0.54002  -0.53017
 Alpha  occ. eigenvalues --   -0.52364  -0.51985  -0.51148  -0.51068  -0.50704
 Alpha  occ. eigenvalues --   -0.49956  -0.49196  -0.48596  -0.48405  -0.48261
 Alpha  occ. eigenvalues --   -0.48146  -0.47517  -0.47357  -0.47277  -0.46798
 Alpha  occ. eigenvalues --   -0.46662  -0.46359  -0.46015  -0.45750  -0.45576
 Alpha  occ. eigenvalues --   -0.45493  -0.45139  -0.45030  -0.44799  -0.44329
 Alpha  occ. eigenvalues --   -0.44246  -0.43897  -0.43827  -0.43661  -0.43485
 Alpha  occ. eigenvalues --   -0.43304  -0.43000  -0.42667  -0.42505  -0.42391
 Alpha  occ. eigenvalues --   -0.42092  -0.41790  -0.41387  -0.41213  -0.40886
 Alpha  occ. eigenvalues --   -0.40834  -0.40785  -0.40595  -0.40533  -0.40287
 Alpha  occ. eigenvalues --   -0.40241  -0.40101  -0.39576  -0.39540  -0.39344
 Alpha  occ. eigenvalues --   -0.39172  -0.39087  -0.38861  -0.38537  -0.38437
 Alpha  occ. eigenvalues --   -0.38083  -0.37923  -0.37600  -0.37573  -0.37408
 Alpha  occ. eigenvalues --   -0.37304  -0.37159  -0.36852  -0.36759  -0.36648
 Alpha  occ. eigenvalues --   -0.36630  -0.36145  -0.35935  -0.35736  -0.35588
 Alpha  occ. eigenvalues --   -0.35420  -0.35352  -0.35312  -0.35198  -0.35010
 Alpha  occ. eigenvalues --   -0.34560  -0.34378  -0.34255  -0.33614  -0.33192
 Alpha  occ. eigenvalues --   -0.33138  -0.32815  -0.32628  -0.31949  -0.31856
 Alpha  occ. eigenvalues --   -0.31793  -0.31338  -0.31226  -0.30773  -0.30627
 Alpha  occ. eigenvalues --   -0.30588  -0.30407  -0.30376  -0.29667  -0.29073
 Alpha  occ. eigenvalues --   -0.28893  -0.28255  -0.28177  -0.27763  -0.27613
 Alpha  occ. eigenvalues --   -0.27489  -0.26882  -0.26641  -0.26324  -0.26280
 Alpha  occ. eigenvalues --   -0.26162  -0.24850  -0.24041  -0.22174  -0.19903
 Alpha  occ. eigenvalues --   -0.18723
 Alpha virt. eigenvalues --   -0.10473  -0.07507  -0.04645  -0.02764  -0.01550
 Alpha virt. eigenvalues --   -0.00327   0.00298   0.00917   0.01989   0.02613
 Alpha virt. eigenvalues --    0.02970   0.03444   0.03663   0.03915   0.04211

 Mulliken charges:
               1
     1  C    0.056230
     2  C   -0.053759
     3  C   -0.105216
     4  C   -0.116599
     5  N   -0.128368
     6  C   -0.087301
     7  C   -0.097288
     8  C   -0.036902
     9  C   -0.019207
    10  C   -0.003653
    11  C    0.111491
    12  C   -0.066720
    13  C    0.210022
    14  O   -0.256702
    15  O   -0.285165
    16  N    0.005951
    17  C    0.087700
    18  C   -0.128925
    19  C    0.019118
    20  C    0.108748
    21  C    0.048518
    22  C   -0.060713
    23  C   -0.079931
    24  N   -0.251692
    25  C    0.051328
    26  C   -0.143078
    27  C   -0.106332
    28  C    0.046506
    29  C    0.182576
    30  C    0.006429
    31  C   -0.103880
    32  N    0.031604
    33  C    0.018524
    34  C   -0.126649
    35  C   -0.046754
    36  C    0.059490
    37  C    0.103514
    38  C    0.095252
    39  O   -0.176171
    40  C   -0.073855
    41  C    0.199147
    42  O   -0.275964
    43  O   -0.276712
    44  C    0.126498
    45  C    0.146442
    46  C   -0.020121
    47  C   -0.120611
    48  C    0.049219
    49  C    0.117206
    50  C   -0.019877
    51  C    0.025262
    52  C   -0.043625
    53  C    0.017727
    54  C   -0.030337
    55  C   -0.062062
    56  C   -0.032435
    57  C   -0.041978
    58  C    0.044497
    59  C   -0.013697
    60  C    0.025412
    61  C    0.034259
    62  C   -0.189218
    63  C    0.145890
    64  C   -0.021815
    65  H   -0.058576
    66  H   -0.020798
    67  H    0.074241
    68  H    0.036273
    69  H    0.014774
    70  H    0.025649
    71  H    0.031981
    72  H    0.036694
    73  H    0.037535
    74  H   -0.011766
    75  H    0.035185
    76  H    0.033080
    77  H    0.020050
    78  H    0.050776
    79  H    0.002979
    80  H    0.016910
    81  H    0.067264
    82  H    0.054917
    83  H    0.009456
    84  H   -0.025435
    85  H    0.030586
    86  H    0.036435
    87  H    0.021213
    88  H    0.021108
    89  H    0.057691
    90  H    0.031201
    91  H    0.052390
    92  H    0.040089
    93  H    0.009638
    94  H    0.043821
    95  H    0.048374
    96  H    0.077077
    97  H    0.053179
    98  H    0.056691
    99  H    0.051819
   100  H    0.013594
   101  H    0.023460
   102  H    0.061561
   103  H    0.030076
   104  H   -0.035173
   105  H   -0.031899
   106  H    0.002270
   107  H   -0.002003
   108  H   -0.010986
   109  H   -0.003281
   110  H   -0.009269
   111  H   -0.006936
   112  H    0.025117
   113  H    0.012857
   114  H    0.019814
   115  H    0.016819
   116  H    0.040879
   117  H    0.016480
   118  H    0.030254
   119  H    0.032223
   120  H   -0.021203
   121  H   -0.031750
   122  H    0.002378
   123  H   -0.014420
   124  H   -0.000297
   125  H   -0.016475
   126  H    0.013261
   127  H   -0.001489
   128  H   -0.001399
   129  H   -0.003012
   130  H    0.008953
   131  H    0.012132
   132  H    0.042474
   133  H   -0.052158
   134  H    0.011528
   135  H    0.009861
   136  H    0.010065
   137  H    0.133541
   138  H    0.138401
 Sum of Mulliken charges =  -0.00000

 Dipole moment (field-independent basis, Debye):
    X=              3.8303    Y=              3.5255    Z=              0.1315  Tot=              5.2075
 Quadrupole moment (field-independent basis, Debye-Ang):
   XX=           -374.2421   YY=           -381.7226   ZZ=           -397.4040
   XY=            -22.1364   XZ=             -3.5702   YZ=             -1.4599

 Normal termination of Gaussian 16 at Sat Aug 17 11:39:17 2019.
