 Gaussian 16, Revision A.03,
 Gaussian 16:  ES64L-G16RevA.03 25-Dec-2016

 --------------------------
 # td=(NStates=1) B3LYP/SVP
 --------------------------

 --
 TD
 --
 Symbolic Z-matrix:
 Charge =  0 Multiplicity = 1

                         Standard orientation:
 ---------------------------------------------------------------------
 Center     Atomic      Atomic             Coordinates (Angstroms)
 Number     Number       Type             X           Y           Z
 ---------------------------------------------------------------------
      1          6           0       -5.093134   -1.908401    0.456562
      2          6           0       -4.869088    2.784577    1.181270
      3          6           0       -9.599481    3.287752   -0.155796
      4          6           0       -9.778758   -1.613826   -0.922922
      5          7           0       -5.175742    0.471949    0.656838
      6          6           0       -4.456071   -0.642107    0.735248
      7          6           0       -3.069005   -0.484592    1.081500
      8          6           0       -3.099020    1.000057    1.741906
      9          6           0       -4.456670    1.468469    1.143611
     10          6           0       -3.016729    1.164372    3.333494
     11          6           0       -2.012906   -0.698548   -0.016739
     12          6           0       -0.603354   -0.633105    0.514450
     13          6           0        0.519184   -0.923482   -0.621088
     14          8           0        0.331391   -1.551395   -1.582021
     15          8           0        1.690702   -0.573997   -0.269769
     16          7           0       -7.189772    2.794871    0.419311
     17          6           0       -6.075860    3.424824    0.904483
     18          6           0       -6.491526    4.834216    0.914749
     19          6           0       -7.777403    4.977342    0.353182
     20          6           0       -8.269154    3.662592    0.240559
     21          6           0       -5.577013    5.964441    1.361681
     22          6           0       -8.392820    6.277388    0.260795
     23          6           0       -9.425977    6.602798   -0.692189
     24          7           0       -9.240104    0.796256   -0.481894
     25          6           0      -10.039567    1.863830   -0.375290
     26          6           0      -11.417379    1.659076   -0.786953
     27          6           0      -11.477883    0.284341   -1.153186
     28          6           0      -10.028019   -0.229069   -1.026942
     29          6           0      -12.525138    2.715868   -0.807699
     30          6           0      -12.708493   -0.543074   -1.497577
     31          6           0      -12.769352   -0.986280   -2.937991
     32          7           0       -7.442816   -1.336648   -0.153160
     33          6           0       -8.485196   -2.186854   -0.523726
     34          6           0       -8.057374   -3.525322   -0.725186
     35          6           0       -6.746995   -3.444353   -0.171236
     36          6           0       -6.341681   -2.104899    0.107354
     37          6           0       -8.916229   -4.685493   -1.030300
     38          6           0       -5.553336   -4.282505    0.037175
     39          8           0       -5.463102   -5.521850   -0.090441
     40          6           0       -4.413981   -3.274050    0.477618
     41          6           0       -3.762241   -3.718100    1.806709
     42          8           0       -4.093766   -3.312945    2.912493
     43          8           0       -2.883487   -4.674726    1.524316
     44          6           0       -2.378327   -5.370501    2.614396
     45          6           0        2.768531   -0.808983   -1.210746
     46          6           0        4.000537   -0.422872   -0.480303
     47          6           0        5.030946    0.221949   -1.058639
     48          6           0        4.968113    0.843746   -2.563417
     49          6           0        6.276307    0.444935   -0.368610
     50          6           0        7.471075   -0.255017   -0.986213
     51          6           0        8.687299   -0.231434   -0.074218
     52          6           0       10.091611   -0.715979   -0.719488
     53          6           0       10.041107   -2.251399   -0.838025
     54          6           0       11.300379   -0.158145    0.006249
     55          6           0       12.753813   -0.517695   -0.535769
     56          6           0       13.889168    0.173266    0.216550
     57          6           0       15.241227   -0.224588   -0.257585
     58          6           0       15.690573   -1.763947   -0.087809
     59          6           0       16.325993    0.651360    0.466213
     60          6           0       17.715894    0.646065   -0.237636
     61          6           0       18.719623    1.507453    0.559380
     62          6           0       20.206528    1.483912    0.081865
     63          6           0       20.402471    1.791385   -1.385824
     64          6           0       20.965685    2.462556    1.094034
     65          1           0       -4.039019    3.389746    1.573830
     66          1           0      -10.376874    4.052243   -0.154006
     67          1           0      -10.581666   -2.308192   -1.158418
     68          1           0       -2.742767   -1.205149    1.938014
     69          1           0       -2.332910    1.571346    1.076925
     70          1           0       -2.103285    0.830495    3.639244
     71          1           0       -3.328213    2.139904    3.561306
     72          1           0       -3.649320    0.360029    3.958817
     73          1           0       -2.217083   -1.607651   -0.496369
     74          1           0       -2.204774   -0.047678   -0.763130
     75          1           0       -0.333005    0.218746    1.125036
     76          1           0       -0.324497   -1.315217    1.340172
     77          1           0       -4.988450    6.313424    0.487960
     78          1           0       -6.314424    6.913017    1.310214
     79          1           0       -4.684160    5.786850    2.360209
     80          1           0       -8.130468    7.111382    1.104339
     81          1           0       -9.895132    5.897659   -1.355720
     82          1           0       -9.986430    7.642182   -0.720400
     83          1           0      -12.797851    2.978597    0.292081
     84          1           0      -12.211067    3.583974   -1.621125
     85          1           0      -13.436891    2.258563   -1.210159
     86          1           0      -12.729966   -1.443413   -0.621644
     87          1           0      -13.708333   -0.170763   -1.166180
     88          1           0      -12.947409    0.073446   -3.492620
     89          1           0      -11.678150   -1.405484   -3.394767
     90          1           0      -13.707494   -1.573312   -3.015702
     91          1           0       -9.649695   -4.563672   -0.242111
     92          1           0       -9.424422   -4.665098   -2.041147
     93          1           0       -8.454776   -5.760497   -1.111778
     94          1           0       -3.549786   -3.309500   -0.225376
     95          1           0       -1.696237   -6.152243    2.268181
     96          1           0       -1.861450   -4.767955    3.275464
     97          1           0       -3.224252   -5.937354    3.289296
     98          1           0        2.888975   -1.863664   -1.692473
     99          1           0        2.590307   -0.012598   -2.151705
    100          1           0        4.231168   -0.928761    0.378759
    101          1           0        5.096932    1.907654   -2.595209
    102          1           0        5.866804    0.648558   -3.493354
    103          1           0        3.971684    0.795788   -3.057438
    104          1           0        6.633225    1.465872   -0.299285
    105          1           0        6.227343    0.243889    0.692093
    106          1           0        7.354969   -1.264956   -1.105740
    107          1           0        7.464093    0.374080   -2.017893
    108          1           0        8.882610    0.828888   -0.022808
    109          1           0        8.548915   -0.601421    0.933153
    110          1           0       10.117659   -0.325654   -1.587444
    111          1           0        9.162578   -2.249016   -1.399774
    112          1           0       10.918759   -2.535242   -1.404634
    113          1           0        9.922516   -2.692568    0.329046
    114          1           0       11.062623    1.007895    0.048898
    115          1           0       11.272210   -0.546550    1.014427
    116          1           0       12.691565   -1.737565   -0.317785
    117          1           0       12.834476   -0.307474   -1.621881
    118          1           0       13.874035    1.326578    0.111944
    119          1           0       13.909228   -0.119046    1.277297
    120          1           0       15.188689    0.110801   -1.416819
    121          1           0       14.952816   -2.289336   -0.458116
    122          1           0       16.599648   -2.029570   -0.442648
    123          1           0       15.702372   -2.046562    0.876283
    124          1           0       15.717745    1.610221    0.426164
    125          1           0       16.491256    0.342534    1.535193
    126          1           0       18.120509   -0.358535   -0.367846
    127          1           0       17.706225    0.871102   -1.384649
    128          1           0       18.322519    2.539468    0.381225
    129          1           0       18.689205    1.312144    1.730644
    130          1           0       20.491807    0.520953    0.258401
    131          1           0       19.785272    2.707531   -1.516008
    132          1           0       21.464108    2.110787   -1.634600
    133          1           0       20.124818    1.087494   -2.062904
    134          1           0       21.025789    2.113025    2.024047
    135          1           0       22.116748    2.716479    0.962862
    136          1           0       20.484801    3.373764    1.231112
    137          1           0       -7.231660    1.740512    0.173856
    138          1           0       -7.565378   -0.305320    0.159304
 ---------------------------------------------------------------------

 SCF Done:  E(RB3LYP) =  -2733.03204843     A.U. after   16 cycles

 Excitation energies and oscillator strengths:

 Excited State   1:      Singlet-A      2.0015 eV  619.47 nm  f=0.1931  <S**2>=0.000
     235 -> 237       -0.17526
     235 -> 238        0.28174
     236 -> 237        0.60666
     236 -> 238        0.14033
 This state for optimization and/or second-order correction.
 Total Energy, E(TD-HF/TD-DFT) =  -2732.95849647
 Copying the excited state density for this state as the 1-particle RhoCI density.

 The electronic state is 1-A.
 Alpha  occ. eigenvalues --  -19.18925 -19.18325 -19.12531 -19.11459 -19.11371
 Alpha  occ. eigenvalues --  -14.37004 -14.36607 -14.32165 -14.30470 -10.31841
 Alpha  occ. eigenvalues --  -10.30814 -10.27319 -10.26902 -10.24615 -10.24197
 Alpha  occ. eigenvalues --  -10.24054 -10.23589 -10.22969 -10.22825 -10.22531
 Alpha  occ. eigenvalues --  -10.22504 -10.22113 -10.22009 -10.21853 -10.21686
 Alpha  occ. eigenvalues --  -10.21615 -10.21440 -10.21426 -10.21394 -10.21217
 Alpha  occ. eigenvalues --  -10.21154 -10.21009 -10.20872 -10.20854 -10.20837
 Alpha  occ. eigenvalues --  -10.20737 -10.20613 -10.20546 -10.20545 -10.20424
 Alpha  occ. eigenvalues --  -10.20258 -10.19656 -10.19556 -10.19526 -10.19440
 Alpha  occ. eigenvalues --  -10.19289 -10.18861 -10.18795 -10.18795 -10.18785
 Alpha  occ. eigenvalues --  -10.18768 -10.18754 -10.18705 -10.18666 -10.18659
 Alpha  occ. eigenvalues --  -10.18535 -10.18463 -10.18363 -10.18359 -10.18119
 Alpha  occ. eigenvalues --  -10.17394 -10.17149 -10.16829 -10.15036  -1.12928
 Alpha  occ. eigenvalues --   -1.10999  -1.02138  -1.00849  -0.99860  -0.97670
 Alpha  occ. eigenvalues --   -0.97391  -0.95950  -0.92319  -0.84974  -0.83579
 Alpha  occ. eigenvalues --   -0.81838  -0.81745  -0.81316  -0.80799  -0.80595
 Alpha  occ. eigenvalues --   -0.79635  -0.79594  -0.78452  -0.77988  -0.77870
 Alpha  occ. eigenvalues --   -0.76469  -0.75563  -0.75104  -0.74637  -0.73699
 Alpha  occ. eigenvalues --   -0.73289  -0.72879  -0.72306  -0.71785  -0.70574
 Alpha  occ. eigenvalues --   -0.69612  -0.68873  -0.68843  -0.68593  -0.68254
 Alpha  occ. eigenvalues --   -0.68028  -0.66841  -0.66638  -0.65948  -0.65467
 Alpha  occ. eigenvalues --   -0.64084  -0.63676  -0.62295  -0.62026  -0.60944
 Alpha  occ. eigenvalues --   -0.60105  -0.59411  -0.58144  -0.57910  -0.57484
 Alpha  occ. eigenvalues --   -0.57313  -0.56393  -0.56327  -0.55901  -0.55515
 Alpha  occ. eigenvalues --   -0.55060  -0.54383  -0.54170  -0.53984  -0.53133
 Alpha  occ. eigenvalues --   -0.52455  -0.51838  -0.51672  -0.50576  -0.50435
 Alpha  occ. eigenvalues --   -0.50022  -0.49341  -0.49040  -0.48494  -0.48131
 Alpha  occ. eigenvalues --   -0.47778  -0.47702  -0.47578  -0.47534  -0.46847
 Alpha  occ. eigenvalues --   -0.46697  -0.46368  -0.46340  -0.45712  -0.45543
 Alpha  occ. eigenvalues --   -0.45396  -0.45141  -0.45101  -0.44772  -0.44460
 Alpha  occ. eigenvalues --   -0.44245  -0.44100  -0.43982  -0.43750  -0.43339
 Alpha  occ. eigenvalues --   -0.43020  -0.42832  -0.42666  -0.42582  -0.42380
 Alpha  occ. eigenvalues --   -0.42213  -0.41794  -0.41437  -0.41330  -0.41259
 Alpha  occ. eigenvalues --   -0.40820  -0.40778  -0.40723  -0.40628  -0.40063
 Alpha  occ. eigenvalues --   -0.39927  -0.39796  -0.39285  -0.39233  -0.39187
 Alpha  occ. eigenvalues --   -0.39003  -0.38949  -0.38839  -0.38762  -0.38689
 Alpha  occ. eigenvalues --   -0.38417  -0.38227  -0.37987  -0.37781  -0.37642
 Alpha  occ. eigenvalues --   -0.37622  -0.37294  -0.37077  -0.36900  -0.36799
 Alpha  occ. eigenvalues --   -0.36648  -0.36556  -0.36217  -0.36121  -0.36113
 Alpha  occ. eigenvalues --   -0.35604  -0.35426  -0.35323  -0.35171  -0.34990
 Alpha  occ. eigenvalues --   -0.34786  -0.34663  -0.34471  -0.34134  -0.33964
 Alpha  occ. eigenvalues --   -0.33730  -0.33671  -0.32988  -0.32671  -0.32585
 Alpha  occ. eigenvalues --   -0.31881  -0.31837  -0.31806  -0.31625  -0.31201
 Alpha  occ. eigenvalues --   -0.31021  -0.30715  -0.30622  -0.30590  -0.30066
 Alpha  occ. eigenvalues --   -0.29969  -0.29143  -0.28509  -0.28207  -0.28044
 Alpha  occ. eigenvalues --   -0.27478  -0.27318  -0.26714  -0.25889  -0.25616
 Alpha  occ. eigenvalues --   -0.25069  -0.24150  -0.23306  -0.22311  -0.19963
 Alpha  occ. eigenvalues --   -0.18455
 Alpha virt. eigenvalues --   -0.10230  -0.08064  -0.04728  -0.02956  -0.01297
 Alpha virt. eigenvalues --   -0.00606   0.00506   0.01294   0.02010   0.02784
 Alpha virt. eigenvalues --    0.03275   0.03711   0.04269   0.04339   0.04880

 Mulliken charges:
               1
     1  C    0.023037
     2  C   -0.042338
     3  C   -0.085818
     4  C   -0.053413
     5  N   -0.120959
     6  C   -0.057477
     7  C   -0.130487
     8  C   -0.065170
     9  C   -0.089186
    10  C    0.123336
    11  C    0.215601
    12  C    0.022323
    13  C    0.115611
    14  O   -0.200748
    15  O   -0.245345
    16  N   -0.125800
    17  C    0.154721
    18  C   -0.146570
    19  C    0.066192
    20  C    0.123135
    21  C    0.022363
    22  C   -0.123907
    23  C   -0.074590
    24  N   -0.258429
    25  C    0.048438
    26  C   -0.157062
    27  C   -0.096127
    28  C    0.093138
    29  C    0.052059
    30  C   -0.027466
    31  C   -0.036256
    32  N   -0.084138
    33  C    0.058670
    34  C   -0.110305
    35  C   -0.011710
    36  C    0.088727
    37  C    0.046291
    38  C    0.088027
    39  O   -0.206308
    40  C   -0.066680
    41  C    0.192202
    42  O   -0.235815
    43  O   -0.253815
    44  C    0.179299
    45  C    0.180738
    46  C   -0.044373
    47  C   -0.060154
    48  C   -0.021986
    49  C    0.103570
    50  C    0.006344
    51  C    0.004915
    52  C    0.000986
    53  C    0.049697
    54  C    0.022179
    55  C   -0.028277
    56  C    0.053802
    57  C   -0.160852
    58  C    0.205070
    59  C    0.035197
    60  C    0.031303
    61  C   -0.050264
    62  C   -0.027251
    63  C    0.064703
    64  C    0.077005
    65  H   -0.034371
    66  H   -0.003200
    67  H   -0.008494
    68  H    0.021569
    69  H    0.017963
    70  H   -0.007211
    71  H    0.014031
    72  H    0.039778
    73  H   -0.015562
    74  H   -0.038593
    75  H   -0.005679
    76  H    0.012537
    77  H    0.028639
    78  H    0.005796
    79  H    0.071005
    80  H    0.070773
    81  H    0.033255
    82  H    0.046564
    83  H    0.048603
    84  H    0.055535
    85  H    0.004574
    86  H    0.015250
    87  H    0.006105
    88  H    0.029104
    89  H    0.058507
    90  H    0.027637
    91  H    0.045849
    92  H    0.028968
    93  H    0.061803
    94  H    0.056967
    95  H    0.029575
    96  H    0.002950
    97  H    0.043489
    98  H    0.071733
    99  H    0.051229
   100  H   -0.033679
   101  H    0.008960
   102  H    0.051141
   103  H    0.006741
   104  H   -0.012591
   105  H   -0.028522
   106  H   -0.022057
   107  H    0.021972
   108  H   -0.029333
   109  H   -0.001860
   110  H   -0.083899
   111  H   -0.010120
   112  H    0.016667
   113  H    0.027216
   114  H   -0.002464
   115  H   -0.019585
   116  H    0.034017
   117  H    0.001021
   118  H    0.014015
   119  H   -0.013118
   120  H   -0.006195
   121  H   -0.055164
   122  H   -0.018956
   123  H   -0.043589
   124  H   -0.008177
   125  H    0.003054
   126  H   -0.021711
   127  H    0.000469
   128  H   -0.000869
   129  H    0.014647
   130  H   -0.033979
   131  H   -0.002970
   132  H    0.011270
   133  H   -0.006725
   134  H   -0.039236
   135  H    0.003498
   136  H   -0.018046
   137  H    0.177740
   138  H    0.184140
 Sum of Mulliken charges =  -0.00000

 Dipole moment (field-independent basis, Debye):
    X=              2.2277    Y=              3.9658    Z=              0.8667  Tot=              4.6305
 Quadrupole moment (field-independent basis, Debye-Ang):
   XX=           -351.6283   YY=           -391.4741   ZZ=           -394.9526
   XY=            -26.4269   XZ=              8.5005   YZ=             -3.6433

 Normal termination of Gaussian 16 at Tue Aug 27 04:39:18 2019.
