 Gaussian 16, Revision A.03,
 Gaussian 16:  ES64L-G16RevA.03 25-Dec-2016

 --------------------------
 # td=(NStates=1) B3LYP/SVP
 --------------------------

 --
 TD
 --
 Symbolic Z-matrix:
 Charge =  0 Multiplicity = 1

                         Standard orientation:
 ---------------------------------------------------------------------
 Center     Atomic      Atomic             Coordinates (Angstroms)
 Number     Number       Type             X           Y           Z
 ---------------------------------------------------------------------
      1          6           0       -5.127105   -2.005614    0.355334
      2          6           0       -4.640591    2.793417    1.300747
      3          6           0       -9.257899    3.412606   -0.157668
      4          6           0       -9.914114   -1.306547   -0.913175
      5          7           0       -5.176085    0.368018    0.849881
      6          6           0       -4.519763   -0.798171    0.775664
      7          6           0       -3.107328   -0.588069    1.246752
      8          6           0       -3.081797    0.786554    1.857335
      9          6           0       -4.392166    1.374818    1.261968
     10          6           0       -2.991273    0.751755    3.476614
     11          6           0       -2.032554   -0.840830    0.068980
     12          6           0       -0.559146   -0.888211    0.580083
     13          6           0        0.354412   -1.178959   -0.440109
     14          8           0        0.144523   -1.647959   -1.500769
     15          8           0        1.718551   -0.779547   -0.089220
     16          7           0       -6.973405    2.790326    0.557048
     17          6           0       -5.816053    3.406325    0.880291
     18          6           0       -6.072365    4.745441    1.006010
     19          6           0       -7.347069    5.021554    0.437417
     20          6           0       -7.950299    3.714638    0.229009
     21          6           0       -5.207786    5.661805    1.624346
     22          6           0       -7.845166    6.365210    0.294773
     23          6           0       -8.875310    6.776345   -0.407748
     24          7           0       -9.070139    0.972549   -0.478725
     25          6           0       -9.880002    2.209743   -0.455710
     26          6           0      -11.198384    2.041208   -0.990382
     27          6           0      -11.423660    0.728141   -1.098573
     28          6           0      -10.045380    0.023564   -0.849686
     29          6           0      -12.237405    3.079752   -0.983562
     30          6           0      -12.527545   -0.000532   -1.589095
     31          6           0      -12.587568   -0.108917   -3.205586
     32          7           0       -7.609151   -1.201783   -0.283107
     33          6           0       -8.623642   -1.930197   -0.724705
     34          6           0       -8.337397   -3.334199   -0.659973
     35          6           0       -6.949199   -3.373994   -0.377864
     36          6           0       -6.507017   -2.016023   -0.113531
     37          6           0       -9.078326   -4.515598   -1.067373
     38          6           0       -5.857755   -4.338561   -0.088055
     39          8           0       -5.818672   -5.505241   -0.103109
     40          6           0       -4.566383   -3.411205    0.321617
     41          6           0       -3.953187   -3.965670    1.634434
     42          8           0       -4.381398   -3.582528    2.715260
     43          8           0       -3.211005   -4.939493    1.444167
     44          6           0       -2.778990   -5.606153    2.659760
     45          6           0        2.624895   -1.122504   -1.159430
     46          6           0        3.991225   -0.749445   -0.570400
     47          6           0        4.889236   -0.078627   -1.111440
     48          6           0        4.971705    0.542138   -2.538620
     49          6           0        6.301602    0.193335   -0.374955
     50          6           0        7.478119   -0.476253   -0.927530
     51          6           0        8.821650   -0.241161   -0.154252
     52          6           0       10.168504   -0.934203   -0.702744
     53          6           0       10.075832   -2.621671   -0.813365
     54          6           0       11.279778   -0.420600    0.136598
     55          6           0       12.677760   -0.741774   -0.572664
     56          6           0       13.791906   -0.028375    0.177341
     57          6           0       15.204489   -0.103902   -0.337397
     58          6           0       15.636041   -1.552928   -0.362873
     59          6           0       16.184191    0.731609    0.511257
     60          6           0       17.611966    0.860343   -0.124637
     61          6           0       18.601046    1.753744    0.544216
     62          6           0       20.037531    1.814284    0.125401
     63          6           0       20.179304    2.186532   -1.366076
     64          6           0       20.933776    2.635594    1.065732
     65          1           0       -3.910292    3.447297    1.681353
     66          1           0       -9.781509    4.271268   -0.057048
     67          1           0      -10.775093   -2.034886   -1.291241
     68          1           0       -2.784810   -1.268521    2.007127
     69          1           0       -2.294948    1.374065    1.521544
     70          1           0       -1.981781    0.105760    3.908488
     71          1           0       -3.040564    1.848131    3.785105
     72          1           0       -3.900880    0.281379    3.806207
     73          1           0       -2.171188   -1.722917   -0.375785
     74          1           0       -2.085271   -0.030015   -0.873581
     75          1           0       -0.149701   -0.045837    1.115538
     76          1           0       -0.736415   -1.681733    1.259645
     77          1           0       -4.167174    5.821518    0.975490
     78          1           0       -5.771465    6.675046    2.002085
     79          1           0       -5.035173    5.192887    2.647852
     80          1           0       -7.188603    7.090882    0.832522
     81          1           0       -9.478758    6.167902   -1.097169
     82          1           0       -9.070273    7.882965   -0.720483
     83          1           0      -12.185813    3.574932    0.048400
     84          1           0      -11.877983    3.881194   -1.547302
     85          1           0      -13.301283    2.874625   -1.129747
     86          1           0      -12.544898   -1.074887   -1.347624
     87          1           0      -13.623848    0.495980   -1.165690
     88          1           0      -12.455491    1.015143   -3.686994
     89          1           0      -11.770183   -0.770856   -3.651072
     90          1           0      -13.482701   -0.569138   -3.318779
     91          1           0       -9.771041   -4.795004   -0.151993
     92          1           0       -9.777376   -4.423289   -2.026516
     93          1           0       -8.427537   -5.459758   -1.095257
     94          1           0       -3.873248   -3.421395   -0.378360
     95          1           0       -2.062936   -6.508145    2.416401
     96          1           0       -2.336000   -4.757253    3.310955
     97          1           0       -3.709988   -5.936204    3.112652
     98          1           0        2.447817   -2.149795   -1.380741
     99          1           0        2.475186   -0.442263   -2.037737
    100          1           0        4.162980   -1.369064    0.418276
    101          1           0        5.368872    1.567290   -2.666229
    102          1           0        5.579573    0.063625   -3.157096
    103          1           0        4.035017    0.774685   -2.981038
    104          1           0        6.429686    1.199764   -0.279151
    105          1           0        6.115255   -0.186877    0.598006
    106          1           0        7.364609   -1.603542   -1.113978
    107          1           0        7.426393    0.203460   -1.945930
    108          1           0        8.961140    0.818589    0.179433
    109          1           0        8.637949   -0.829711    0.693118
    110          1           0       10.273799   -0.605532   -1.738631
    111          1           0        9.327024   -2.952915   -1.500842
    112          1           0       10.957630   -3.088349   -1.402979
    113          1           0        9.816400   -2.951245    0.346136
    114          1           0       11.221003    0.688982    0.210552
    115          1           0       11.365467   -0.683103    1.282393
    116          1           0       12.791149   -1.769763   -0.682010
    117          1           0       12.335887   -0.332506   -1.605164
    118          1           0       13.525322    1.061308    0.396502
    119          1           0       13.826062   -0.346903    1.111331
    120          1           0       15.155271    0.255561   -1.388046
    121          1           0       15.025270   -1.928072   -1.096138
    122          1           0       16.679638   -1.573848   -0.897877
    123          1           0       15.704272   -2.053136    0.547324
    124          1           0       15.950458    1.792664    0.455138
    125          1           0       16.205654    0.610840    1.586461
    126          1           0       18.101508    0.008119   -0.369713
    127          1           0       17.194122    1.273341   -1.171136
    128          1           0       18.266690    2.820892    0.499786
    129          1           0       18.522513    1.546620    1.684841
    130          1           0       20.395439    0.766107    0.258757
    131          1           0       19.737526    3.306921   -1.576695
    132          1           0       21.030587    2.230968   -1.889969
    133          1           0       19.397275    1.518876   -2.055552
    134          1           0       21.019264    2.259034    2.158730
    135          1           0       22.033519    2.437871    0.688428
    136          1           0       20.565679    3.609651    0.892896
    137          1           0       -7.143521    1.866824    0.392868
    138          1           0       -7.727754   -0.171496   -0.222364
 ---------------------------------------------------------------------

 SCF Done:  E(RB3LYP) =  -2733.05637294     A.U. after   16 cycles

 Excitation energies and oscillator strengths:

 Excited State   1:      Singlet-A      1.9746 eV  627.91 nm  f=0.2088  <S**2>=0.000
     235 -> 238        0.28732
     236 -> 237        0.64539
 This state for optimization and/or second-order correction.
 Total Energy, E(TD-HF/TD-DFT) =  -2732.98380946
 Copying the excited state density for this state as the 1-particle RhoCI density.

 The electronic state is 1-A.
 Alpha  occ. eigenvalues --  -19.19716 -19.15431 -19.13365 -19.13130 -19.10793
 Alpha  occ. eigenvalues --  -14.36832 -14.35991 -14.31988 -14.31308 -10.30972
 Alpha  occ. eigenvalues --  -10.30870 -10.28321 -10.26672 -10.23722 -10.23574
 Alpha  occ. eigenvalues --  -10.23276 -10.23125 -10.23093 -10.22760 -10.22572
 Alpha  occ. eigenvalues --  -10.22369 -10.21868 -10.21632 -10.21191 -10.21014
 Alpha  occ. eigenvalues --  -10.20915 -10.20877 -10.20777 -10.20648 -10.20395
 Alpha  occ. eigenvalues --  -10.20361 -10.20352 -10.20222 -10.20009 -10.19975
 Alpha  occ. eigenvalues --  -10.19883 -10.19839 -10.19716 -10.19557 -10.19556
 Alpha  occ. eigenvalues --  -10.19371 -10.19343 -10.19215 -10.19092 -10.19054
 Alpha  occ. eigenvalues --  -10.19005 -10.18939 -10.18910 -10.18853 -10.18747
 Alpha  occ. eigenvalues --  -10.18719 -10.18705 -10.18674 -10.18280 -10.18263
 Alpha  occ. eigenvalues --  -10.18026 -10.17998 -10.17910 -10.17652 -10.17582
 Alpha  occ. eigenvalues --  -10.17575 -10.17006 -10.16653 -10.16500  -1.13907
 Alpha  occ. eigenvalues --   -1.08491  -1.05908  -0.99787  -0.99758  -0.99014
 Alpha  occ. eigenvalues --   -0.98889  -0.94733  -0.91033  -0.84020  -0.83114
 Alpha  occ. eigenvalues --   -0.82254  -0.82101  -0.81576  -0.81405  -0.80666
 Alpha  occ. eigenvalues --   -0.80525  -0.79973  -0.79390  -0.79137  -0.77713
 Alpha  occ. eigenvalues --   -0.76734  -0.76327  -0.76274  -0.75148  -0.74634
 Alpha  occ. eigenvalues --   -0.74218  -0.72828  -0.72048  -0.71179  -0.70903
 Alpha  occ. eigenvalues --   -0.70134  -0.69359  -0.68879  -0.68297  -0.67532
 Alpha  occ. eigenvalues --   -0.67235  -0.66879  -0.66470  -0.65998  -0.65585
 Alpha  occ. eigenvalues --   -0.64407  -0.63069  -0.62809  -0.62253  -0.61540
 Alpha  occ. eigenvalues --   -0.61286  -0.58639  -0.58184  -0.57806  -0.57452
 Alpha  occ. eigenvalues --   -0.56773  -0.56516  -0.56157  -0.55610  -0.55135
 Alpha  occ. eigenvalues --   -0.55033  -0.54671  -0.54504  -0.53925  -0.53324
 Alpha  occ. eigenvalues --   -0.52647  -0.52086  -0.51764  -0.50971  -0.50656
 Alpha  occ. eigenvalues --   -0.50449  -0.49990  -0.49967  -0.49216  -0.48350
 Alpha  occ. eigenvalues --   -0.48077  -0.47956  -0.47853  -0.47676  -0.47340
 Alpha  occ. eigenvalues --   -0.47007  -0.46572  -0.46278  -0.46114  -0.46034
 Alpha  occ. eigenvalues --   -0.45720  -0.45364  -0.44937  -0.44862  -0.44468
 Alpha  occ. eigenvalues --   -0.44359  -0.44171  -0.43914  -0.43868  -0.43760
 Alpha  occ. eigenvalues --   -0.43496  -0.43341  -0.42873  -0.42675  -0.42486
 Alpha  occ. eigenvalues --   -0.42404  -0.42106  -0.41897  -0.41743  -0.41451
 Alpha  occ. eigenvalues --   -0.41426  -0.41195  -0.40938  -0.40749  -0.40557
 Alpha  occ. eigenvalues --   -0.40461  -0.40238  -0.39918  -0.39828  -0.39599
 Alpha  occ. eigenvalues --   -0.39489  -0.39452  -0.39397  -0.39157  -0.38577
 Alpha  occ. eigenvalues --   -0.38449  -0.38265  -0.38101  -0.37950  -0.37793
 Alpha  occ. eigenvalues --   -0.37536  -0.37186  -0.37111  -0.36919  -0.36422
 Alpha  occ. eigenvalues --   -0.36299  -0.36139  -0.35883  -0.35756  -0.35590
 Alpha  occ. eigenvalues --   -0.35341  -0.35187  -0.35025  -0.34968  -0.34745
 Alpha  occ. eigenvalues --   -0.34368  -0.34030  -0.34018  -0.33930  -0.33855
 Alpha  occ. eigenvalues --   -0.33675  -0.33539  -0.33089  -0.32893  -0.32784
 Alpha  occ. eigenvalues --   -0.32482  -0.32260  -0.31988  -0.31151  -0.31057
 Alpha  occ. eigenvalues --   -0.30607  -0.30475  -0.30336  -0.30023  -0.29393
 Alpha  occ. eigenvalues --   -0.29256  -0.28989  -0.28665  -0.27972  -0.27947
 Alpha  occ. eigenvalues --   -0.27594  -0.27145  -0.26590  -0.26260  -0.25969
 Alpha  occ. eigenvalues --   -0.25492  -0.25159  -0.23417  -0.23024  -0.19612
 Alpha  occ. eigenvalues --   -0.18799
 Alpha virt. eigenvalues --   -0.10645  -0.07280  -0.04186  -0.01627  -0.00744
 Alpha virt. eigenvalues --    0.00322   0.01125   0.02129   0.02990   0.03529
 Alpha virt. eigenvalues --    0.03695   0.04284   0.04460   0.04711   0.04848

 Mulliken charges:
               1
     1  C   -0.035711
     2  C   -0.067977
     3  C   -0.043393
     4  C   -0.127365
     5  N   -0.131101
     6  C   -0.034218
     7  C    0.003115
     8  C   -0.002330
     9  C   -0.022299
    10  C    0.011380
    11  C    0.009399
    12  C    0.107181
    13  C    0.164454
    14  O   -0.189533
    15  O   -0.401091
    16  N    0.017305
    17  C    0.138889
    18  C   -0.141205
    19  C    0.057552
    20  C    0.035686
    21  C   -0.002087
    22  C   -0.010809
    23  C   -0.083771
    24  N   -0.363409
    25  C    0.139758
    26  C   -0.125343
    27  C   -0.008148
    28  C    0.126669
    29  C    0.134629
    30  C   -0.049434
    31  C   -0.005270
    32  N   -0.012414
    33  C    0.019742
    34  C   -0.112825
    35  C   -0.055875
    36  C    0.091830
    37  C    0.007616
    38  C    0.076503
    39  O   -0.114948
    40  C    0.065575
    41  C    0.119190
    42  O   -0.271786
    43  O   -0.201757
    44  C    0.144559
    45  C    0.297237
    46  C   -0.123381
    47  C   -0.098445
    48  C    0.126654
    49  C    0.130563
    50  C   -0.030569
    51  C    0.049711
    52  C   -0.048289
    53  C   -0.043003
    54  C   -0.022374
    55  C    0.045271
    56  C    0.102619
    57  C   -0.057258
    58  C    0.092428
    59  C    0.051899
    60  C    0.023292
    61  C    0.018673
    62  C   -0.058639
    63  C   -0.007131
    64  C    0.012222
    65  H   -0.044146
    66  H   -0.073871
    67  H    0.021862
    68  H   -0.018760
    69  H   -0.034861
    70  H    0.047109
    71  H    0.021558
    72  H    0.029230
    73  H   -0.024641
    74  H    0.029063
    75  H    0.030974
    76  H    0.016913
    77  H    0.067266
    78  H    0.041885
    79  H    0.038108
    80  H   -0.007547
    81  H    0.023588
    82  H    0.033212
    83  H    0.019275
    84  H   -0.010984
    85  H    0.021629
    86  H    0.007642
    87  H    0.025550
    88  H    0.040716
    89  H    0.029584
    90  H    0.000973
    91  H    0.034851
    92  H    0.051155
    93  H    0.049880
    94  H   -0.013711
    95  H    0.067195
    96  H    0.053779
    97  H    0.045682
    98  H    0.010051
    99  H    0.009790
   100  H    0.010792
   101  H   -0.009176
   102  H   -0.003362
   103  H   -0.011070
   104  H   -0.024875
   105  H   -0.044169
   106  H    0.017669
   107  H   -0.007239
   108  H    0.002759
   109  H   -0.026600
   110  H   -0.005792
   111  H    0.008742
   112  H    0.028236
   113  H    0.044722
   114  H   -0.005078
   115  H    0.002710
   116  H   -0.009739
   117  H   -0.004693
   118  H   -0.023215
   119  H   -0.066779
   120  H   -0.017786
   121  H   -0.019674
   122  H    0.000182
   123  H   -0.001175
   124  H   -0.022592
   125  H   -0.019809
   126  H   -0.029514
   127  H    0.002131
   128  H   -0.022537
   129  H   -0.005767
   130  H   -0.012440
   131  H    0.001468
   132  H   -0.015202
   133  H    0.024478
   134  H    0.026351
   135  H    0.019140
   136  H    0.007242
   137  H    0.088772
   138  H    0.164479
 Sum of Mulliken charges =  -0.00000

 Dipole moment (field-independent basis, Debye):
    X=              0.4230    Y=              2.2545    Z=              0.5510  Tot=              2.3591
 Quadrupole moment (field-independent basis, Debye-Ang):
   XX=           -357.8697   YY=           -376.7190   ZZ=           -393.7347
   XY=            -20.7866   XZ=             12.2680   YZ=             -2.8236

 Normal termination of Gaussian 16 at Sat Aug 17 04:07:55 2019.
