 Gaussian 16, Revision A.03,
 Gaussian 16:  ES64L-G16RevA.03 25-Dec-2016

 --------------------------
 # td=(NStates=1) B3LYP/SVP
 --------------------------

 --
 TD
 --
 Symbolic Z-matrix:
 Charge =  0 Multiplicity = 1

                         Standard orientation:
 ---------------------------------------------------------------------
 Center     Atomic      Atomic             Coordinates (Angstroms)
 Number     Number       Type             X           Y           Z
 ---------------------------------------------------------------------
      1          6           0       -5.192145   -1.786461    0.502217
      2          6           0       -4.786682    2.689450    1.550262
      3          6           0       -9.234935    3.372937   -0.199371
      4          6           0       -9.880788   -1.370404   -0.977625
      5          7           0       -5.184331    0.401134    0.787898
      6          6           0       -4.498584   -0.690601    0.908751
      7          6           0       -3.079081   -0.674710    1.251465
      8          6           0       -3.027172    0.848395    1.795053
      9          6           0       -4.280263    1.431277    1.338588
     10          6           0       -2.930500    0.916310    3.349891
     11          6           0       -2.086336   -1.009142    0.180187
     12          6           0       -0.677191   -0.980318    0.744606
     13          6           0        0.298389   -1.130716   -0.399644
     14          8           0       -0.032370   -1.268601   -1.531673
     15          8           0        1.669552   -1.080354    0.022522
     16          7           0       -6.941408    2.723984    0.534159
     17          6           0       -5.923285    3.348928    1.080867
     18          6           0       -6.212603    4.731342    1.235573
     19          6           0       -7.440906    5.056347    0.711988
     20          6           0       -8.006637    3.738818    0.290210
     21          6           0       -5.093415    5.823020    1.611341
     22          6           0       -8.026677    6.323100    0.368217
     23          6           0       -8.990001    6.777624   -0.571327
     24          7           0       -9.198774    0.969228   -0.542724
     25          6           0       -9.768399    2.120960   -0.646447
     26          6           0      -11.147565    1.981587   -1.146591
     27          6           0      -11.317113    0.706112   -1.427100
     28          6           0      -10.050533    0.059225   -0.964977
     29          6           0      -12.008910    3.147641   -1.388304
     30          6           0      -12.560584   -0.015000   -1.875422
     31          6           0      -12.550605   -0.391071   -3.324204
     32          7           0       -7.565730   -1.214052   -0.274710
     33          6           0       -8.686324   -2.030477   -0.689407
     34          6           0       -8.259258   -3.424945   -0.734739
     35          6           0       -6.961986   -3.385044   -0.228270
     36          6           0       -6.471443   -2.038791    0.126920
     37          6           0       -9.105474   -4.559117   -1.151183
     38          6           0       -5.756020   -4.224543   -0.137482
     39          8           0       -5.748985   -5.448010   -0.255599
     40          6           0       -4.539530   -3.256181    0.468205
     41          6           0       -4.077713   -3.875784    1.792415
     42          8           0       -4.292198   -3.444081    2.887103
     43          8           0       -3.225693   -4.924323    1.576232
     44          6           0       -2.676482   -5.560665    2.761005
     45          6           0        2.679562   -1.240121   -0.926809
     46          6           0        3.991534   -0.876955   -0.337477
     47          6           0        4.970116   -0.063706   -0.840247
     48          6           0        4.805268    0.758021   -2.041609
     49          6           0        6.214827    0.000455   -0.146185
     50          6           0        7.391805   -0.607366   -0.891209
     51          6           0        8.735243   -0.347296   -0.229496
     52          6           0       10.070178   -0.807747   -0.876163
     53          6           0       10.092414   -2.321825   -0.981104
     54          6           0       11.257305   -0.323352    0.018107
     55          6           0       12.692750   -0.539875   -0.683851
     56          6           0       13.810246    0.059027    0.059865
     57          6           0       15.210818   -0.104323   -0.620530
     58          6           0       15.604328   -1.588366   -0.668062
     59          6           0       16.198519    0.646838    0.302135
     60          6           0       17.745663    0.775722   -0.220775
     61          6           0       18.566322    1.674258    0.489888
     62          6           0       20.135452    1.776750    0.093860
     63          6           0       20.284488    2.364945   -1.310137
     64          6           0       20.968475    2.529377    1.070208
     65          1           0       -4.001172    3.452443    2.029102
     66          1           0       -9.825947    4.264969   -0.459704
     67          1           0      -10.705210   -2.078264   -1.254800
     68          1           0       -2.913674   -1.491651    1.867236
     69          1           0       -2.116941    1.453758    1.476169
     70          1           0       -1.982187    0.668073    3.803683
     71          1           0       -2.910818    1.869781    3.755049
     72          1           0       -3.945666    0.521938    3.796070
     73          1           0       -2.279525   -1.964669   -0.238852
     74          1           0       -2.102028   -0.147471   -0.479460
     75          1           0       -0.529485    0.055470    1.129404
     76          1           0       -0.608839   -1.948060    1.497151
     77          1           0       -3.976864    5.230532    1.401673
     78          1           0       -5.418988    6.756728    1.146978
     79          1           0       -5.023263    5.810197    2.875291
     80          1           0       -7.826129    7.026691    1.059510
     81          1           0       -9.547321    6.266029   -1.288976
     82          1           0       -9.207234    7.898842   -0.438863
     83          1           0      -12.145246    4.044701   -0.553120
     84          1           0      -11.668907    3.679951   -2.322073
     85          1           0      -13.123911    2.707196   -1.542078
     86          1           0      -12.609319   -1.049140   -1.224382
     87          1           0      -13.454368    0.508256   -1.669476
     88          1           0      -12.653199    0.514078   -4.077615
     89          1           0      -11.730775   -1.215226   -3.699295
     90          1           0      -13.594144   -0.865508   -3.484911
     91          1           0       -9.916477   -5.002743   -0.384893
     92          1           0       -9.329747   -4.279962   -2.251203
     93          1           0       -8.621811   -5.644246   -1.024139
     94          1           0       -3.674167   -3.391645   -0.268608
     95          1           0       -1.679501   -6.083186    2.371361
     96          1           0       -2.303238   -4.677730    3.611102
     97          1           0       -3.264815   -6.320846    3.294719
     98          1           0        2.731439   -2.239446   -1.152053
     99          1           0        2.095150   -0.611989   -1.886355
    100          1           0        4.357087   -1.442011    0.544243
    101          1           0        5.001316    1.775520   -1.900549
    102          1           0        5.459923    0.290494   -2.891533
    103          1           0        3.810299    0.566673   -2.535286
    104          1           0        6.560372    1.141862   -0.054304
    105          1           0        6.036511   -0.307213    0.868744
    106          1           0        7.247152   -1.643548   -1.219910
    107          1           0        7.482837   -0.157978   -1.816511
    108          1           0        8.922379    0.781496   -0.101209
    109          1           0        8.625836   -0.601462    0.984270
    110          1           0       10.134251   -0.341217   -1.875153
    111          1           0        9.344208   -2.865150   -1.564517
    112          1           0       11.007202   -2.404947   -1.501704
    113          1           0       10.054805   -3.018685   -0.072770
    114          1           0       11.115400    0.634810    0.115659
    115          1           0       11.258303   -0.747800    1.088360
    116          1           0       12.663978   -1.684737   -1.114229
    117          1           0       12.619986   -0.035114   -1.706927
    118          1           0       13.497980    1.197762    0.266573
    119          1           0       13.818370   -0.351539    1.086293
    120          1           0       15.233574    0.244967   -1.605928
    121          1           0       14.951713   -2.217674   -1.202599
    122          1           0       16.664725   -1.596635   -1.035799
    123          1           0       15.710788   -2.133594    0.314841
    124          1           0       15.937309    1.737600    0.462078
    125          1           0       16.205189   -0.039211    1.249904
    126          1           0       18.097473   -0.504421   -0.123490
    127          1           0       17.786866    0.941315   -1.232826
    128          1           0       18.217208    2.726446    0.368911
    129          1           0       18.342987    1.429276    1.583652
    130          1           0       20.492778    0.724810    0.216261
    131          1           0       19.800216    3.328577   -1.411864
    132          1           0       21.367648    2.310789   -1.777897
    133          1           0       19.783715    1.729210   -2.114943
    134          1           0       20.826796    1.929857    2.027874
    135          1           0       22.087014    2.549841    0.979525
    136          1           0       20.534756    3.558282    1.150380
    137          1           0       -6.903086    1.631125    0.524836
    138          1           0       -7.533680   -0.296115   -0.303579
 ---------------------------------------------------------------------

 SCF Done:  E(RB3LYP) =  -2733.03524776     A.U. after   17 cycles

 Excitation energies and oscillator strengths:

 Excited State   1:      Singlet-A      2.0072 eV  617.70 nm  f=0.2359  <S**2>=0.000
     235 -> 237       -0.12373
     235 -> 238       -0.26224
     236 -> 237        0.63498
     236 -> 238       -0.10365
 This state for optimization and/or second-order correction.
 Total Energy, E(TD-HF/TD-DFT) =  -2732.96148454
 Copying the excited state density for this state as the 1-particle RhoCI density.

 The electronic state is 1-A.
 Alpha  occ. eigenvalues --  -19.17831 -19.16158 -19.14129 -19.12537 -19.12168
 Alpha  occ. eigenvalues --  -14.37305 -14.35218 -14.32900 -14.29402 -10.32204
 Alpha  occ. eigenvalues --  -10.31608 -10.27975 -10.26553 -10.24545 -10.24246
 Alpha  occ. eigenvalues --  -10.23778 -10.23716 -10.23657 -10.23462 -10.23420
 Alpha  occ. eigenvalues --  -10.22456 -10.22406 -10.22347 -10.22344 -10.22337
 Alpha  occ. eigenvalues --  -10.21915 -10.21508 -10.21401 -10.21364 -10.21220
 Alpha  occ. eigenvalues --  -10.21006 -10.20810 -10.20682 -10.20625 -10.20203
 Alpha  occ. eigenvalues --  -10.20160 -10.20157 -10.20077 -10.19846 -10.19700
 Alpha  occ. eigenvalues --  -10.19645 -10.19567 -10.19553 -10.19481 -10.19406
 Alpha  occ. eigenvalues --  -10.19399 -10.19396 -10.19338 -10.19197 -10.19064
 Alpha  occ. eigenvalues --  -10.18972 -10.18880 -10.18805 -10.18730 -10.18724
 Alpha  occ. eigenvalues --  -10.18494 -10.18471 -10.18090 -10.17982 -10.17868
 Alpha  occ. eigenvalues --  -10.17553 -10.17456 -10.17368 -10.17200  -1.09025
 Alpha  occ. eigenvalues --   -1.08861  -1.01758  -1.01534  -1.00598  -0.97576
 Alpha  occ. eigenvalues --   -0.96300  -0.95732  -0.94682  -0.83715  -0.83480
 Alpha  occ. eigenvalues --   -0.83077  -0.82246  -0.81818  -0.81004  -0.80890
 Alpha  occ. eigenvalues --   -0.79989  -0.79850  -0.79779  -0.79285  -0.77543
 Alpha  occ. eigenvalues --   -0.76604  -0.75882  -0.75270  -0.75038  -0.74742
 Alpha  occ. eigenvalues --   -0.73774  -0.72890  -0.72724  -0.72196  -0.70996
 Alpha  occ. eigenvalues --   -0.69745  -0.68452  -0.68121  -0.67888  -0.67376
 Alpha  occ. eigenvalues --   -0.67198  -0.66614  -0.66305  -0.65940  -0.65365
 Alpha  occ. eigenvalues --   -0.64753  -0.63911  -0.62642  -0.60951  -0.60824
 Alpha  occ. eigenvalues --   -0.60327  -0.59298  -0.58888  -0.58703  -0.56723
 Alpha  occ. eigenvalues --   -0.56448  -0.56096  -0.55911  -0.55360  -0.55302
 Alpha  occ. eigenvalues --   -0.54820  -0.54768  -0.54422  -0.54024  -0.53304
 Alpha  occ. eigenvalues --   -0.52120  -0.51886  -0.51818  -0.51456  -0.51008
 Alpha  occ. eigenvalues --   -0.49776  -0.49146  -0.48870  -0.48772  -0.48063
 Alpha  occ. eigenvalues --   -0.47801  -0.47767  -0.47554  -0.47383  -0.47145
 Alpha  occ. eigenvalues --   -0.46980  -0.46570  -0.46447  -0.46252  -0.45921
 Alpha  occ. eigenvalues --   -0.45754  -0.45409  -0.45168  -0.44896  -0.44567
 Alpha  occ. eigenvalues --   -0.44472  -0.44321  -0.44130  -0.43854  -0.43659
 Alpha  occ. eigenvalues --   -0.43273  -0.43106  -0.42870  -0.42758  -0.42599
 Alpha  occ. eigenvalues --   -0.42216  -0.42033  -0.41815  -0.41550  -0.41373
 Alpha  occ. eigenvalues --   -0.41181  -0.40738  -0.40670  -0.40422  -0.40268
 Alpha  occ. eigenvalues --   -0.40146  -0.39929  -0.39717  -0.39453  -0.39211
 Alpha  occ. eigenvalues --   -0.39133  -0.39019  -0.38898  -0.38674  -0.38490
 Alpha  occ. eigenvalues --   -0.38031  -0.37972  -0.37751  -0.37609  -0.37242
 Alpha  occ. eigenvalues --   -0.37206  -0.37110  -0.36932  -0.36826  -0.36518
 Alpha  occ. eigenvalues --   -0.36406  -0.36236  -0.36197  -0.35753  -0.35722
 Alpha  occ. eigenvalues --   -0.35685  -0.35481  -0.34996  -0.34887  -0.34704
 Alpha  occ. eigenvalues --   -0.34584  -0.34224  -0.34084  -0.33911  -0.33460
 Alpha  occ. eigenvalues --   -0.33178  -0.32969  -0.32961  -0.32696  -0.32500
 Alpha  occ. eigenvalues --   -0.32216  -0.32204  -0.31977  -0.31798  -0.31620
 Alpha  occ. eigenvalues --   -0.30949  -0.30628  -0.30518  -0.30468  -0.30118
 Alpha  occ. eigenvalues --   -0.29684  -0.29213  -0.28968  -0.28340  -0.28276
 Alpha  occ. eigenvalues --   -0.27723  -0.27279  -0.26641  -0.26234  -0.25594
 Alpha  occ. eigenvalues --   -0.24286  -0.24265  -0.24185  -0.23456  -0.20482
 Alpha  occ. eigenvalues --   -0.18519
 Alpha virt. eigenvalues --   -0.10305  -0.08209  -0.04858  -0.03013  -0.00928
 Alpha virt. eigenvalues --   -0.00307  -0.00043   0.00154   0.01920   0.02895
 Alpha virt. eigenvalues --    0.03295   0.03881   0.04026   0.04638   0.04731

 Mulliken charges:
               1
     1  C    0.092527
     2  C   -0.096403
     3  C   -0.058099
     4  C   -0.093629
     5  N   -0.232263
     6  C   -0.095635
     7  C    0.125301
     8  C   -0.048824
     9  C    0.049819
    10  C    0.081291
    11  C    0.079631
    12  C   -0.004454
    13  C    0.192728
    14  O   -0.194657
    15  O   -0.362848
    16  N   -0.115467
    17  C    0.072678
    18  C   -0.121552
    19  C    0.106459
    20  C    0.061880
    21  C   -0.023407
    22  C   -0.038270
    23  C   -0.033387
    24  N   -0.096297
    25  C    0.006992
    26  C   -0.107774
    27  C   -0.053660
    28  C    0.039841
    29  C   -0.012846
    30  C    0.052876
    31  C   -0.062313
    32  N   -0.082070
    33  C    0.070553
    34  C   -0.064866
    35  C    0.011967
    36  C    0.089975
    37  C   -0.022750
    38  C    0.075602
    39  O   -0.185457
    40  C   -0.156068
    41  C    0.231856
    42  O   -0.207191
    43  O   -0.310506
    44  C    0.094626
    45  C    0.256625
    46  C   -0.073555
    47  C   -0.186672
    48  C    0.109335
    49  C    0.073461
    50  C    0.123026
    51  C   -0.057929
    52  C   -0.046314
    53  C    0.053500
    54  C    0.084586
    55  C   -0.044203
    56  C    0.044553
    57  C   -0.009379
    58  C    0.021779
    59  C   -0.021186
    60  C    0.004049
    61  C    0.022713
    62  C   -0.071949
    63  C    0.000496
    64  C    0.029463
    65  H   -0.006938
    66  H   -0.038871
    67  H   -0.006212
    68  H   -0.048619
    69  H    0.012163
    70  H    0.005201
    71  H   -0.023776
    72  H    0.045134
    73  H    0.005555
    74  H   -0.003108
    75  H    0.037306
    76  H    0.067663
    77  H    0.060764
    78  H    0.047434
    79  H    0.049885
    80  H   -0.018972
    81  H    0.020192
    82  H    0.042050
    83  H    0.045156
    84  H    0.036932
    85  H    0.023706
    86  H    0.021559
    87  H   -0.012398
    88  H    0.027624
    89  H    0.044024
    90  H    0.009187
    91  H    0.060570
    92  H    0.064243
    93  H    0.047250
    94  H    0.072185
    95  H    0.048192
    96  H    0.055421
    97  H    0.055217
    98  H   -0.015158
    99  H    0.055234
   100  H   -0.008672
   101  H    0.013590
   102  H    0.024322
   103  H   -0.005096
   104  H   -0.002307
   105  H   -0.009833
   106  H   -0.012214
   107  H   -0.041580
   108  H   -0.013214
   109  H   -0.002456
   110  H   -0.006211
   111  H   -0.006599
   112  H   -0.022964
   113  H    0.013783
   114  H   -0.064004
   115  H    0.008278
   116  H    0.025232
   117  H   -0.014780
   118  H    0.005456
   119  H   -0.010211
   120  H   -0.024976
   121  H    0.000786
   122  H    0.011653
   123  H   -0.001124
   124  H    0.006799
   125  H    0.019189
   126  H   -0.001695
   127  H   -0.028834
   128  H   -0.010275
   129  H   -0.001213
   130  H   -0.007619
   131  H    0.007831
   132  H    0.022301
   133  H    0.006638
   134  H    0.004201
   135  H    0.019724
   136  H    0.005266
   137  H    0.194141
   138  H    0.052581
 Sum of Mulliken charges =  -0.00000

 Dipole moment (field-independent basis, Debye):
    X=              2.0485    Y=              4.0268    Z=              0.3378  Tot=              4.5305
 Quadrupole moment (field-independent basis, Debye-Ang):
   XX=           -364.3252   YY=           -380.0974   ZZ=           -397.0003
   XY=            -19.8321   XZ=              2.7093   YZ=             -2.1837

 Normal termination of Gaussian 16 at Sun Aug 18 22:53:57 2019.
