 Gaussian 16, Revision A.03,
 Gaussian 16:  ES64L-G16RevA.03 25-Dec-2016

 --------------------------
 # td=(NStates=1) B3LYP/SVP
 --------------------------

 --
 TD
 --
 Symbolic Z-matrix:
 Charge =  0 Multiplicity = 1

                         Standard orientation:
 ---------------------------------------------------------------------
 Center     Atomic      Atomic             Coordinates (Angstroms)
 Number     Number       Type             X           Y           Z
 ---------------------------------------------------------------------
      1          6           0       -5.173081   -1.921476    0.462177
      2          6           0       -4.564759    2.725751    1.339275
      3          6           0       -9.128016    3.362337   -0.234417
      4          6           0       -9.931876   -1.285716   -0.861280
      5          7           0       -5.093957    0.468394    0.814193
      6          6           0       -4.467899   -0.759333    0.802145
      7          6           0       -3.001364   -0.580137    1.146021
      8          6           0       -2.861695    0.856501    1.719910
      9          6           0       -4.247865    1.380174    1.188069
     10          6           0       -2.844968    0.835041    3.288533
     11          6           0       -1.996656   -0.788560   -0.004174
     12          6           0       -0.556155   -0.760720    0.422095
     13          6           0        0.410936   -1.167257   -0.687151
     14          8           0        0.101215   -1.681782   -1.742063
     15          8           0        1.708732   -0.981489   -0.355720
     16          7           0       -6.822790    2.897723    0.517715
     17          6           0       -5.722954    3.523980    1.018846
     18          6           0       -6.074563    4.914888    1.035559
     19          6           0       -7.361492    5.103025    0.441246
     20          6           0       -7.886788    3.683740    0.149577
     21          6           0       -5.035659    5.929470    1.345151
     22          6           0       -8.003870    6.363540    0.369270
     23          6           0       -8.912130    6.684443   -0.647521
     24          7           0       -9.148145    0.956533   -0.580284
     25          6           0       -9.754590    2.127972   -0.510795
     26          6           0      -11.205754    2.042778   -0.948889
     27          6           0      -11.377831    0.742918   -1.075438
     28          6           0      -10.135831    0.045962   -0.806418
     29          6           0      -12.121279    3.250567   -1.095512
     30          6           0      -12.718064    0.022390   -1.464244
     31          6           0      -12.823987   -0.556298   -2.853679
     32          7           0       -7.609888   -1.238039   -0.065409
     33          6           0       -8.713442   -2.018615   -0.595325
     34          6           0       -8.229960   -3.389690   -0.649963
     35          6           0       -6.931575   -3.272884   -0.311945
     36          6           0       -6.559376   -2.049564    0.116159
     37          6           0       -9.162432   -4.556577   -1.021290
     38          6           0       -5.880627   -4.183389    0.033857
     39          8           0       -5.887646   -5.402038    0.052831
     40          6           0       -4.604273   -3.294645    0.339112
     41          6           0       -4.027082   -3.802307    1.717210
     42          8           0       -4.304598   -3.331140    2.752835
     43          8           0       -3.202427   -4.829452    1.576731
     44          6           0       -2.628037   -5.397353    2.789376
     45          6           0        2.688235   -1.464622   -1.212329
     46          6           0        3.933561   -1.132933   -0.636360
     47          6           0        4.929326   -0.243229   -1.043380
     48          6           0        4.868030    0.584128   -2.279669
     49          6           0        6.294150   -0.136757   -0.269155
     50          6           0        7.437648   -0.697717   -1.014578
     51          6           0        8.737774   -0.427637   -0.178525
     52          6           0       10.053975   -1.046135   -0.811153
     53          6           0       10.071132   -2.552418   -0.838276
     54          6           0       11.268203   -0.375556   -0.047340
     55          6           0       12.653870   -0.738120   -0.623068
     56          6           0       13.805215   -0.036550    0.241440
     57          6           0       15.307239   -0.147843   -0.311257
     58          6           0       15.709199   -1.623418   -0.422668
     59          6           0       16.185045    0.837791    0.415343
     60          6           0       17.579980    0.930380   -0.214597
     61          6           0       18.519535    1.869091    0.605318
     62          6           0       19.969851    1.913690    0.154528
     63          6           0       20.129744    2.358895   -1.298727
     64          6           0       20.782565    2.765375    1.189753
     65          1           0       -3.625922    3.442553    1.737306
     66          1           0       -9.865331    4.101369   -0.118534
     67          1           0      -10.866927   -2.036705   -1.085796
     68          1           0       -2.704619   -1.214538    1.983112
     69          1           0       -2.094856    1.279417    1.320589
     70          1           0       -1.885201    0.287586    3.696589
     71          1           0       -2.644269    1.804346    3.838590
     72          1           0       -3.872644    0.359134    3.497750
     73          1           0       -1.841064   -1.934329   -0.353987
     74          1           0       -2.299060   -0.048377   -0.940973
     75          1           0       -0.235088    0.147242    0.784950
     76          1           0       -0.538980   -1.222103    1.395791
     77          1           0       -4.419045    6.091028    0.460836
     78          1           0       -5.633662    6.851587    1.604565
     79          1           0       -4.400360    5.407919    2.184896
     80          1           0       -7.843700    7.116446    1.094213
     81          1           0       -9.179751    5.855828   -1.437142
     82          1           0       -9.688920    7.596033   -0.451215
     83          1           0      -12.328346    3.569300   -0.007761
     84          1           0      -11.850391    4.038013   -1.832738
     85          1           0      -13.035760    3.057447   -1.585925
     86          1           0      -12.908185   -0.861070   -0.806685
     87          1           0      -13.696868    0.618091   -1.372382
     88          1           0      -12.685937    0.168956   -3.831585
     89          1           0      -12.129483   -1.273195   -3.251255
     90          1           0      -13.843141   -0.955964   -2.907864
     91          1           0      -10.274359   -4.743375   -0.494403
     92          1           0       -9.344206   -4.632688   -2.055542
     93          1           0       -8.597285   -5.557168   -0.693129
     94          1           0       -3.829072   -3.740313   -0.407690
     95          1           0       -2.318712   -6.549862    2.534776
     96          1           0       -1.811449   -4.816247    3.188924
     97          1           0       -3.523109   -5.189758    3.703276
     98          1           0        2.484917   -2.543916   -1.145692
     99          1           0        2.635966   -1.110860   -2.491865
    100          1           0        4.100514   -1.654509    0.263295
    101          1           0        4.855021    1.704097   -1.945311
    102          1           0        5.902689    0.598374   -2.936510
    103          1           0        3.890188    0.314102   -2.905931
    104          1           0        6.464432    0.868680   -0.015417
    105          1           0        6.011677   -0.612611    0.756933
    106          1           0        7.383643   -1.685870   -1.240820
    107          1           0        7.583741   -0.253479   -2.056993
    108          1           0        8.709278    0.395729    0.103894
    109          1           0        8.867081   -0.860547    0.856281
    110          1           0       10.104266   -0.864845   -1.879315
    111          1           0        9.223627   -3.034167   -1.499450
    112          1           0       10.998002   -2.932375   -1.332734
    113          1           0        9.812739   -3.042804    0.198932
    114          1           0       11.049295    0.661123    0.168069
    115          1           0       11.293221   -0.783727    1.035674
    116          1           0       12.929695   -1.859850   -0.641625
    117          1           0       12.527655   -0.305131   -1.671287
    118          1           0       13.597516    0.952726    0.315109
    119          1           0       13.759614   -0.421212    1.329401
    120          1           0       15.255453    0.142015   -1.241028
    121          1           0       14.869393   -2.234330   -0.868540
    122          1           0       16.639226   -1.684513   -1.098591
    123          1           0       16.067295   -1.919823    0.570203
    124          1           0       15.536701    1.746854    0.433360
    125          1           0       16.320607    0.525280    1.530810
    126          1           0       17.900682   -0.075758   -0.182363
    127          1           0       17.428725    0.987549   -1.228766
    128          1           0       18.044611    2.828225    0.562209
    129          1           0       18.444862    1.817568    1.724291
    130          1           0       20.166065    0.847829    0.187179
    131          1           0       20.044210    3.578385   -1.319776
    132          1           0       21.042554    2.238504   -1.878721
    133          1           0       19.412989    1.660757   -1.865707
    134          1           0       20.555677    2.328274    2.310557
    135          1           0       21.853459    2.883716    1.001330
    136          1           0       20.066071    3.737334    1.207473
    137          1           0       -7.002877    1.924612    0.146578
    138          1           0       -7.749213   -0.347291    0.107817
 ---------------------------------------------------------------------

 SCF Done:  E(RB3LYP) =  -2733.01608474     A.U. after   17 cycles

 Excitation energies and oscillator strengths:

 Excited State   1:      Singlet-A      2.1440 eV  578.29 nm  f=0.1698  <S**2>=0.000
     235 -> 237       -0.31265
     235 -> 238        0.27305
     236 -> 237        0.53730
     236 -> 238        0.19032
 This state for optimization and/or second-order correction.
 Total Energy, E(TD-HF/TD-DFT) =  -2732.93729451
 Copying the excited state density for this state as the 1-particle RhoCI density.

 The electronic state is 1-A.
 Alpha  occ. eigenvalues --  -19.17858 -19.17514 -19.12702 -19.11784 -19.11356
 Alpha  occ. eigenvalues --  -14.37112 -14.36067 -14.32094 -14.30282 -10.31980
 Alpha  occ. eigenvalues --  -10.30679 -10.26686 -10.26498 -10.25465 -10.24778
 Alpha  occ. eigenvalues --  -10.24248 -10.23740 -10.23053 -10.23041 -10.22886
 Alpha  occ. eigenvalues --  -10.21794 -10.21642 -10.21553 -10.21509 -10.21317
 Alpha  occ. eigenvalues --  -10.21292 -10.21225 -10.21192 -10.21147 -10.21035
 Alpha  occ. eigenvalues --  -10.20962 -10.20935 -10.20905 -10.20843 -10.20777
 Alpha  occ. eigenvalues --  -10.20765 -10.20689 -10.20377 -10.20021 -10.20020
 Alpha  occ. eigenvalues --  -10.19956 -10.19940 -10.19607 -10.19486 -10.19365
 Alpha  occ. eigenvalues --  -10.19250 -10.19231 -10.19097 -10.18988 -10.18973
 Alpha  occ. eigenvalues --  -10.18889 -10.18802 -10.18768 -10.18702 -10.18407
 Alpha  occ. eigenvalues --  -10.18375 -10.18310 -10.18103 -10.18036 -10.17952
 Alpha  occ. eigenvalues --  -10.17638 -10.17323 -10.17137 -10.16640  -1.10538
 Alpha  occ. eigenvalues --   -1.10277  -1.01760  -1.01334  -1.01131  -0.98555
 Alpha  occ. eigenvalues --   -0.98187  -0.95263  -0.94985  -0.85313  -0.82629
 Alpha  occ. eigenvalues --   -0.82120  -0.81920  -0.81778  -0.81429  -0.80632
 Alpha  occ. eigenvalues --   -0.80557  -0.79716  -0.79436  -0.78880  -0.78267
 Alpha  occ. eigenvalues --   -0.77004  -0.76110  -0.75463  -0.74900  -0.74818
 Alpha  occ. eigenvalues --   -0.73402  -0.73126  -0.72323  -0.71686  -0.69971
 Alpha  occ. eigenvalues --   -0.69886  -0.69551  -0.68436  -0.67922  -0.67814
 Alpha  occ. eigenvalues --   -0.67014  -0.66705  -0.66498  -0.65823  -0.65323
 Alpha  occ. eigenvalues --   -0.64056  -0.62989  -0.62552  -0.61742  -0.61144
 Alpha  occ. eigenvalues --   -0.61018  -0.60535  -0.59031  -0.58337  -0.57936
 Alpha  occ. eigenvalues --   -0.57192  -0.56417  -0.56069  -0.55638  -0.55500
 Alpha  occ. eigenvalues --   -0.55318  -0.55137  -0.54391  -0.53851  -0.53404
 Alpha  occ. eigenvalues --   -0.53168  -0.52118  -0.52004  -0.51512  -0.50812
 Alpha  occ. eigenvalues --   -0.49940  -0.49723  -0.49394  -0.48616  -0.48411
 Alpha  occ. eigenvalues --   -0.48046  -0.47591  -0.47229  -0.47113  -0.46884
 Alpha  occ. eigenvalues --   -0.46738  -0.46218  -0.46112  -0.46084  -0.45835
 Alpha  occ. eigenvalues --   -0.45750  -0.45118  -0.44927  -0.44902  -0.44447
 Alpha  occ. eigenvalues --   -0.44288  -0.44038  -0.43925  -0.43792  -0.43525
 Alpha  occ. eigenvalues --   -0.43419  -0.43106  -0.42774  -0.42417  -0.42035
 Alpha  occ. eigenvalues --   -0.41935  -0.41613  -0.41535  -0.41271  -0.41065
 Alpha  occ. eigenvalues --   -0.41043  -0.40908  -0.40762  -0.40363  -0.40070
 Alpha  occ. eigenvalues --   -0.39766  -0.39561  -0.39463  -0.39366  -0.39234
 Alpha  occ. eigenvalues --   -0.38936  -0.38815  -0.38680  -0.38567  -0.38318
 Alpha  occ. eigenvalues --   -0.38140  -0.38002  -0.37909  -0.37694  -0.37607
 Alpha  occ. eigenvalues --   -0.37292  -0.37171  -0.37029  -0.36992  -0.36724
 Alpha  occ. eigenvalues --   -0.36689  -0.36488  -0.36410  -0.35932  -0.35733
 Alpha  occ. eigenvalues --   -0.35609  -0.35279  -0.35022  -0.34776  -0.34699
 Alpha  occ. eigenvalues --   -0.34605  -0.34252  -0.34148  -0.33846  -0.33791
 Alpha  occ. eigenvalues --   -0.33704  -0.33335  -0.32972  -0.32506  -0.32309
 Alpha  occ. eigenvalues --   -0.32131  -0.31769  -0.31550  -0.31414  -0.31078
 Alpha  occ. eigenvalues --   -0.31022  -0.30691  -0.30401  -0.30324  -0.30250
 Alpha  occ. eigenvalues --   -0.29725  -0.29596  -0.28574  -0.28424  -0.27932
 Alpha  occ. eigenvalues --   -0.27626  -0.27403  -0.27107  -0.26681  -0.26495
 Alpha  occ. eigenvalues --   -0.24311  -0.24289  -0.24073  -0.23428  -0.20017
 Alpha  occ. eigenvalues --   -0.19422
 Alpha virt. eigenvalues --   -0.10489  -0.07694  -0.04040  -0.02420  -0.01041
 Alpha virt. eigenvalues --   -0.00603   0.00395   0.01771   0.02228   0.03625
 Alpha virt. eigenvalues --    0.03663   0.04051   0.04359   0.04436   0.04756

 Mulliken charges:
               1
     1  C    0.060829
     2  C   -0.064347
     3  C   -0.075498
     4  C   -0.123673
     5  N   -0.124616
     6  C   -0.050108
     7  C   -0.017887
     8  C    0.058828
     9  C   -0.061856
    10  C    0.004568
    11  C   -0.037673
    12  C    0.080325
    13  C    0.198377
    14  O   -0.227107
    15  O   -0.286492
    16  N   -0.083813
    17  C    0.100556
    18  C   -0.155691
    19  C    0.062383
    20  C    0.128149
    21  C    0.061920
    22  C   -0.079933
    23  C   -0.103435
    24  N   -0.199445
    25  C   -0.028504
    26  C   -0.142649
    27  C   -0.031576
    28  C    0.105285
    29  C    0.104498
    30  C    0.059792
    31  C   -0.041936
    32  N    0.018180
    33  C    0.012461
    34  C   -0.072001
    35  C   -0.006425
    36  C    0.104838
    37  C    0.003048
    38  C    0.049000
    39  O   -0.182594
    40  C   -0.090952
    41  C    0.166867
    42  O   -0.193389
    43  O   -0.284999
    44  C    0.085314
    45  C    0.239256
    46  C   -0.063140
    47  C   -0.140264
    48  C   -0.017715
    49  C    0.081596
    50  C    0.102656
    51  C    0.159386
    52  C   -0.031910
    53  C   -0.031719
    54  C    0.005091
    55  C    0.001492
    56  C    0.029261
    57  C   -0.015165
    58  C    0.012284
    59  C   -0.011202
    60  C    0.108721
    61  C    0.044595
    62  C   -0.042446
    63  C   -0.009467
    64  C   -0.022333
    65  H    0.007199
    66  H   -0.027265
    67  H    0.031467
    68  H   -0.004475
    69  H   -0.080346
    70  H    0.021488
    71  H    0.022500
    72  H    0.061066
    73  H    0.048161
    74  H    0.041009
    75  H   -0.022530
    76  H    0.011155
    77  H    0.045717
    78  H    0.026790
    79  H    0.047152
    80  H    0.001033
    81  H    0.058048
    82  H    0.050605
    83  H    0.050075
    84  H    0.025042
    85  H   -0.013669
    86  H    0.005447
    87  H    0.012216
    88  H    0.007554
    89  H    0.006188
    90  H    0.011943
    91  H    0.051274
    92  H    0.025566
    93  H    0.056290
    94  H    0.075010
    95  H    0.077335
    96  H    0.032103
    97  H    0.070883
    98  H   -0.001972
    99  H    0.046869
   100  H   -0.032926
   101  H    0.032219
   102  H    0.043234
   103  H    0.037525
   104  H   -0.018631
   105  H    0.008049
   106  H   -0.039800
   107  H    0.002719
   108  H   -0.156094
   109  H   -0.023350
   110  H   -0.021597
   111  H    0.013996
   112  H    0.022472
   113  H    0.015277
   114  H   -0.007316
   115  H   -0.012223
   116  H    0.034442
   117  H    0.004758
   118  H   -0.044582
   119  H   -0.001738
   120  H   -0.067110
   121  H    0.023015
   122  H    0.009194
   123  H    0.005315
   124  H   -0.005449
   125  H   -0.004980
   126  H   -0.038140
   127  H   -0.030637
   128  H   -0.033558
   129  H   -0.011462
   130  H   -0.015078
   131  H    0.017180
   132  H    0.004711
   133  H    0.018748
   134  H    0.021891
   135  H    0.029965
   136  H    0.022402
   137  H    0.173130
   138  H    0.049908
 Sum of Mulliken charges =  -0.00000

 Dipole moment (field-independent basis, Debye):
    X=              1.9619    Y=              4.7707    Z=              1.0159  Tot=              5.2574
 Quadrupole moment (field-independent basis, Debye-Ang):
   XX=           -340.0731   YY=           -390.4922   ZZ=           -396.7458
   XY=            -28.6793   XZ=              3.1068   YZ=              1.1970

 Normal termination of Gaussian 16 at Sun Aug 25 19:07:48 2019.
