 Gaussian 16, Revision A.03,
 Gaussian 16:  ES64L-G16RevA.03 25-Dec-2016

 --------------------------
 # td=(NStates=1) B3LYP/SVP
 --------------------------

 --
 TD
 --
 Symbolic Z-matrix:
 Charge =  0 Multiplicity = 1

                         Standard orientation:
 ---------------------------------------------------------------------
 Center     Atomic      Atomic             Coordinates (Angstroms)
 Number     Number       Type             X           Y           Z
 ---------------------------------------------------------------------
      1          6           0       -5.163745   -1.966845    0.484007
      2          6           0       -4.643452    2.661592    1.365723
      3          6           0       -9.315891    3.345698   -0.073783
      4          6           0       -9.863762   -1.420147   -0.950354
      5          7           0       -5.154303    0.384784    0.774115
      6          6           0       -4.457456   -0.847131    0.863727
      7          6           0       -3.097982   -0.579042    1.292087
      8          6           0       -3.122108    0.822402    1.861666
      9          6           0       -4.367537    1.309146    1.341863
     10          6           0       -3.085876    0.942284    3.339248
     11          6           0       -2.092661   -0.906807    0.177119
     12          6           0       -0.589383   -0.927993    0.620441
     13          6           0        0.316342   -1.072539   -0.604394
     14          8           0        0.011878   -1.604898   -1.665790
     15          8           0        1.598214   -0.754129   -0.260238
     16          7           0       -7.064911    2.759751    0.508481
     17          6           0       -5.905837    3.408941    0.910947
     18          6           0       -6.150083    4.774277    1.109317
     19          6           0       -7.505411    5.007660    0.588799
     20          6           0       -8.035374    3.731444    0.249098
     21          6           0       -5.137093    5.787454    1.493213
     22          6           0       -8.115438    6.301423    0.326364
     23          6           0       -9.063900    6.674878   -0.549852
     24          7           0       -9.244906    0.994020   -0.546487
     25          6           0       -9.890512    2.129444   -0.543600
     26          6           0      -11.314814    1.870279   -0.936824
     27          6           0      -11.485605    0.574597   -1.158877
     28          6           0      -10.151444   -0.011801   -0.960837
     29          6           0      -12.374978    2.935420   -1.096684
     30          6           0      -12.671246   -0.070316   -1.576582
     31          6           0      -12.704283   -0.425972   -3.141896
     32          7           0       -7.411762   -1.190787   -0.374571
     33          6           0       -8.552435   -1.994133   -0.610713
     34          6           0       -8.230887   -3.366202   -0.552588
     35          6           0       -6.930401   -3.414820   -0.163412
     36          6           0       -6.432668   -2.117807    0.064475
     37          6           0       -9.172045   -4.444622   -0.835931
     38          6           0       -5.898289   -4.334099    0.096230
     39          8           0       -5.868897   -5.564024    0.119645
     40          6           0       -4.692744   -3.470689    0.457893
     41          6           0       -3.982978   -3.911542    1.721221
     42          8           0       -3.994079   -3.396100    2.826022
     43          8           0       -3.106560   -5.025051    1.507417
     44          6           0       -2.419711   -5.466510    2.637209
     45          6           0        2.631693   -0.991992   -1.299098
     46          6           0        4.057962   -0.693384   -0.678335
     47          6           0        4.959622    0.119046   -1.257369
     48          6           0        4.833191    0.740091   -2.600243
     49          6           0        6.285421    0.366231   -0.558316
     50          6           0        7.569733   -0.223961   -1.095485
     51          6           0        8.848533   -0.127228   -0.226156
     52          6           0       10.086330   -0.652711   -0.856190
     53          6           0       10.172401   -2.172401   -1.210600
     54          6           0       11.321824   -0.335717   -0.009157
     55          6           0       12.709894   -0.665363   -0.605262
     56          6           0       13.939953   -0.021507    0.169859
     57          6           0       15.289662   -0.281294   -0.428737
     58          6           0       15.647603   -1.723829   -0.723464
     59          6           0       16.328072    0.581419    0.352004
     60          6           0       17.747144    0.619266   -0.196986
     61          6           0       18.642066    1.517122    0.747735
     62          6           0       20.197814    1.625783    0.362155
     63          6           0       20.330040    2.259854   -0.947290
     64          6           0       20.920441    2.494510    1.449516
     65          1           0       -3.955646    3.376383    1.775364
     66          1           0      -10.008884    4.266786   -0.026514
     67          1           0      -10.764621   -2.062577   -1.123989
     68          1           0       -3.081861   -1.146691    2.022469
     69          1           0       -2.188687    1.502438    1.346095
     70          1           0       -2.064159    0.467321    3.737019
     71          1           0       -3.161359    2.115762    3.715163
     72          1           0       -3.967942    0.496056    3.722429
     73          1           0       -2.408385   -1.906352   -0.411123
     74          1           0       -2.280651    0.035060   -0.419525
     75          1           0       -0.303959   -0.121790    1.322423
     76          1           0       -0.373691   -1.697594    1.377418
     77          1           0       -4.269504    6.139394    0.769547
     78          1           0       -5.842609    6.664283    1.985322
     79          1           0       -4.658682    5.510729    2.416215
     80          1           0       -7.890225    7.021090    1.081008
     81          1           0       -9.337792    5.978944   -1.293322
     82          1           0       -9.287239    7.841897   -0.662580
     83          1           0      -12.599279    3.604154   -0.255673
     84          1           0      -12.045693    3.791211   -1.633337
     85          1           0      -13.225613    2.458522   -1.399721
     86          1           0      -12.896398   -1.071696   -1.280386
     87          1           0      -13.685941    0.404974   -1.344705
     88          1           0      -12.630557    0.414975   -3.844070
     89          1           0      -11.867266   -1.070166   -3.495392
     90          1           0      -13.765502   -0.893128   -3.363950
     91          1           0      -10.026192   -4.615509   -0.215072
     92          1           0       -9.637816   -4.547084   -1.871997
     93          1           0       -8.710224   -5.408232   -0.477882
     94          1           0       -4.185880   -3.610977   -0.409098
     95          1           0       -1.758329   -6.399310    2.348024
     96          1           0       -1.890208   -4.595511    3.200746
     97          1           0       -2.939227   -5.630240    3.403559
     98          1           0        2.677882   -2.154728   -1.465361
     99          1           0        2.385811   -0.473213   -2.261618
    100          1           0        4.027556   -1.182371    0.268685
    101          1           0        4.917986    2.025143   -2.407874
    102          1           0        5.762555    0.582095   -3.188135
    103          1           0        3.884544    0.571933   -3.095588
    104          1           0        6.619164    1.524403   -0.484570
    105          1           0        6.118585   -0.009716    0.512859
    106          1           0        7.424783   -1.200651   -1.271080
    107          1           0        7.792270    0.079590   -2.057204
    108          1           0        8.773508    0.949961   -0.077681
    109          1           0        8.574800   -0.466661    0.882236
    110          1           0       10.214579   -0.108059   -1.728387
    111          1           0        9.353345   -2.457896   -1.622605
    112          1           0       11.027485   -2.226647   -1.794998
    113          1           0       10.197125   -2.795553   -0.369875
    114          1           0       11.099281    0.856285    0.317536
    115          1           0       11.369929   -0.987493    0.857118
    116          1           0       12.841601   -1.701020   -0.601478
    117          1           0       12.664294   -0.243583   -1.598067
    118          1           0       13.856269    1.012972    0.368833
    119          1           0       13.794288   -0.564698    1.268560
    120          1           0       15.441539    0.202572   -1.399204
    121          1           0       15.027794   -2.098017   -1.572756
    122          1           0       16.731990   -1.464596   -0.826981
    123          1           0       15.447441   -2.295704    0.259491
    124          1           0       16.091836    1.689732    0.618522
    125          1           0       16.498798   -0.033221    1.184126
    126          1           0       18.315366   -0.544019   -0.180999
    127          1           0       17.656991    0.962830   -1.253090
    128          1           0       18.244028    2.549767    0.606648
    129          1           0       18.713057    1.201812    1.715842
    130          1           0       20.590633    0.632822    0.244571
    131          1           0       19.387764    3.174170   -1.069847
    132          1           0       21.363570    2.851485   -1.329455
    133          1           0       20.146435    1.426303   -1.964899
    134          1           0       21.001212    2.000460    2.412219
    135          1           0       22.015652    2.828108    1.108647
    136          1           0       20.286999    3.449787    1.463189
    137          1           0       -7.321879    1.720795    0.666161
    138          1           0       -7.606398   -0.250200   -0.372593
 ---------------------------------------------------------------------

 SCF Done:  E(RB3LYP) =  -2733.00543330     A.U. after   17 cycles

 Excitation energies and oscillator strengths:

 Excited State   1:      Singlet-A      1.9679 eV  630.02 nm  f=0.1921  <S**2>=0.000
     235 -> 237       -0.35377
     235 -> 238        0.23302
     236 -> 237        0.52974
     236 -> 238        0.19552
 This state for optimization and/or second-order correction.
 Total Energy, E(TD-HF/TD-DFT) =  -2732.93311255
 Copying the excited state density for this state as the 1-particle RhoCI density.

 The electronic state is 1-A.
 Alpha  occ. eigenvalues --  -19.17825 -19.16673 -19.13751 -19.12592 -19.11764
 Alpha  occ. eigenvalues --  -14.36977 -14.36592 -14.31917 -14.30758 -10.32553
 Alpha  occ. eigenvalues --  -10.31914 -10.27290 -10.25954 -10.24487 -10.23798
 Alpha  occ. eigenvalues --  -10.23700 -10.23652 -10.23135 -10.22859 -10.22446
 Alpha  occ. eigenvalues --  -10.22136 -10.22062 -10.21895 -10.21852 -10.21745
 Alpha  occ. eigenvalues --  -10.21519 -10.21408 -10.21314 -10.21283 -10.21065
 Alpha  occ. eigenvalues --  -10.21052 -10.21000 -10.20843 -10.20807 -10.20725
 Alpha  occ. eigenvalues --  -10.20696 -10.20522 -10.20461 -10.20367 -10.20200
 Alpha  occ. eigenvalues --  -10.20200 -10.19863 -10.19734 -10.19595 -10.19525
 Alpha  occ. eigenvalues --  -10.19454 -10.19428 -10.19297 -10.18818 -10.18723
 Alpha  occ. eigenvalues --  -10.18710 -10.18649 -10.18617 -10.18586 -10.18467
 Alpha  occ. eigenvalues --  -10.18267 -10.18257 -10.18255 -10.18064 -10.18047
 Alpha  occ. eigenvalues --  -10.17834 -10.17745 -10.16741 -10.15668  -1.08000
 Alpha  occ. eigenvalues --   -1.07975  -1.01768  -1.00110  -0.99585  -0.97563
 Alpha  occ. eigenvalues --   -0.97126  -0.95104  -0.94167  -0.86625  -0.82935
 Alpha  occ. eigenvalues --   -0.82184  -0.81990  -0.81846  -0.81573  -0.81353
 Alpha  occ. eigenvalues --   -0.81281  -0.80115  -0.80055  -0.79069  -0.77661
 Alpha  occ. eigenvalues --   -0.77286  -0.76401  -0.75601  -0.74990  -0.74836
 Alpha  occ. eigenvalues --   -0.73523  -0.72891  -0.72593  -0.72193  -0.71203
 Alpha  occ. eigenvalues --   -0.70382  -0.69873  -0.69463  -0.68792  -0.68084
 Alpha  occ. eigenvalues --   -0.67261  -0.66629  -0.66517  -0.65694  -0.65352
 Alpha  occ. eigenvalues --   -0.64493  -0.63441  -0.63100  -0.62585  -0.61870
 Alpha  occ. eigenvalues --   -0.61273  -0.59882  -0.58847  -0.58192  -0.57427
 Alpha  occ. eigenvalues --   -0.57107  -0.57040  -0.55962  -0.55865  -0.55507
 Alpha  occ. eigenvalues --   -0.55030  -0.54565  -0.54147  -0.53794  -0.53572
 Alpha  occ. eigenvalues --   -0.53535  -0.53209  -0.52390  -0.51853  -0.51467
 Alpha  occ. eigenvalues --   -0.50630  -0.49937  -0.49200  -0.48265  -0.48068
 Alpha  occ. eigenvalues --   -0.47980  -0.47878  -0.47823  -0.47287  -0.46900
 Alpha  occ. eigenvalues --   -0.46714  -0.46603  -0.46576  -0.46486  -0.46108
 Alpha  occ. eigenvalues --   -0.45666  -0.45389  -0.45170  -0.45040  -0.44712
 Alpha  occ. eigenvalues --   -0.44514  -0.44411  -0.43953  -0.43823  -0.43586
 Alpha  occ. eigenvalues --   -0.43346  -0.43240  -0.43134  -0.42855  -0.42499
 Alpha  occ. eigenvalues --   -0.42242  -0.42129  -0.41937  -0.41710  -0.41648
 Alpha  occ. eigenvalues --   -0.41481  -0.41032  -0.40980  -0.40874  -0.40754
 Alpha  occ. eigenvalues --   -0.40515  -0.40435  -0.39911  -0.39731  -0.39587
 Alpha  occ. eigenvalues --   -0.39299  -0.39003  -0.38680  -0.38497  -0.38382
 Alpha  occ. eigenvalues --   -0.38338  -0.38048  -0.37934  -0.37853  -0.37452
 Alpha  occ. eigenvalues --   -0.37402  -0.37350  -0.37017  -0.36916  -0.36685
 Alpha  occ. eigenvalues --   -0.36356  -0.36187  -0.36085  -0.35756  -0.35727
 Alpha  occ. eigenvalues --   -0.35672  -0.35568  -0.35313  -0.35269  -0.35219
 Alpha  occ. eigenvalues --   -0.34947  -0.34808  -0.34274  -0.34205  -0.33906
 Alpha  occ. eigenvalues --   -0.33487  -0.33470  -0.33384  -0.33009  -0.32916
 Alpha  occ. eigenvalues --   -0.32258  -0.31871  -0.31708  -0.31429  -0.31146
 Alpha  occ. eigenvalues --   -0.30978  -0.30682  -0.30614  -0.30436  -0.29959
 Alpha  occ. eigenvalues --   -0.29654  -0.28861  -0.28702  -0.28193  -0.28172
 Alpha  occ. eigenvalues --   -0.27709  -0.27326  -0.27260  -0.26856  -0.26224
 Alpha  occ. eigenvalues --   -0.25037  -0.24985  -0.24006  -0.23386  -0.20036
 Alpha  occ. eigenvalues --   -0.19176
 Alpha virt. eigenvalues --   -0.11217  -0.07964  -0.05052  -0.01885  -0.01471
 Alpha virt. eigenvalues --   -0.00882  -0.00604   0.00202   0.01742   0.03384
 Alpha virt. eigenvalues --    0.03609   0.04047   0.04248   0.04522   0.04703

 Mulliken charges:
               1
     1  C   -0.008382
     2  C   -0.059136
     3  C   -0.109781
     4  C   -0.059130
     5  N   -0.195203
     6  C   -0.203964
     7  C    0.383245
     8  C   -0.174253
     9  C    0.045479
    10  C    0.044714
    11  C    0.015838
    12  C    0.038861
    13  C    0.217624
    14  O   -0.244340
    15  O   -0.335121
    16  N   -0.122606
    17  C    0.072799
    18  C   -0.132484
    19  C    0.048545
    20  C    0.073711
    21  C    0.046632
    22  C   -0.039548
    23  C   -0.042910
    24  N   -0.225001
    25  C    0.053605
    26  C   -0.133541
    27  C    0.002871
    28  C    0.036797
    29  C    0.190124
    30  C    0.022000
    31  C   -0.059922
    32  N   -0.035776
    33  C    0.050237
    34  C   -0.115892
    35  C    0.064583
    36  C    0.133563
    37  C    0.071293
    38  C   -0.005517
    39  O   -0.178614
    40  C    0.037280
    41  C    0.251605
    42  O   -0.226569
    43  O   -0.331905
    44  C    0.252963
    45  C    0.195122
    46  C   -0.086575
    47  C   -0.062208
    48  C    0.044495
    49  C    0.018402
    50  C    0.099765
    51  C    0.000207
    52  C   -0.016531
    53  C    0.177095
    54  C   -0.025413
    55  C    0.057178
    56  C    0.039801
    57  C   -0.057320
    58  C    0.022441
    59  C    0.010265
    60  C   -0.068294
    61  C    0.059392
    62  C   -0.032332
    63  C   -0.141403
    64  C   -0.004898
    65  H   -0.043480
    66  H   -0.003524
    67  H    0.001221
    68  H   -0.152797
    69  H    0.027726
    70  H    0.036988
    71  H    0.032560
    72  H    0.018670
    73  H    0.064466
    74  H    0.021073
    75  H    0.009292
    76  H    0.032161
    77  H    0.071725
    78  H    0.024695
    79  H    0.012216
    80  H   -0.005241
    81  H    0.015689
    82  H    0.052894
    83  H   -0.008472
    84  H   -0.014828
    85  H   -0.015093
    86  H   -0.011626
    87  H    0.015725
    88  H    0.009661
    89  H    0.022785
    90  H    0.022178
    91  H    0.005915
    92  H    0.040803
    93  H    0.027233
    94  H    0.024063
    95  H    0.053412
    96  H   -0.004254
    97  H   -0.054745
    98  H    0.040731
    99  H    0.036980
   100  H   -0.009407
   101  H    0.027041
   102  H    0.036607
   103  H    0.015962
   104  H    0.010711
   105  H    0.006117
   106  H   -0.054179
   107  H   -0.042054
   108  H   -0.024186
   109  H   -0.002585
   110  H   -0.038952
   111  H   -0.063195
   112  H   -0.001090
   113  H   -0.018482
   114  H    0.007595
   115  H   -0.016929
   116  H   -0.003289
   117  H   -0.018144
   118  H   -0.024249
   119  H   -0.004977
   120  H   -0.029172
   121  H    0.039298
   122  H    0.010501
   123  H    0.010956
   124  H    0.022546
   125  H   -0.027438
   126  H    0.028192
   127  H    0.010456
   128  H    0.003336
   129  H   -0.019159
   130  H   -0.004863
   131  H    0.015005
   132  H    0.040754
   133  H    0.031073
   134  H    0.019172
   135  H    0.026065
   136  H    0.018480
   137  H    0.189766
   138  H    0.081956
 Sum of Mulliken charges =  -0.00000

 Dipole moment (field-independent basis, Debye):
    X=              1.2814    Y=              4.8260    Z=              0.9422  Tot=              5.0813
 Quadrupole moment (field-independent basis, Debye-Ang):
   XX=           -335.0068   YY=           -392.0042   ZZ=           -395.4243
   XY=            -24.4148   XZ=              6.4414   YZ=              1.2717

 Normal termination of Gaussian 16 at Mon Aug 12 22:38:48 2019.
