 Gaussian 16, Revision A.03,
 Gaussian 16:  ES64L-G16RevA.03 25-Dec-2016

 --------------------------
 # td=(NStates=1) B3LYP/SVP
 --------------------------

 --
 TD
 --
 Symbolic Z-matrix:
 Charge =  0 Multiplicity = 1

                         Standard orientation:
 ---------------------------------------------------------------------
 Center     Atomic      Atomic             Coordinates (Angstroms)
 Number     Number       Type             X           Y           Z
 ---------------------------------------------------------------------
      1          6           0       -5.115065   -1.942383    0.559903
      2          6           0       -4.790119    2.723755    1.430965
      3          6           0       -9.296676    3.335387   -0.284136
      4          6           0       -9.907075   -1.445138   -0.778529
      5          7           0       -5.160157    0.466314    0.676319
      6          6           0       -4.602538   -0.705164    0.788163
      7          6           0       -3.067241   -0.593598    1.299806
      8          6           0       -3.156177    0.815319    1.956838
      9          6           0       -4.421133    1.394152    1.269101
     10          6           0       -3.302960    0.719182    3.483671
     11          6           0       -2.072817   -0.753526    0.208968
     12          6           0       -0.637017   -0.678508    0.574040
     13          6           0        0.320191   -0.958604   -0.497380
     14          8           0        0.098893   -1.525600   -1.498758
     15          8           0        1.685608   -0.747218   -0.205377
     16          7           0       -7.082871    2.799327    0.464203
     17          6           0       -5.933379    3.477122    0.953339
     18          6           0       -6.252368    4.802784    1.193657
     19          6           0       -7.556572    5.031175    0.561508
     20          6           0       -8.003632    3.706263    0.137439
     21          6           0       -5.250105    5.766492    1.736157
     22          6           0       -8.144069    6.291111    0.333658
     23          6           0       -8.984448    6.620425   -0.664224
     24          7           0       -9.262939    0.910153   -0.550296
     25          6           0       -9.859643    2.085950   -0.608477
     26          6           0      -11.197134    1.907609   -1.147396
     27          6           0      -11.339678    0.508028   -1.256445
     28          6           0      -10.148305   -0.121931   -0.712213
     29          6           0      -12.242886    2.964282   -1.331175
     30          6           0      -12.608572   -0.239520   -1.702576
     31          6           0      -12.503906   -0.643821   -3.207009
     32          7           0       -7.546871   -1.213354   -0.140989
     33          6           0       -8.648055   -2.067499   -0.486683
     34          6           0       -8.193731   -3.436042   -0.616729
     35          6           0       -6.874200   -3.386369   -0.134307
     36          6           0       -6.542170   -2.080959    0.161256
     37          6           0       -9.063183   -4.572026   -0.957863
     38          6           0       -5.741128   -4.286151    0.120010
     39          8           0       -5.624396   -5.518998   -0.019057
     40          6           0       -4.482052   -3.302863    0.385754
     41          6           0       -3.906028   -3.819175    1.739497
     42          8           0       -4.058292   -3.301135    2.826840
     43          8           0       -3.114115   -4.774391    1.504565
     44          6           0       -2.433723   -5.404010    2.606496
     45          6           0        2.693309   -0.982821   -1.150116
     46          6           0        3.958122   -0.685887   -0.569363
     47          6           0        4.973138    0.073513   -1.228662
     48          6           0        4.929143    0.301447   -2.738553
     49          6           0        6.338386    0.300786   -0.428214
     50          6           0        7.493216   -0.385927   -1.140876
     51          6           0        8.772224   -0.223885   -0.296504
     52          6           0       10.122441   -0.739795   -0.813091
     53          6           0       10.135945   -2.229339   -0.900470
     54          6           0       11.322699   -0.215648    0.078739
     55          6           0       12.683113   -0.475793   -0.588598
     56          6           0       13.894656   -0.003137    0.292097
     57          6           0       15.246830   -0.161426   -0.384235
     58          6           0       15.661672   -1.676587   -0.528789
     59          6           0       16.266520    0.648212    0.450964
     60          6           0       17.658032    0.743344   -0.175639
     61          6           0       18.689910    1.544453    0.733444
     62          6           0       20.064847    1.552240    0.090784
     63          6           0       20.111598    2.262801   -1.290018
     64          6           0       20.955596    2.337463    1.177944
     65          1           0       -4.141835    3.550919    2.010422
     66          1           0      -10.102532    4.141262   -0.361244
     67          1           0      -10.752944   -2.074630   -0.978776
     68          1           0       -2.943796   -1.185209    2.090969
     69          1           0       -2.343918    1.393591    1.731612
     70          1           0       -2.213801    0.396325    3.878339
     71          1           0       -3.673951    1.701764    4.079717
     72          1           0       -3.953661   -0.105868    3.833208
     73          1           0       -2.187856   -1.464708   -0.469833
     74          1           0       -2.289388    0.124277   -0.271588
     75          1           0       -0.275488    0.292574    1.003123
     76          1           0       -0.301228   -1.372731    1.297956
     77          1           0       -4.331177    5.729600    1.064365
     78          1           0       -5.837819    6.915201    1.872284
     79          1           0       -4.704588    5.455543    2.609436
     80          1           0       -7.721525    7.128219    1.120423
     81          1           0       -9.204316    5.777917   -1.456011
     82          1           0       -9.173363    7.733729   -0.800117
     83          1           0      -12.398865    3.406449   -0.246659
     84          1           0      -11.931860    3.794529   -1.907864
     85          1           0      -13.344861    2.573001   -1.501418
     86          1           0      -12.714758   -1.027440   -0.971812
     87          1           0      -13.473275    0.453237   -1.905044
     88          1           0      -12.197093    0.112349   -3.782744
     89          1           0      -11.767463   -1.510667   -3.392398
     90          1           0      -13.388501   -1.167912   -3.558808
     91          1           0      -10.043849   -4.882472   -0.431658
     92          1           0       -9.542090   -4.332052   -2.001770
     93          1           0       -8.351584   -5.417820   -1.345060
     94          1           0       -3.748753   -3.331068   -0.449113
     95          1           0       -1.937786   -6.377246    2.279787
     96          1           0       -1.572152   -5.023398    3.100367
     97          1           0       -3.269341   -5.448138    3.352003
     98          1           0        2.592746   -2.130816   -1.579079
     99          1           0        2.450063   -0.363329   -2.069333
    100          1           0        3.960551   -0.930240    0.455439
    101          1           0        5.474532    1.320035   -2.896162
    102          1           0        5.565294   -0.203658   -3.532152
    103          1           0        3.776936    0.435947   -2.943154
    104          1           0        6.273617    1.425310   -0.568316
    105          1           0        6.130787   -0.168521    0.392813
    106          1           0        7.363168   -1.340979   -1.233755
    107          1           0        7.767763    0.119119   -2.106642
    108          1           0        8.967465    0.919675   -0.151898
    109          1           0        8.453223   -0.585593    0.679448
    110          1           0       10.305987    0.102920   -1.717642
    111          1           0        9.185588   -2.650585   -1.557556
    112          1           0       11.136101   -2.584027   -1.191748
    113          1           0       10.102250   -2.574381    0.114410
    114          1           0       11.074095    0.925276   -0.008430
    115          1           0       11.402579   -0.533168    1.128003
    116          1           0       12.778681   -1.580348   -0.945237
    117          1           0       12.812846   -0.039328   -1.512504
    118          1           0       13.509818    1.092676    0.503149
    119          1           0       13.773577   -0.446389    1.230264
    120          1           0       15.291378    0.140343   -1.258577
    121          1           0       14.808553   -2.098385   -1.290152
    122          1           0       16.784961   -1.841659   -0.759687
    123          1           0       15.279229   -2.164227    0.495569
    124          1           0       15.722041    1.614698    0.572098
    125          1           0       16.281403   -0.048409    1.436330
    126          1           0       17.989583   -0.354840   -0.238050
    127          1           0       17.561858    1.159651   -1.200695
    128          1           0       18.295473    2.614692    1.004493
    129          1           0       18.838039    1.215273    1.767300
    130          1           0       20.483004    0.510441    0.017181
    131          1           0       19.400647    3.099441   -1.261442
    132          1           0       21.133956    2.671463   -1.629550
    133          1           0       19.601182    1.665231   -2.010809
    134          1           0       21.037640    1.811677    2.099227
    135          1           0       22.116696    2.705515    1.018110
    136          1           0       20.429584    3.411372    1.307947
    137          1           0       -7.181483    1.860290   -0.051093
    138          1           0       -7.510532   -0.114241   -0.246136
 ---------------------------------------------------------------------

 SCF Done:  E(RB3LYP) =  -2733.02937224     A.U. after   17 cycles

 Excitation energies and oscillator strengths:

 Excited State   1:      Singlet-A      2.0261 eV  611.92 nm  f=0.1665  <S**2>=0.000
     235 -> 237        0.58091
     235 -> 238       -0.11492
     236 -> 237        0.22670
     236 -> 238        0.30241
 This state for optimization and/or second-order correction.
 Total Energy, E(TD-HF/TD-DFT) =  -2732.95491268
 Copying the excited state density for this state as the 1-particle RhoCI density.

 The electronic state is 1-A.
 Alpha  occ. eigenvalues --  -19.18918 -19.15496 -19.12566 -19.12335 -19.11610
 Alpha  occ. eigenvalues --  -14.37435 -14.37079 -14.32212 -14.29607 -10.31311
 Alpha  occ. eigenvalues --  -10.31078 -10.28427 -10.25308 -10.24436 -10.24215
 Alpha  occ. eigenvalues --  -10.24060 -10.23913 -10.23468 -10.23147 -10.22409
 Alpha  occ. eigenvalues --  -10.22359 -10.22037 -10.21840 -10.21685 -10.21576
 Alpha  occ. eigenvalues --  -10.21500 -10.21442 -10.21268 -10.21017 -10.20921
 Alpha  occ. eigenvalues --  -10.20910 -10.20820 -10.20602 -10.20577 -10.20513
 Alpha  occ. eigenvalues --  -10.20446 -10.20346 -10.20326 -10.20281 -10.20210
 Alpha  occ. eigenvalues --  -10.20186 -10.19845 -10.19591 -10.19405 -10.19308
 Alpha  occ. eigenvalues --  -10.19259 -10.19156 -10.19112 -10.18948 -10.18934
 Alpha  occ. eigenvalues --  -10.18599 -10.18586 -10.18547 -10.18480 -10.18348
 Alpha  occ. eigenvalues --  -10.18317 -10.18241 -10.18078 -10.17891 -10.17874
 Alpha  occ. eigenvalues --  -10.17666 -10.17660 -10.17523 -10.17138  -1.12576
 Alpha  occ. eigenvalues --   -1.09306  -1.01035  -1.00632  -1.00476  -0.98396
 Alpha  occ. eigenvalues --   -0.97306  -0.95828  -0.94188  -0.84258  -0.83175
 Alpha  occ. eigenvalues --   -0.82384  -0.82334  -0.81657  -0.81225  -0.80347
 Alpha  occ. eigenvalues --   -0.80298  -0.79711  -0.79415  -0.78536  -0.78358
 Alpha  occ. eigenvalues --   -0.77169  -0.76390  -0.76060  -0.74665  -0.74335
 Alpha  occ. eigenvalues --   -0.74269  -0.72983  -0.72475  -0.71312  -0.70752
 Alpha  occ. eigenvalues --   -0.70318  -0.69492  -0.69047  -0.67787  -0.67375
 Alpha  occ. eigenvalues --   -0.67247  -0.66331  -0.66210  -0.65157  -0.64470
 Alpha  occ. eigenvalues --   -0.63880  -0.62851  -0.62289  -0.61760  -0.61573
 Alpha  occ. eigenvalues --   -0.60967  -0.59281  -0.58907  -0.58430  -0.58022
 Alpha  occ. eigenvalues --   -0.57757  -0.56495  -0.56182  -0.55820  -0.55249
 Alpha  occ. eigenvalues --   -0.55089  -0.54878  -0.54269  -0.53269  -0.52949
 Alpha  occ. eigenvalues --   -0.52416  -0.52112  -0.51670  -0.51343  -0.50674
 Alpha  occ. eigenvalues --   -0.50335  -0.49854  -0.49653  -0.49565  -0.49339
 Alpha  occ. eigenvalues --   -0.48200  -0.47803  -0.47387  -0.47058  -0.46880
 Alpha  occ. eigenvalues --   -0.46832  -0.46404  -0.46118  -0.46034  -0.45722
 Alpha  occ. eigenvalues --   -0.45322  -0.45240  -0.45118  -0.44908  -0.44650
 Alpha  occ. eigenvalues --   -0.44459  -0.44345  -0.44127  -0.44031  -0.43833
 Alpha  occ. eigenvalues --   -0.43550  -0.43259  -0.43029  -0.42897  -0.42456
 Alpha  occ. eigenvalues --   -0.42301  -0.42051  -0.41728  -0.41549  -0.41291
 Alpha  occ. eigenvalues --   -0.40951  -0.40664  -0.40503  -0.40407  -0.40386
 Alpha  occ. eigenvalues --   -0.40230  -0.40070  -0.39957  -0.39844  -0.39755
 Alpha  occ. eigenvalues --   -0.39518  -0.39343  -0.38848  -0.38645  -0.38425
 Alpha  occ. eigenvalues --   -0.38285  -0.38096  -0.37933  -0.37757  -0.37525
 Alpha  occ. eigenvalues --   -0.37465  -0.37444  -0.37101  -0.36786  -0.36739
 Alpha  occ. eigenvalues --   -0.36575  -0.36405  -0.35943  -0.35638  -0.35369
 Alpha  occ. eigenvalues --   -0.35364  -0.35203  -0.35065  -0.34969  -0.34771
 Alpha  occ. eigenvalues --   -0.34711  -0.34630  -0.34275  -0.33985  -0.33687
 Alpha  occ. eigenvalues --   -0.33409  -0.32926  -0.32521  -0.32515  -0.32324
 Alpha  occ. eigenvalues --   -0.32223  -0.32038  -0.31966  -0.31885  -0.31608
 Alpha  occ. eigenvalues --   -0.31381  -0.31130  -0.30907  -0.30709  -0.29631
 Alpha  occ. eigenvalues --   -0.29345  -0.28989  -0.28366  -0.28037  -0.27790
 Alpha  occ. eigenvalues --   -0.27599  -0.26862  -0.26552  -0.26193  -0.25626
 Alpha  occ. eigenvalues --   -0.24948  -0.23747  -0.22911  -0.21719  -0.19946
 Alpha  occ. eigenvalues --   -0.19609
 Alpha virt. eigenvalues --   -0.11328  -0.08091  -0.04524  -0.02392  -0.01200
 Alpha virt. eigenvalues --   -0.00289   0.00697   0.01193   0.01900   0.02332
 Alpha virt. eigenvalues --    0.03252   0.03981   0.04146   0.04439   0.04667

 Mulliken charges:
               1
     1  C    0.010303
     2  C   -0.074034
     3  C   -0.098299
     4  C   -0.085232
     5  N   -0.091023
     6  C   -0.116729
     7  C    0.020669
     8  C   -0.009566
     9  C    0.015741
    10  C   -0.010360
    11  C    0.231298
    12  C    0.093296
    13  C    0.122319
    14  O   -0.189952
    15  O   -0.364111
    16  N   -0.087216
    17  C    0.064750
    18  C   -0.104475
    19  C    0.035850
    20  C    0.065136
    21  C    0.033282
    22  C   -0.086921
    23  C   -0.069140
    24  N   -0.244017
    25  C    0.028822
    26  C   -0.122783
    27  C   -0.135877
    28  C    0.117723
    29  C    0.067164
    30  C    0.069805
    31  C    0.029290
    32  N   -0.129114
    33  C    0.088519
    34  C   -0.099655
    35  C    0.006707
    36  C    0.090743
    37  C    0.024065
    38  C    0.081914
    39  O   -0.198229
    40  C   -0.074538
    41  C    0.183706
    42  O   -0.246594
    43  O   -0.216127
    44  C    0.159713
    45  C    0.226902
    46  C   -0.047902
    47  C   -0.200783
    48  C    0.010951
    49  C    0.180039
    50  C    0.107675
    51  C   -0.026252
    52  C   -0.094383
    53  C    0.071443
    54  C   -0.009014
    55  C    0.028697
    56  C    0.026383
    57  C    0.060467
    58  C   -0.076548
    59  C   -0.010483
    60  C    0.040517
    61  C    0.011001
    62  C   -0.088087
    63  C    0.048242
    64  C   -0.048061
    65  H   -0.004776
    66  H   -0.004626
    67  H   -0.027472
    68  H   -0.055888
    69  H   -0.047816
    70  H    0.022750
    71  H    0.036328
    72  H    0.043401
    73  H   -0.037504
    74  H   -0.038142
    75  H    0.023029
    76  H    0.015056
    77  H    0.037262
    78  H    0.056565
    79  H    0.024335
    80  H    0.027437
    81  H    0.060064
    82  H    0.044267
    83  H    0.029867
    84  H    0.014252
    85  H    0.032937
    86  H    0.013710
    87  H    0.006283
    88  H   -0.005506
    89  H   -0.006214
    90  H    0.004206
    91  H    0.063722
    92  H    0.016188
    93  H    0.051116
    94  H    0.078374
    95  H    0.039959
    96  H    0.025169
    97  H    0.050442
    98  H    0.029948
    99  H    0.006482
   100  H   -0.020563
   101  H   -0.001956
   102  H    0.053013
   103  H    0.037887
   104  H    0.028970
   105  H   -0.063506
   106  H   -0.051616
   107  H   -0.008669
   108  H   -0.012850
   109  H   -0.024641
   110  H    0.005541
   111  H    0.040961
   112  H    0.005558
   113  H   -0.005001
   114  H    0.006180
   115  H    0.000817
   116  H   -0.007927
   117  H   -0.040820
   118  H    0.000388
   119  H   -0.024060
   120  H   -0.097796
   121  H    0.031210
   122  H    0.049773
   123  H    0.018512
   124  H    0.000581
   125  H    0.004519
   126  H    0.003289
   127  H    0.006258
   128  H    0.001773
   129  H   -0.011032
   130  H    0.009488
   131  H   -0.009154
   132  H    0.032089
   133  H   -0.000389
   134  H    0.008716
   135  H    0.014847
   136  H    0.016527
   137  H    0.184110
   138  H    0.196138
 Sum of Mulliken charges =  -0.00000

 Dipole moment (field-independent basis, Debye):
    X=              0.9422    Y=              3.9041    Z=              0.1559  Tot=              4.0192
 Quadrupole moment (field-independent basis, Debye-Ang):
   XX=           -367.7308   YY=           -383.5214   ZZ=           -396.2477
   XY=            -24.9978   XZ=             10.0162   YZ=             -3.7546

 Normal termination of Gaussian 16 at Fri Aug  9 15:01:22 2019.
