 Gaussian 16, Revision A.03,
 Gaussian 16:  ES64L-G16RevA.03 25-Dec-2016

 --------------------------
 # td=(NStates=1) B3LYP/SVP
 --------------------------

 --
 TD
 --
 Symbolic Z-matrix:
 Charge =  0 Multiplicity = 1

                         Standard orientation:
 ---------------------------------------------------------------------
 Center     Atomic      Atomic             Coordinates (Angstroms)
 Number     Number       Type             X           Y           Z
 ---------------------------------------------------------------------
      1          6           0       -5.215762   -1.983545    0.470913
      2          6           0       -4.612175    2.694100    1.623168
      3          6           0       -9.189746    3.403762   -0.033055
      4          6           0       -9.749353   -1.363161   -1.087203
      5          7           0       -5.191529    0.362819    0.960964
      6          6           0       -4.564920   -0.846056    0.831569
      7          6           0       -3.063904   -0.704898    1.342160
      8          6           0       -3.021511    0.657481    1.946157
      9          6           0       -4.285366    1.299576    1.389455
     10          6           0       -2.958193    0.672685    3.447153
     11          6           0       -2.142822   -0.907073    0.207205
     12          6           0       -0.670749   -0.634102    0.531751
     13          6           0        0.371596   -0.971599   -0.562335
     14          8           0        0.075399   -1.440169   -1.618909
     15          8           0        1.614619   -0.847832   -0.198519
     16          7           0       -6.975482    2.715830    0.599941
     17          6           0       -5.832034    3.326213    1.213005
     18          6           0       -6.056369    4.741910    1.179485
     19          6           0       -7.290884    4.979822    0.613341
     20          6           0       -7.921609    3.647214    0.394211
     21          6           0       -5.121116    5.746395    1.782738
     22          6           0       -7.847108    6.248176    0.308676
     23          6           0       -8.817737    6.678729   -0.472310
     24          7           0       -9.126070    0.905688   -0.622572
     25          6           0       -9.755365    2.174575   -0.524936
     26          6           0      -11.140713    2.104066   -1.072514
     27          6           0      -11.375312    0.787162   -1.394764
     28          6           0      -10.111032    0.071663   -1.082969
     29          6           0      -12.088768    3.198424   -1.216688
     30          6           0      -12.543325    0.138812   -1.854028
     31          6           0      -12.300223   -0.272251   -3.385542
     32          7           0       -7.562348   -1.269151   -0.265239
     33          6           0       -8.565565   -1.961653   -0.747609
     34          6           0       -8.292581   -3.409009   -0.678755
     35          6           0       -6.969555   -3.381894   -0.303253
     36          6           0       -6.520290   -2.012174   -0.023694
     37          6           0       -9.153710   -4.538064   -0.999881
     38          6           0       -5.874957   -4.281479    0.099352
     39          8           0       -5.799325   -5.481165    0.077382
     40          6           0       -4.668716   -3.416647    0.425552
     41          6           0       -4.124363   -3.902320    1.790895
     42          8           0       -4.454212   -3.589252    2.853134
     43          8           0       -3.139856   -4.806966    1.535808
     44          6           0       -2.707565   -5.473313    2.688881
     45          6           0        2.583276   -1.067756   -1.224834
     46          6           0        3.972492   -0.782912   -0.657614
     47          6           0        4.935363   -0.004673   -1.134403
     48          6           0        4.786141    0.649603   -2.447012
     49          6           0        6.234908    0.293652   -0.293711
     50          6           0        7.448877   -0.412986   -0.982075
     51          6           0        8.647313   -0.342445   -0.139901
     52          6           0       10.000060   -0.758710   -0.871188
     53          6           0        9.991102   -2.277586   -1.135401
     54          6           0       11.239683   -0.331403    0.112034
     55          6           0       12.584001   -0.692388   -0.468294
     56          6           0       13.819923   -0.073925    0.321887
     57          6           0       15.146869   -0.171655   -0.391857
     58          6           0       15.515935   -1.623943   -0.828664
     59          6           0       16.273923    0.547494    0.471880
     60          6           0       17.711400    0.639894   -0.113952
     61          6           0       18.516039    1.586055    0.630394
     62          6           0       20.001961    1.694784    0.113202
     63          6           0       20.163116    2.401857   -1.147262
     64          6           0       21.064334    2.484508    1.009307
     65          1           0       -3.943095    3.412135    2.023123
     66          1           0       -9.690750    4.209946   -0.257092
     67          1           0      -10.388754   -2.156039   -1.513329
     68          1           0       -2.946397   -1.422687    2.015230
     69          1           0       -2.220866    1.165015    1.498783
     70          1           0       -1.842535    0.363329    3.959233
     71          1           0       -3.523676    1.513712    3.744318
     72          1           0       -3.691152    0.043561    3.971550
     73          1           0       -2.152206   -2.095634   -0.075728
     74          1           0       -2.174132   -0.139590   -0.710242
     75          1           0       -0.369610    0.489849    0.699306
     76          1           0       -0.311259   -1.341491    1.303516
     77          1           0       -4.005650    5.711486    1.044273
     78          1           0       -5.372631    6.733491    1.520962
     79          1           0       -4.833001    5.696946    2.766461
     80          1           0       -7.189247    6.996770    0.604424
     81          1           0       -9.692606    6.040727   -1.132753
     82          1           0       -9.053410    7.865887   -0.661950
     83          1           0      -12.015874    3.934276   -0.412050
     84          1           0      -12.063354    3.837227   -2.168451
     85          1           0      -13.062281    2.762103   -1.350760
     86          1           0      -12.827772   -0.697833   -1.328003
     87          1           0      -13.502712    0.687921   -1.728508
     88          1           0      -12.191874    0.648595   -4.006129
     89          1           0      -11.363382   -0.824619   -3.518799
     90          1           0      -13.166931   -1.050383   -3.862399
     91          1           0       -9.937490   -4.535020   -0.154885
     92          1           0       -9.631138   -4.102530   -2.038854
     93          1           0       -8.488540   -5.602099   -1.360754
     94          1           0       -4.095828   -3.478909   -0.451660
     95          1           0       -1.964962   -6.018014    2.273253
     96          1           0       -2.323819   -4.792856    3.537067
     97          1           0       -3.494316   -6.038706    3.317382
     98          1           0        2.475486   -2.205058   -1.801658
     99          1           0        2.486265   -0.356676   -2.142846
    100          1           0        4.194679   -1.394213    0.492802
    101          1           0        5.223387    1.730332   -2.531972
    102          1           0        5.653459   -0.029231   -2.957194
    103          1           0        3.852577    0.672588   -2.959085
    104          1           0        6.155224    1.468074   -0.343637
    105          1           0        6.088193    0.134044    0.732693
    106          1           0        6.966946   -1.520581   -1.218286
    107          1           0        7.626845    0.060337   -1.983949
    108          1           0        8.843206    0.671900    0.288626
    109          1           0        8.555822   -0.948672    0.727889
    110          1           0       10.061495   -0.239568   -1.822970
    111          1           0        9.078466   -2.626532   -1.628498
    112          1           0       10.788335   -2.453980   -1.877197
    113          1           0        9.922861   -2.876754   -0.246415
    114          1           0       11.149260    0.925986    0.384589
    115          1           0       10.871586   -0.865390    1.102508
    116          1           0       12.824511   -1.786967   -0.609768
    117          1           0       12.636240   -0.314186   -1.633898
    118          1           0       13.564219    0.894577    0.374421
    119          1           0       14.028216   -0.612423    1.427934
    120          1           0       15.022425    0.414031   -1.282262
    121          1           0       14.855727   -2.050493   -1.737856
    122          1           0       16.596987   -1.410320   -1.288143
    123          1           0       15.707308   -2.303165    0.124438
    124          1           0       15.978743    1.604447    0.797046
    125          1           0       16.404042   -0.031870    1.454960
    126          1           0       18.297659   -0.221601   -0.336588
    127          1           0       17.629152    1.111841   -0.984821
    128          1           0       18.308692    2.694003    0.619188
    129          1           0       18.521948    1.442817    1.666904
    130          1           0       20.260644    0.565873    0.072287
    131          1           0       19.913242    3.534190   -1.163741
    132          1           0       21.154754    2.226667   -1.594853
    133          1           0       19.492304    1.745561   -1.756149
    134          1           0       21.060947    2.013878    1.985625
    135          1           0       22.066880    2.367634    0.621466
    136          1           0       20.860476    3.375660    1.046121
    137          1           0       -7.230711    1.728416    0.722410
    138          1           0       -7.531753   -0.248912   -0.201501
 ---------------------------------------------------------------------

 SCF Done:  E(RB3LYP) =  -2733.00203355     A.U. after   16 cycles

 Excitation energies and oscillator strengths:

 Excited State   1:      Singlet-A      1.9979 eV  620.56 nm  f=0.1363  <S**2>=0.000
     235 -> 238        0.31716
     236 -> 237        0.62201
 This state for optimization and/or second-order correction.
 Total Energy, E(TD-HF/TD-DFT) =  -2732.92861110
 Copying the excited state density for this state as the 1-particle RhoCI density.

 The electronic state is 1-A.
 Alpha  occ. eigenvalues --  -19.18486 -19.17594 -19.13727 -19.11952 -19.11056
 Alpha  occ. eigenvalues --  -14.37264 -14.36934 -14.32393 -14.30273 -10.31709
 Alpha  occ. eigenvalues --  -10.30575 -10.27260 -10.26823 -10.24173 -10.23735
 Alpha  occ. eigenvalues --  -10.23450 -10.23239 -10.23177 -10.23111 -10.22956
 Alpha  occ. eigenvalues --  -10.22654 -10.22061 -10.22002 -10.21802 -10.21720
 Alpha  occ. eigenvalues --  -10.21201 -10.21195 -10.21069 -10.20951 -10.20810
 Alpha  occ. eigenvalues --  -10.20668 -10.20628 -10.20602 -10.20510 -10.20441
 Alpha  occ. eigenvalues --  -10.20391 -10.20148 -10.20034 -10.20029 -10.19985
 Alpha  occ. eigenvalues --  -10.19975 -10.19818 -10.19814 -10.19676 -10.19515
 Alpha  occ. eigenvalues --  -10.19473 -10.19392 -10.19108 -10.18920 -10.18739
 Alpha  occ. eigenvalues --  -10.18703 -10.18702 -10.18634 -10.18570 -10.18515
 Alpha  occ. eigenvalues --  -10.18396 -10.18302 -10.18247 -10.18075 -10.17745
 Alpha  occ. eigenvalues --  -10.17643 -10.17128 -10.16689 -10.15432  -1.11660
 Alpha  occ. eigenvalues --   -1.11535  -1.03427  -1.03234  -1.01607  -1.00720
 Alpha  occ. eigenvalues --   -0.97580  -0.93772  -0.91685  -0.85453  -0.82734
 Alpha  occ. eigenvalues --   -0.82479  -0.82321  -0.82073  -0.81735  -0.80629
 Alpha  occ. eigenvalues --   -0.80582  -0.80177  -0.79667  -0.78753  -0.77707
 Alpha  occ. eigenvalues --   -0.76795  -0.76246  -0.76202  -0.75231  -0.74724
 Alpha  occ. eigenvalues --   -0.73544  -0.73370  -0.72420  -0.71815  -0.70984
 Alpha  occ. eigenvalues --   -0.70363  -0.69436  -0.68268  -0.67941  -0.67920
 Alpha  occ. eigenvalues --   -0.67642  -0.66239  -0.66040  -0.65658  -0.65218
 Alpha  occ. eigenvalues --   -0.64608  -0.62944  -0.62486  -0.61977  -0.61797
 Alpha  occ. eigenvalues --   -0.60896  -0.59705  -0.58710  -0.58249  -0.57696
 Alpha  occ. eigenvalues --   -0.57234  -0.56557  -0.56151  -0.55997  -0.55598
 Alpha  occ. eigenvalues --   -0.55280  -0.54815  -0.53900  -0.53736  -0.53437
 Alpha  occ. eigenvalues --   -0.52837  -0.52354  -0.51470  -0.51304  -0.50766
 Alpha  occ. eigenvalues --   -0.50186  -0.49803  -0.49138  -0.48229  -0.48114
 Alpha  occ. eigenvalues --   -0.48110  -0.47682  -0.47449  -0.47374  -0.47129
 Alpha  occ. eigenvalues --   -0.46738  -0.46518  -0.46325  -0.46038  -0.45654
 Alpha  occ. eigenvalues --   -0.45558  -0.45371  -0.45175  -0.44950  -0.44802
 Alpha  occ. eigenvalues --   -0.44358  -0.44202  -0.44078  -0.43812  -0.43425
 Alpha  occ. eigenvalues --   -0.43400  -0.43226  -0.42949  -0.42591  -0.42547
 Alpha  occ. eigenvalues --   -0.42434  -0.42345  -0.42101  -0.41957  -0.41781
 Alpha  occ. eigenvalues --   -0.41549  -0.41450  -0.41102  -0.40834  -0.40717
 Alpha  occ. eigenvalues --   -0.40317  -0.40222  -0.40014  -0.39552  -0.39281
 Alpha  occ. eigenvalues --   -0.39124  -0.39025  -0.38849  -0.38642  -0.38601
 Alpha  occ. eigenvalues --   -0.38303  -0.37965  -0.37793  -0.37728  -0.37638
 Alpha  occ. eigenvalues --   -0.37439  -0.37272  -0.37208  -0.37077  -0.36924
 Alpha  occ. eigenvalues --   -0.36744  -0.36580  -0.36356  -0.35944  -0.35898
 Alpha  occ. eigenvalues --   -0.35662  -0.35524  -0.35387  -0.35134  -0.34944
 Alpha  occ. eigenvalues --   -0.34706  -0.34428  -0.34184  -0.34041  -0.33595
 Alpha  occ. eigenvalues --   -0.33464  -0.33224  -0.32808  -0.32640  -0.32548
 Alpha  occ. eigenvalues --   -0.32485  -0.31765  -0.31435  -0.31393  -0.31127
 Alpha  occ. eigenvalues --   -0.31016  -0.30711  -0.30511  -0.30326  -0.30213
 Alpha  occ. eigenvalues --   -0.29446  -0.29403  -0.28694  -0.28078  -0.28062
 Alpha  occ. eigenvalues --   -0.27128  -0.26980  -0.26822  -0.26662  -0.26088
 Alpha  occ. eigenvalues --   -0.24880  -0.24156  -0.24117  -0.22272  -0.19969
 Alpha  occ. eigenvalues --   -0.18443
 Alpha virt. eigenvalues --   -0.09848  -0.08365  -0.04212  -0.01578   0.00597
 Alpha virt. eigenvalues --    0.00915   0.01102   0.02070   0.02364   0.03475
 Alpha virt. eigenvalues --    0.03849   0.03983   0.04147   0.04345   0.04434

 Mulliken charges:
               1
     1  C   -0.054936
     2  C   -0.034413
     3  C    0.023733
     4  C   -0.057622
     5  N   -0.195332
     6  C   -0.097711
     7  C    0.102292
     8  C    0.043982
     9  C   -0.018337
    10  C    0.099547
    11  C   -0.017247
    12  C    0.005533
    13  C    0.115308
    14  O   -0.229391
    15  O   -0.254456
    16  N   -0.064051
    17  C    0.080570
    18  C   -0.105359
    19  C    0.064810
    20  C    0.057453
    21  C    0.086706
    22  C    0.037443
    23  C   -0.160099
    24  N   -0.289645
    25  C    0.083961
    26  C   -0.143440
    27  C   -0.034932
    28  C    0.060606
    29  C    0.101976
    30  C    0.116041
    31  C   -0.061401
    32  N    0.113391
    33  C   -0.011475
    34  C   -0.116288
    35  C   -0.017512
    36  C    0.053250
    37  C   -0.035015
    38  C    0.020481
    39  O   -0.161331
    40  C    0.054355
    41  C    0.193661
    42  O   -0.153986
    43  O   -0.294798
    44  C    0.179781
    45  C    0.170618
    46  C   -0.120940
    47  C   -0.165984
    48  C    0.025154
    49  C    0.094879
    50  C   -0.025496
    51  C    0.077960
    52  C   -0.103577
    53  C    0.061614
    54  C   -0.026894
    55  C   -0.028509
    56  C    0.078412
    57  C   -0.049292
    58  C   -0.056821
    59  C   -0.012340
    60  C    0.161820
    61  C    0.023844
    62  C   -0.199483
    63  C    0.049362
    64  C    0.168083
    65  H   -0.037605
    66  H   -0.153150
    67  H   -0.035012
    68  H   -0.062029
    69  H   -0.041368
    70  H    0.049744
    71  H   -0.027605
    72  H    0.000203
    73  H    0.045781
    74  H    0.033760
    75  H    0.050775
    76  H    0.023002
    77  H    0.025204
    78  H   -0.002695
    79  H    0.030076
    80  H   -0.040754
    81  H    0.065276
    82  H    0.047925
    83  H    0.021646
    84  H    0.019760
    85  H   -0.009953
    86  H   -0.023955
    87  H   -0.008897
    88  H    0.022132
    89  H    0.020309
    90  H    0.021831
    91  H    0.069595
    92  H    0.059960
    93  H    0.097669
    94  H    0.046115
    95  H    0.008937
    96  H    0.020105
    97  H    0.037285
    98  H    0.060700
    99  H    0.023113
   100  H    0.015517
   101  H    0.026224
   102  H    0.043644
   103  H    0.020391
   104  H    0.011137
   105  H   -0.015570
   106  H    0.039603
   107  H    0.011243
   108  H   -0.007281
   109  H   -0.021937
   110  H   -0.012899
   111  H   -0.009174
   112  H    0.015773
   113  H   -0.001918
   114  H    0.020045
   115  H    0.017302
   116  H    0.022430
   117  H    0.005608
   118  H   -0.043173
   119  H    0.012276
   120  H   -0.025308
   121  H    0.047715
   122  H    0.020201
   123  H    0.032487
   124  H    0.009946
   125  H   -0.001670
   126  H   -0.010132
   127  H   -0.048073
   128  H   -0.021097
   129  H   -0.038779
   130  H   -0.005428
   131  H    0.027542
   132  H    0.004188
   133  H   -0.015247
   134  H   -0.012441
   135  H   -0.006194
   136  H   -0.072628
   137  H    0.158215
   138  H    0.141072
 Sum of Mulliken charges =  -0.00000

 Dipole moment (field-independent basis, Debye):
    X=              2.4504    Y=              4.2187    Z=              0.3531  Tot=              4.8914
 Quadrupole moment (field-independent basis, Debye-Ang):
   XX=           -358.8858   YY=           -383.9927   ZZ=           -395.5638
   XY=            -14.3705   XZ=              0.0153   YZ=             -0.1560

 Normal termination of Gaussian 16 at Fri Aug 23 23:50:38 2019.
