 Gaussian 16, Revision A.03,
 Gaussian 16:  ES64L-G16RevA.03 25-Dec-2016

 --------------------------
 # td=(NStates=1) B3LYP/SVP
 --------------------------

 --
 TD
 --
 Symbolic Z-matrix:
 Charge =  0 Multiplicity = 1

                         Standard orientation:
 ---------------------------------------------------------------------
 Center     Atomic      Atomic             Coordinates (Angstroms)
 Number     Number       Type             X           Y           Z
 ---------------------------------------------------------------------
      1          6           0       -5.160950   -1.918599    0.501248
      2          6           0       -4.731933    2.824433    1.517030
      3          6           0       -9.321779    3.373932   -0.272061
      4          6           0       -9.790154   -1.404093   -0.818858
      5          7           0       -5.182562    0.499825    0.713126
      6          6           0       -4.562360   -0.750190    0.887184
      7          6           0       -3.130405   -0.678173    1.419675
      8          6           0       -3.076234    0.853850    1.819820
      9          6           0       -4.354129    1.418066    1.250415
     10          6           0       -2.982511    0.986662    3.359593
     11          6           0       -2.138495   -0.873692    0.162449
     12          6           0       -0.662081   -0.649154    0.541561
     13          6           0        0.370779   -1.098508   -0.551158
     14          8           0       -0.002858   -1.514197   -1.666510
     15          8           0        1.544896   -0.686185   -0.309708
     16          7           0       -6.946281    2.759181    0.515890
     17          6           0       -5.856405    3.421925    1.117944
     18          6           0       -6.216963    4.867809    1.068828
     19          6           0       -7.398498    5.068502    0.475668
     20          6           0       -8.040523    3.759074    0.185591
     21          6           0       -5.188492    5.828463    1.571725
     22          6           0       -8.008352    6.360492    0.291063
     23          6           0       -8.987911    6.749947   -0.564512
     24          7           0       -9.168316    0.986341   -0.411641
     25          6           0       -9.830807    2.138084   -0.522902
     26          6           0      -11.202034    2.006346   -1.029633
     27          6           0      -11.419431    0.563191   -1.118268
     28          6           0      -10.129382   -0.008297   -0.689195
     29          6           0      -12.141540    3.098969   -1.365453
     30          6           0      -12.627122   -0.134624   -1.606225
     31          6           0      -12.667022   -0.339490   -3.137874
     32          7           0       -7.699562   -1.269760   -0.097215
     33          6           0       -8.618463   -2.057205   -0.607657
     34          6           0       -8.296613   -3.420399   -0.699276
     35          6           0       -6.910117   -3.374541   -0.300905
     36          6           0       -6.529617   -2.129033    0.052700
     37          6           0       -9.143596   -4.483924   -1.046943
     38          6           0       -5.844256   -4.253419   -0.008637
     39          8           0       -5.850929   -5.463251   -0.148288
     40          6           0       -4.574536   -3.344709    0.356484
     41          6           0       -3.841640   -3.840279    1.711316
     42          8           0       -3.946019   -3.501276    2.823384
     43          8           0       -2.891618   -4.781698    1.417671
     44          6           0       -2.335575   -5.570805    2.491022
     45          6           0        2.615579   -1.215970   -1.231072
     46          6           0        3.957620   -0.979935   -0.566515
     47          6           0        4.995870   -0.185579   -0.956743
     48          6           0        4.974369    0.583017   -2.317435
     49          6           0        6.319995   -0.170566   -0.237630
     50          6           0        7.527069   -0.746106   -0.868659
     51          6           0        8.721497   -0.537096   -0.073000
     52          6           0       10.075385   -0.991822   -0.602333
     53          6           0       10.087917   -2.533147   -0.900106
     54          6           0       11.258246   -0.507753    0.273734
     55          6           0       12.713746   -0.640214   -0.483325
     56          6           0       13.785642   -0.108237    0.303664
     57          6           0       15.235433   -0.205274   -0.354821
     58          6           0       15.800063   -1.624995   -0.470465
     59          6           0       16.206307    0.710541    0.467935
     60          6           0       17.623621    0.972208   -0.146354
     61          6           0       18.609775    1.807199    0.575444
     62          6           0       20.037806    1.937674   -0.012082
     63          6           0       20.068075    2.655347   -1.436163
     64          6           0       20.998313    2.710136    0.870781
     65          1           0       -3.952667    3.322461    2.021964
     66          1           0      -10.190944    4.191477   -0.369006
     67          1           0      -10.824370   -2.040210   -1.353113
     68          1           0       -3.004743   -1.230614    2.331873
     69          1           0       -2.323270    1.349603    1.182945
     70          1           0       -2.191454    0.218287    3.741344
     71          1           0       -2.821660    2.014889    3.740405
     72          1           0       -3.736090    0.568119    3.898798
     73          1           0       -2.209280   -1.676657   -0.247091
     74          1           0       -2.665451   -0.283312   -0.605037
     75          1           0       -0.468780    0.357409    0.895768
     76          1           0       -0.363842   -1.402418    1.360940
     77          1           0       -4.243082    5.982901    0.935837
     78          1           0       -5.746935    6.757975    1.688985
     79          1           0       -4.793493    5.275276    2.464620
     80          1           0       -7.450302    7.113185    0.912468
     81          1           0       -9.656756    6.180429   -1.374545
     82          1           0       -9.114614    7.754796   -0.346524
     83          1           0      -12.518079    4.010830   -0.703078
     84          1           0      -11.970391    3.615764   -2.404368
     85          1           0      -13.232057    2.814092   -1.659458
     86          1           0      -12.723528   -1.241330   -1.201927
     87          1           0      -13.626051    0.304672   -1.158144
     88          1           0      -13.002115    0.635950   -3.586020
     89          1           0      -11.920863   -0.771109   -3.595909
     90          1           0      -13.663132   -0.957782   -3.162003
     91          1           0      -10.099800   -4.416184   -0.562268
     92          1           0       -9.342849   -4.583931   -2.220513
     93          1           0       -8.617104   -5.439378   -0.906427
     94          1           0       -3.771434   -3.534219   -0.335072
     95          1           0       -1.377132   -6.008175    2.010592
     96          1           0       -2.043240   -4.875117    3.393458
     97          1           0       -3.235610   -6.172370    2.912875
     98          1           0        2.334784   -2.283295   -1.406697
     99          1           0        2.432625   -0.657115   -2.289220
    100          1           0        3.796703   -1.458201    0.407364
    101          1           0        5.216652    1.563462   -2.306400
    102          1           0        5.807501    0.152291   -3.003356
    103          1           0        4.058228    0.895028   -2.907023
    104          1           0        6.565254    0.879194   -0.352910
    105          1           0        6.064815   -0.620496    0.648290
    106          1           0        7.163180   -1.723082   -1.111947
    107          1           0        7.650346   -0.713595   -1.926051
    108          1           0        8.769374    0.570140    0.114856
    109          1           0        8.623622   -1.095261    1.066214
    110          1           0       10.368677   -0.360510   -1.637113
    111          1           0        9.294967   -2.730396   -1.526739
    112          1           0       11.006594   -2.989952   -1.431160
    113          1           0        9.916289   -3.041229   -0.017700
    114          1           0       11.124465    0.660679    0.446938
    115          1           0       11.102122   -1.237541    1.129825
    116          1           0       12.776508   -1.758681   -0.595348
    117          1           0       12.751560   -0.419653   -1.524445
    118          1           0       13.736870    0.967456    0.254166
    119          1           0       14.074171   -0.801457    1.194627
    120          1           0       15.206167    0.127109   -1.461602
    121          1           0       14.902108   -2.110628   -0.836816
    122          1           0       16.649276   -1.703564   -0.941941
    123          1           0       16.014462   -2.139140    0.479653
    124          1           0       15.794569    1.691752    0.436880
    125          1           0       16.214534    0.273466    1.380424
    126          1           0       18.058672   -0.089908   -0.181434
    127          1           0       17.524279    1.162742   -1.229038
    128          1           0       18.213141    2.911004    0.651435
    129          1           0       18.588362    1.714653    1.686245
    130          1           0       20.405258    0.875460   -0.133720
    131          1           0       19.993025    3.792417   -1.618334
    132          1           0       21.274502    2.420848   -2.200977
    133          1           0       19.153598    2.281484   -2.017998
    134          1           0       20.907181    2.350006    1.879845
    135          1           0       22.029823    2.721944    0.393513
    136          1           0       20.665854    3.805796    0.822028
    137          1           0       -7.215489    1.713367    0.370181
    138          1           0       -7.543320   -0.208391   -0.040068
 ---------------------------------------------------------------------

 SCF Done:  E(RB3LYP) =  -2732.95979139     A.U. after   16 cycles

 Excitation energies and oscillator strengths:

 Excited State   1:      Singlet-A      2.1323 eV  581.46 nm  f=0.1508  <S**2>=0.000
     235 -> 237       -0.20078
     235 -> 238        0.28782
     236 -> 237        0.58205
     236 -> 238        0.18243
 This state for optimization and/or second-order correction.
 Total Energy, E(TD-HF/TD-DFT) =  -2732.88143112
 Copying the excited state density for this state as the 1-particle RhoCI density.

 The electronic state is 1-A.
 Alpha  occ. eigenvalues --  -19.18569 -19.15954 -19.12516 -19.11469 -19.10705
 Alpha  occ. eigenvalues --  -14.36275 -14.36181 -14.32681 -14.30075 -10.31196
 Alpha  occ. eigenvalues --  -10.30870 -10.27010 -10.26560 -10.25651 -10.24611
 Alpha  occ. eigenvalues --  -10.24085 -10.23623 -10.22949 -10.22723 -10.22326
 Alpha  occ. eigenvalues --  -10.22316 -10.21988 -10.21902 -10.21732 -10.21490
 Alpha  occ. eigenvalues --  -10.20997 -10.20907 -10.20811 -10.20778 -10.20774
 Alpha  occ. eigenvalues --  -10.20744 -10.20723 -10.20671 -10.20568 -10.20555
 Alpha  occ. eigenvalues --  -10.20545 -10.20400 -10.20331 -10.20269 -10.20264
 Alpha  occ. eigenvalues --  -10.20178 -10.20141 -10.20103 -10.20098 -10.19903
 Alpha  occ. eigenvalues --  -10.19627 -10.19519 -10.19376 -10.19324 -10.19271
 Alpha  occ. eigenvalues --  -10.19190 -10.19040 -10.18951 -10.18725 -10.18630
 Alpha  occ. eigenvalues --  -10.18459 -10.18318 -10.18196 -10.18170 -10.18051
 Alpha  occ. eigenvalues --  -10.18044 -10.17889 -10.17161 -10.16282  -1.10921
 Alpha  occ. eigenvalues --   -1.09624  -1.01901  -1.00374  -0.98256  -0.98009
 Alpha  occ. eigenvalues --   -0.94157  -0.93245  -0.92421  -0.85080  -0.84262
 Alpha  occ. eigenvalues --   -0.82130  -0.82001  -0.80991  -0.80834  -0.80503
 Alpha  occ. eigenvalues --   -0.80030  -0.79998  -0.78965  -0.78349  -0.78030
 Alpha  occ. eigenvalues --   -0.76849  -0.76178  -0.75598  -0.75234  -0.74316
 Alpha  occ. eigenvalues --   -0.73699  -0.73322  -0.72751  -0.72209  -0.70700
 Alpha  occ. eigenvalues --   -0.70097  -0.69419  -0.68736  -0.68415  -0.68307
 Alpha  occ. eigenvalues --   -0.67659  -0.66799  -0.66224  -0.65604  -0.65346
 Alpha  occ. eigenvalues --   -0.64321  -0.63657  -0.62609  -0.62087  -0.61572
 Alpha  occ. eigenvalues --   -0.61012  -0.60519  -0.58809  -0.57860  -0.57253
 Alpha  occ. eigenvalues --   -0.56158  -0.55914  -0.55476  -0.55397  -0.55259
 Alpha  occ. eigenvalues --   -0.54702  -0.54629  -0.53732  -0.53655  -0.52715
 Alpha  occ. eigenvalues --   -0.51960  -0.51541  -0.50955  -0.50549  -0.50028
 Alpha  occ. eigenvalues --   -0.49971  -0.49679  -0.49465  -0.49038  -0.48873
 Alpha  occ. eigenvalues --   -0.48516  -0.48253  -0.47611  -0.47088  -0.46802
 Alpha  occ. eigenvalues --   -0.46547  -0.46352  -0.46070  -0.45762  -0.45695
 Alpha  occ. eigenvalues --   -0.45559  -0.45397  -0.45001  -0.44867  -0.44576
 Alpha  occ. eigenvalues --   -0.44308  -0.44121  -0.43990  -0.43767  -0.43579
 Alpha  occ. eigenvalues --   -0.43524  -0.43257  -0.43213  -0.43131  -0.42613
 Alpha  occ. eigenvalues --   -0.42553  -0.42178  -0.41903  -0.41628  -0.41362
 Alpha  occ. eigenvalues --   -0.41267  -0.41120  -0.40843  -0.40549  -0.40502
 Alpha  occ. eigenvalues --   -0.40303  -0.40203  -0.39892  -0.39653  -0.39353
 Alpha  occ. eigenvalues --   -0.39108  -0.39006  -0.38846  -0.38631  -0.38566
 Alpha  occ. eigenvalues --   -0.38285  -0.38095  -0.38065  -0.37919  -0.37514
 Alpha  occ. eigenvalues --   -0.37444  -0.37360  -0.37137  -0.37078  -0.36813
 Alpha  occ. eigenvalues --   -0.36665  -0.36581  -0.36415  -0.35910  -0.35717
 Alpha  occ. eigenvalues --   -0.35611  -0.35348  -0.35089  -0.34900  -0.34586
 Alpha  occ. eigenvalues --   -0.34371  -0.34188  -0.34063  -0.33933  -0.33808
 Alpha  occ. eigenvalues --   -0.33487  -0.33383  -0.33195  -0.33002  -0.32407
 Alpha  occ. eigenvalues --   -0.32230  -0.32075  -0.31711  -0.31315  -0.31082
 Alpha  occ. eigenvalues --   -0.30406  -0.30281  -0.30108  -0.29986  -0.29479
 Alpha  occ. eigenvalues --   -0.29209  -0.29149  -0.28336  -0.28330  -0.27533
 Alpha  occ. eigenvalues --   -0.27422  -0.26966  -0.26617  -0.26003  -0.25195
 Alpha  occ. eigenvalues --   -0.25027  -0.24575  -0.23815  -0.21873  -0.19982
 Alpha  occ. eigenvalues --   -0.18901
 Alpha virt. eigenvalues --   -0.10046  -0.07956  -0.04431  -0.01793  -0.01756
 Alpha virt. eigenvalues --   -0.00502   0.00604   0.00880   0.02042   0.02627
 Alpha virt. eigenvalues --    0.03106   0.03552   0.04141   0.04278   0.04414

 Mulliken charges:
               1
     1  C    0.082434
     2  C   -0.086332
     3  C   -0.121070
     4  C   -0.181587
     5  N   -0.189691
     6  C   -0.119750
     7  C   -0.056353
     8  C    0.002783
     9  C   -0.051122
    10  C    0.092756
    11  C    0.215915
    12  C    0.041073
    13  C    0.143274
    14  O   -0.291098
    15  O   -0.262147
    16  N   -0.229548
    17  C    0.236209
    18  C   -0.136456
    19  C    0.068517
    20  C    0.122180
    21  C    0.080356
    22  C   -0.096926
    23  C   -0.010082
    24  N   -0.258237
    25  C    0.060568
    26  C   -0.059462
    27  C   -0.033053
    28  C    0.065389
    29  C   -0.049200
    30  C   -0.062298
    31  C    0.066342
    32  N   -0.104120
    33  C    0.138471
    34  C   -0.098837
    35  C    0.041572
    36  C    0.061279
    37  C    0.079846
    38  C    0.038490
    39  O   -0.180629
    40  C   -0.068537
    41  C    0.171837
    42  O   -0.175623
    43  O   -0.333010
    44  C    0.121823
    45  C    0.186975
    46  C   -0.082375
    47  C   -0.101613
    48  C    0.038587
    49  C    0.174920
    50  C    0.049624
    51  C    0.036004
    52  C   -0.147710
    53  C    0.089502
    54  C    0.010253
    55  C    0.016694
    56  C    0.102247
    57  C   -0.197624
    58  C    0.109605
    59  C    0.121024
    60  C    0.017943
    61  C    0.025046
    62  C   -0.071466
    63  C   -0.097425
    64  C    0.052583
    65  H   -0.055528
    66  H    0.020018
    67  H    0.031523
    68  H    0.010024
    69  H    0.005409
    70  H    0.015355
    71  H    0.023763
    72  H   -0.007851
    73  H   -0.111135
    74  H    0.008410
    75  H    0.030814
    76  H    0.027718
    77  H    0.047850
    78  H    0.014544
    79  H    0.036886
    80  H    0.004164
    81  H    0.069243
    82  H    0.006046
    83  H    0.044557
    84  H    0.026828
    85  H    0.005369
    86  H    0.011072
    87  H    0.029801
    88  H    0.015140
    89  H   -0.008098
    90  H    0.011702
    91  H    0.027796
    92  H    0.036494
    93  H    0.030818
    94  H    0.055960
    95  H    0.062755
    96  H    0.039066
    97  H    0.054304
    98  H    0.042181
    99  H    0.053929
   100  H   -0.001255
   101  H   -0.019722
   102  H    0.033790
   103  H    0.019789
   104  H   -0.008970
   105  H   -0.016404
   106  H   -0.035176
   107  H   -0.026600
   108  H   -0.000003
   109  H    0.007511
   110  H   -0.005454
   111  H   -0.018909
   112  H    0.026116
   113  H   -0.015652
   114  H    0.017638
   115  H    0.009983
   116  H   -0.010066
   117  H   -0.019814
   118  H   -0.005507
   119  H    0.021351
   120  H   -0.013035
   121  H   -0.010626
   122  H   -0.023484
   123  H   -0.016686
   124  H   -0.020788
   125  H   -0.034362
   126  H   -0.016626
   127  H   -0.001331
   128  H   -0.021395
   129  H   -0.010917
   130  H    0.011033
   131  H    0.034943
   132  H    0.011282
   133  H    0.020195
   134  H    0.004396
   135  H    0.022524
   136  H    0.006308
   137  H    0.185150
   138  H    0.195106
 Sum of Mulliken charges =  -0.00000

 Dipole moment (field-independent basis, Debye):
    X=              3.2061    Y=              4.2652    Z=              0.6612  Tot=              5.3766
 Quadrupole moment (field-independent basis, Debye-Ang):
   XX=           -367.8029   YY=           -384.8011   ZZ=           -396.2480
   XY=            -30.2086   XZ=             10.7097   YZ=             -2.3987

 Normal termination of Gaussian 16 at Sun Aug 18 03:38:53 2019.
