 Gaussian 16, Revision A.03,
 Gaussian 16:  ES64L-G16RevA.03 25-Dec-2016

 --------------------------
 # td=(NStates=1) B3LYP/SVP
 --------------------------

 --
 TD
 --
 Symbolic Z-matrix:
 Charge =  0 Multiplicity = 1

                         Standard orientation:
 ---------------------------------------------------------------------
 Center     Atomic      Atomic             Coordinates (Angstroms)
 Number     Number       Type             X           Y           Z
 ---------------------------------------------------------------------
      1          6           0       -5.211936   -1.940033    0.556759
      2          6           0       -4.699752    2.810583    1.409235
      3          6           0       -9.220785    3.431931   -0.216694
      4          6           0       -9.883021   -1.350667   -1.056657
      5          7           0       -5.220919    0.481285    0.876564
      6          6           0       -4.539064   -0.666103    0.924707
      7          6           0       -3.067638   -0.533481    1.212432
      8          6           0       -3.053178    0.902749    1.863432
      9          6           0       -4.333985    1.411355    1.335298
     10          6           0       -3.194788    0.735675    3.344252
     11          6           0       -2.104046   -0.734610    0.031603
     12          6           0       -0.579053   -0.936070    0.591383
     13          6           0        0.334144   -1.223075   -0.551457
     14          8           0        0.024730   -1.756476   -1.655777
     15          8           0        1.528814   -0.887786   -0.193691
     16          7           0       -6.980844    2.783628    0.401329
     17          6           0       -5.893541    3.423560    0.916297
     18          6           0       -6.152557    4.762421    1.036268
     19          6           0       -7.399353    5.052634    0.594307
     20          6           0       -7.980921    3.712685    0.157053
     21          6           0       -5.034434    5.869831    1.361934
     22          6           0       -8.092219    6.324104    0.469808
     23          6           0       -9.068842    6.701167   -0.435130
     24          7           0       -9.123184    1.040584   -0.474976
     25          6           0       -9.822166    2.209282   -0.532751
     26          6           0      -11.232070    2.007071   -0.916185
     27          6           0      -11.352199    0.641345   -1.135244
     28          6           0      -10.005391    0.024932   -0.985866
     29          6           0      -12.199583    3.064037   -0.916940
     30          6           0      -12.569704   -0.051234   -1.691241
     31          6           0      -12.734957   -0.400726   -3.348527
     32          7           0       -7.587132   -1.201376   -0.317159
     33          6           0       -8.650973   -1.971987   -0.700020
     34          6           0       -8.185548   -3.403358   -0.683470
     35          6           0       -6.873775   -3.430103   -0.214652
     36          6           0       -6.552529   -2.017246    0.099722
     37          6           0       -9.104824   -4.492959   -1.037882
     38          6           0       -5.726704   -4.255065    0.072308
     39          8           0       -5.701995   -5.546988   -0.062655
     40          6           0       -4.511624   -3.361317    0.557499
     41          6           0       -3.914018   -3.784949    1.870507
     42          8           0       -4.173341   -3.391492    2.860604
     43          8           0       -2.951291   -4.769543    1.554792
     44          6           0       -2.508623   -5.603270    2.727871
     45          6           0        2.512027   -1.237573   -1.167676
     46          6           0        3.855159   -0.885595   -0.639450
     47          6           0        4.925960   -0.265332   -1.215548
     48          6           0        4.955087    0.280635   -2.507131
     49          6           0        6.219524   -0.025162   -0.473379
     50          6           0        7.460207   -0.723441   -1.027824
     51          6           0        8.742516   -0.332460   -0.219331
     52          6           0       10.082245   -0.839937   -0.754064
     53          6           0       10.082046   -2.391415   -0.818895
     54          6           0       11.264675   -0.341315    0.070035
     55          6           0       12.657063   -0.653408   -0.458653
     56          6           0       13.745554    0.090281    0.311630
     57          6           0       15.203954   -0.040330   -0.224091
     58          6           0       15.754513   -1.506166   -0.158036
     59          6           0       16.236419    1.049216    0.276570
     60          6           0       17.669924    0.932138   -0.136957
     61          6           0       18.523438    1.892523    0.481576
     62          6           0       20.010521    1.758113    0.020635
     63          6           0       20.378024    2.219106   -1.388308
     64          6           0       20.934563    2.581238    1.125496
     65          1           0       -3.924502    3.300401    1.931025
     66          1           0       -9.806989    4.490238   -0.286450
     67          1           0      -10.573710   -1.980583   -1.730526
     68          1           0       -3.045696   -1.363632    1.890230
     69          1           0       -2.278875    1.515863    1.601297
     70          1           0       -2.446548    0.337246    3.971321
     71          1           0       -3.379084    1.869808    3.578147
     72          1           0       -4.041522    0.330930    3.641165
     73          1           0       -2.376884   -1.700622   -0.539424
     74          1           0       -2.103120    0.266168   -0.587402
     75          1           0       -0.281569   -0.148213    1.299963
     76          1           0       -0.559175   -1.838558    1.213658
     77          1           0       -4.063570    5.773670    0.679689
     78          1           0       -5.367960    6.879151    1.007463
     79          1           0       -4.871619    5.719607    2.500508
     80          1           0       -7.887100    7.170837    1.131802
     81          1           0       -9.713378    6.034495   -1.305541
     82          1           0       -9.397212    7.654476   -0.248594
     83          1           0      -12.434421    3.566896    0.024309
     84          1           0      -12.010801    3.764802   -1.712472
     85          1           0      -13.246271    2.559736   -1.209596
     86          1           0      -12.915911   -0.995509   -1.230388
     87          1           0      -13.466305    0.511926   -1.426728
     88          1           0      -12.615161    0.537778   -3.930927
     89          1           0      -11.956186   -1.156443   -3.465435
     90          1           0      -13.670763   -0.937543   -3.394142
     91          1           0       -9.780455   -4.869184   -0.227297
     92          1           0       -9.508566   -4.159226   -1.920275
     93          1           0       -8.389224   -5.366780   -1.350761
     94          1           0       -3.719845   -3.471753   -0.415673
     95          1           0       -1.703354   -6.383219    2.599454
     96          1           0       -2.029884   -4.931031    3.426859
     97          1           0       -3.476919   -5.937385    3.261042
     98          1           0        2.244719   -2.394792   -1.462809
     99          1           0        2.483279   -0.627723   -2.014709
    100          1           0        3.942830   -1.464326    0.268575
    101          1           0        5.567669    1.214686   -2.737812
    102          1           0        5.537100   -0.311404   -3.176812
    103          1           0        4.033988    0.358161   -3.084253
    104          1           0        6.349395    0.991552   -0.182750
    105          1           0        6.261782   -0.661588    0.636476
    106          1           0        7.342840   -1.858686   -1.188920
    107          1           0        7.786388   -0.302872   -2.136042
    108          1           0        8.773925    0.752786    0.110205
    109          1           0        8.575245   -0.941021    0.886833
    110          1           0       10.336214   -0.645797   -1.854328
    111          1           0        9.429817   -2.776990   -1.570003
    112          1           0       11.267331   -2.506620   -1.267709
    113          1           0        9.947868   -2.897888    0.197024
    114          1           0       11.255181    0.681446    0.305490
    115          1           0       11.259800   -0.826824    1.052700
    116          1           0       12.841560   -1.726974   -0.720318
    117          1           0       12.774729   -0.434206   -1.618417
    118          1           0       13.383771    1.336418    0.399361
    119          1           0       13.727946   -0.342912    1.254784
    120          1           0       15.109283    0.137519   -1.448948
    121          1           0       15.174572   -2.369969   -0.702807
    122          1           0       16.686563   -1.389261   -0.650437
    123          1           0       16.031505   -1.840442    1.006602
    124          1           0       15.730045    2.001632    0.132468
    125          1           0       16.276731    0.892639    1.310050
    126          1           0       18.222479   -0.034913   -0.066994
    127          1           0       17.806497    0.905641   -1.328624
    128          1           0       18.129251    2.862168    0.288569
    129          1           0       18.591193    1.776203    1.597242
    130          1           0       20.268703    0.583157    0.220780
    131          1           0       20.091747    3.289848   -1.520504
    132          1           0       21.461899    1.912156   -1.758376
    133          1           0       19.635123    1.636460   -2.258510
    134          1           0       20.645296    2.164226    2.177679
    135          1           0       22.058033    2.668865    0.790464
    136          1           0       20.756183    3.702851    1.052313
    137          1           0       -7.193431    1.841522    0.289286
    138          1           0       -7.555806   -0.250988   -0.268965
 ---------------------------------------------------------------------

 SCF Done:  E(RB3LYP) =  -2733.03609009     A.U. after   17 cycles

 Excitation energies and oscillator strengths:

 Excited State   1:      Singlet-A      1.9798 eV  626.24 nm  f=0.2017  <S**2>=0.000
     235 -> 237       -0.13429
     235 -> 238       -0.28120
     236 -> 237        0.62376
     236 -> 238       -0.11118
 This state for optimization and/or second-order correction.
 Total Energy, E(TD-HF/TD-DFT) =  -2732.96333354
 Copying the excited state density for this state as the 1-particle RhoCI density.

 The electronic state is 1-A.
 Alpha  occ. eigenvalues --  -19.19166 -19.16201 -19.14554 -19.11725 -19.11306
 Alpha  occ. eigenvalues --  -14.37045 -14.36455 -14.32521 -14.30222 -10.31574
 Alpha  occ. eigenvalues --  -10.31445 -10.28036 -10.25022 -10.24786 -10.24009
 Alpha  occ. eigenvalues --  -10.23839 -10.23682 -10.23252 -10.23146 -10.22978
 Alpha  occ. eigenvalues --  -10.22827 -10.21978 -10.21789 -10.21513 -10.21463
 Alpha  occ. eigenvalues --  -10.21396 -10.21286 -10.21179 -10.21128 -10.21109
 Alpha  occ. eigenvalues --  -10.21068 -10.20937 -10.20805 -10.20784 -10.20738
 Alpha  occ. eigenvalues --  -10.20736 -10.20727 -10.20695 -10.20650 -10.20091
 Alpha  occ. eigenvalues --  -10.20041 -10.19996 -10.19877 -10.19767 -10.19676
 Alpha  occ. eigenvalues --  -10.19539 -10.19466 -10.19445 -10.19431 -10.19429
 Alpha  occ. eigenvalues --  -10.19129 -10.19027 -10.18984 -10.18954 -10.18905
 Alpha  occ. eigenvalues --  -10.18780 -10.18722 -10.18556 -10.18407 -10.18186
 Alpha  occ. eigenvalues --  -10.18112 -10.18034 -10.17830 -10.17762  -1.13214
 Alpha  occ. eigenvalues --   -1.11902  -1.00949  -0.98550  -0.98389  -0.98349
 Alpha  occ. eigenvalues --   -0.97252  -0.95496  -0.91435  -0.83855  -0.83659
 Alpha  occ. eigenvalues --   -0.82269  -0.82045  -0.81606  -0.81449  -0.80985
 Alpha  occ. eigenvalues --   -0.80053  -0.79422  -0.78897  -0.78409  -0.78245
 Alpha  occ. eigenvalues --   -0.76959  -0.76144  -0.75390  -0.74793  -0.74213
 Alpha  occ. eigenvalues --   -0.73670  -0.72702  -0.72153  -0.71899  -0.70699
 Alpha  occ. eigenvalues --   -0.69610  -0.68669  -0.68635  -0.67876  -0.67184
 Alpha  occ. eigenvalues --   -0.67044  -0.66571  -0.66027  -0.65708  -0.65472
 Alpha  occ. eigenvalues --   -0.64377  -0.63349  -0.62488  -0.61844  -0.61473
 Alpha  occ. eigenvalues --   -0.60899  -0.59176  -0.58734  -0.58563  -0.57538
 Alpha  occ. eigenvalues --   -0.57071  -0.56801  -0.56325  -0.55884  -0.55468
 Alpha  occ. eigenvalues --   -0.54893  -0.54468  -0.54414  -0.53699  -0.53284
 Alpha  occ. eigenvalues --   -0.52655  -0.52091  -0.51577  -0.51262  -0.50519
 Alpha  occ. eigenvalues --   -0.50178  -0.49388  -0.49197  -0.48978  -0.48235
 Alpha  occ. eigenvalues --   -0.48091  -0.47917  -0.47823  -0.47308  -0.47216
 Alpha  occ. eigenvalues --   -0.46890  -0.46633  -0.46032  -0.45566  -0.45225
 Alpha  occ. eigenvalues --   -0.45058  -0.44906  -0.44773  -0.44736  -0.44513
 Alpha  occ. eigenvalues --   -0.44303  -0.44169  -0.43950  -0.43818  -0.43691
 Alpha  occ. eigenvalues --   -0.43216  -0.43090  -0.42710  -0.42488  -0.42376
 Alpha  occ. eigenvalues --   -0.42237  -0.42118  -0.42084  -0.41857  -0.41772
 Alpha  occ. eigenvalues --   -0.41600  -0.41403  -0.41129  -0.40905  -0.40890
 Alpha  occ. eigenvalues --   -0.40269  -0.39986  -0.39686  -0.39439  -0.39371
 Alpha  occ. eigenvalues --   -0.39080  -0.38865  -0.38398  -0.38199  -0.38055
 Alpha  occ. eigenvalues --   -0.38027  -0.37920  -0.37801  -0.37640  -0.37528
 Alpha  occ. eigenvalues --   -0.37305  -0.36827  -0.36762  -0.36677  -0.36551
 Alpha  occ. eigenvalues --   -0.36349  -0.36036  -0.36028  -0.35707  -0.35630
 Alpha  occ. eigenvalues --   -0.35471  -0.35030  -0.34978  -0.34855  -0.34763
 Alpha  occ. eigenvalues --   -0.34574  -0.34354  -0.34286  -0.33908  -0.33687
 Alpha  occ. eigenvalues --   -0.33491  -0.33300  -0.32762  -0.32545  -0.32457
 Alpha  occ. eigenvalues --   -0.31910  -0.31651  -0.31317  -0.31135  -0.31023
 Alpha  occ. eigenvalues --   -0.30993  -0.30525  -0.30022  -0.30004  -0.29826
 Alpha  occ. eigenvalues --   -0.29635  -0.29570  -0.29090  -0.28744  -0.28396
 Alpha  occ. eigenvalues --   -0.27916  -0.27641  -0.26387  -0.26127  -0.25687
 Alpha  occ. eigenvalues --   -0.24647  -0.24415  -0.24252  -0.22019  -0.20046
 Alpha  occ. eigenvalues --   -0.18128
 Alpha virt. eigenvalues --   -0.09961  -0.08036  -0.05154  -0.02576  -0.01334
 Alpha virt. eigenvalues --   -0.00209   0.00114   0.01260   0.01776   0.03526
 Alpha virt. eigenvalues --    0.03605   0.03731   0.04221   0.04292   0.04440

 Mulliken charges:
               1
     1  C   -0.088416
     2  C   -0.050027
     3  C   -0.098170
     4  C   -0.108330
     5  N   -0.145938
     6  C   -0.090516
     7  C    0.025661
     8  C    0.028179
     9  C   -0.087513
    10  C    0.165262
    11  C    0.046660
    12  C    0.028266
    13  C    0.183836
    14  O   -0.296089
    15  O   -0.249249
    16  N   -0.009901
    17  C    0.175796
    18  C   -0.139766
    19  C    0.097487
    20  C    0.014033
    21  C    0.025475
    22  C   -0.094588
    23  C   -0.057710
    24  N   -0.306589
    25  C    0.078673
    26  C   -0.106198
    27  C   -0.064921
    28  C    0.095845
    29  C    0.100043
    30  C   -0.002758
    31  C    0.008111
    32  N    0.010851
    33  C    0.058871
    34  C   -0.182026
    35  C    0.062734
    36  C    0.104262
    37  C    0.107663
    38  C    0.054401
    39  O   -0.254732
    40  C   -0.092038
    41  C    0.204757
    42  O   -0.075674
    43  O   -0.382563
    44  C    0.170110
    45  C    0.261014
    46  C   -0.123054
    47  C   -0.040195
    48  C    0.088960
    49  C    0.028093
    50  C   -0.045189
    51  C   -0.017191
    52  C   -0.058746
    53  C   -0.033987
    54  C    0.118482
    55  C   -0.059343
    56  C    0.063217
    57  C   -0.136791
    58  C   -0.021350
    59  C    0.143996
    60  C   -0.015236
    61  C    0.077258
    62  C   -0.144935
    63  C   -0.036789
    64  C   -0.033141
    65  H   -0.051740
    66  H    0.010144
    67  H    0.032473
    68  H   -0.022872
    69  H   -0.042843
    70  H    0.009109
    71  H   -0.014617
    72  H   -0.023443
    73  H    0.045809
    74  H    0.031713
    75  H    0.022469
    76  H    0.028504
    77  H    0.048629
    78  H    0.028518
    79  H    0.056063
    80  H    0.011539
    81  H    0.074667
    82  H    0.004468
    83  H    0.028917
    84  H    0.010775
    85  H    0.005735
    86  H   -0.008132
    87  H   -0.016238
    88  H    0.041682
    89  H    0.007969
    90  H    0.014782
    91  H    0.059547
    92  H   -0.001802
    93  H    0.040512
    94  H    0.118750
    95  H    0.056350
    96  H    0.009116
    97  H    0.046814
    98  H    0.063849
    99  H   -0.020236
   100  H   -0.018883
   101  H    0.012102
   102  H    0.007248
   103  H    0.006829
   104  H    0.015842
   105  H    0.012419
   106  H    0.034869
   107  H    0.004036
   108  H    0.009768
   109  H    0.000122
   110  H    0.000894
   111  H    0.014783
   112  H    0.015074
   113  H    0.026074
   114  H   -0.029653
   115  H   -0.017639
   116  H    0.003960
   117  H   -0.023947
   118  H    0.014092
   119  H   -0.019596
   120  H   -0.001271
   121  H    0.037563
   122  H    0.006059
   123  H    0.018707
   124  H   -0.002834
   125  H   -0.031171
   126  H   -0.014029
   127  H   -0.009203
   128  H   -0.023306
   129  H   -0.007308
   130  H    0.015442
   131  H    0.025805
   132  H    0.044994
   133  H    0.017870
   134  H    0.039560
   135  H    0.018731
   136  H    0.008197
   137  H    0.105668
   138  H    0.096819
 Sum of Mulliken charges =  -0.00000

 Dipole moment (field-independent basis, Debye):
    X=              3.6566    Y=              5.0932    Z=              1.3920  Tot=              6.4225
 Quadrupole moment (field-independent basis, Debye-Ang):
   XX=           -356.4931   YY=           -386.9303   ZZ=           -392.7966
   XY=            -23.1116   XZ=              4.0498   YZ=             -5.0403

 Normal termination of Gaussian 16 at Wed Aug 28 06:23:34 2019.
