 Gaussian 16, Revision A.03,
 Gaussian 16:  ES64L-G16RevA.03 25-Dec-2016

 --------------------------
 # td=(NStates=1) B3LYP/SVP
 --------------------------

 --
 TD
 --
 Symbolic Z-matrix:
 Charge =  0 Multiplicity = 1

                         Standard orientation:
 ---------------------------------------------------------------------
 Center     Atomic      Atomic             Coordinates (Angstroms)
 Number     Number       Type             X           Y           Z
 ---------------------------------------------------------------------
      1          6           0       -5.090276   -1.879799    0.462312
      2          6           0       -4.726865    2.789811    1.474443
      3          6           0       -9.284138    3.278175   -0.253026
      4          6           0       -9.852404   -1.434223   -0.991876
      5          7           0       -5.172234    0.438604    0.870140
      6          6           0       -4.484131   -0.721962    0.893914
      7          6           0       -3.018060   -0.504037    1.383466
      8          6           0       -3.044398    0.894656    1.939763
      9          6           0       -4.337341    1.502504    1.357306
     10          6           0       -3.201948    0.967597    3.479073
     11          6           0       -2.014267   -0.673650    0.219198
     12          6           0       -0.574521   -0.671207    0.673623
     13          6           0        0.358919   -0.873929   -0.546197
     14          8           0       -0.015308   -1.297760   -1.637341
     15          8           0        1.605492   -0.760690   -0.107668
     16          7           0       -6.859697    2.709418    0.447733
     17          6           0       -5.942386    3.392356    1.022843
     18          6           0       -6.182501    4.835983    0.971780
     19          6           0       -7.602307    4.955128    0.524890
     20          6           0       -7.962240    3.611325    0.170735
     21          6           0       -5.224691    5.846595    1.416443
     22          6           0       -8.317188    6.174200    0.455597
     23          6           0       -9.135082    6.617433   -0.521988
     24          7           0       -9.189166    0.783802   -0.521845
     25          6           0       -9.898329    2.037097   -0.566697
     26          6           0      -11.300823    1.815234   -0.955683
     27          6           0      -11.415399    0.470947   -1.252249
     28          6           0      -10.127819   -0.060954   -0.936266
     29          6           0      -12.280258    2.871710   -1.078758
     30          6           0      -12.568325   -0.244884   -1.797529
     31          6           0      -12.447656   -0.421672   -3.415514
     32          7           0       -7.447052   -1.263250   -0.338011
     33          6           0       -8.529079   -2.081789   -0.658298
     34          6           0       -8.150175   -3.444080   -0.615641
     35          6           0       -6.853101   -3.456489   -0.128781
     36          6           0       -6.403112   -2.080500    0.039490
     37          6           0       -8.899457   -4.673456   -0.992855
     38          6           0       -5.644456   -4.288566    0.019204
     39          8           0       -5.495618   -5.465871   -0.063462
     40          6           0       -4.414493   -3.267307    0.440888
     41          6           0       -3.960249   -3.737854    1.839705
     42          8           0       -4.197455   -3.367248    2.961094
     43          8           0       -3.107597   -4.777081    1.641089
     44          6           0       -2.564770   -5.358394    2.866223
     45          6           0        2.649197   -1.102756   -1.149174
     46          6           0        3.881197   -0.715332   -0.567559
     47          6           0        4.973880   -0.091529   -1.217485
     48          6           0        4.841846    0.380224   -2.609594
     49          6           0        6.213585    0.231368   -0.471950
     50          6           0        7.543373   -0.398543   -1.089400
     51          6           0        8.764059   -0.261265   -0.139444
     52          6           0       10.062469   -0.736511   -0.936915
     53          6           0       10.054971   -2.172916   -1.235068
     54          6           0       11.266730   -0.466469    0.084304
     55          6           0       12.652507   -0.667787   -0.503903
     56          6           0       13.807841   -0.084585    0.364337
     57          6           0       15.229842   -0.149388   -0.268964
     58          6           0       15.639171   -1.683152   -0.501139
     59          6           0       16.234516    0.502748    0.622532
     60          6           0       17.517182    0.723513   -0.127029
     61          6           0       18.608722    1.519285    0.623022
     62          6           0       20.010425    1.687946    0.047371
     63          6           0       20.086870    2.496916   -1.328160
     64          6           0       20.872485    2.630169    1.032474
     65          1           0       -4.115580    3.540723    2.280808
     66          1           0       -9.905700    4.164609   -0.361715
     67          1           0      -10.750227   -2.155939   -1.372528
     68          1           0       -2.912655   -1.225735    2.284579
     69          1           0       -2.277334    1.466539    1.540800
     70          1           0       -2.536578    0.462990    3.955231
     71          1           0       -3.351309    1.909559    3.756008
     72          1           0       -4.110953    0.393563    3.825967
     73          1           0       -2.142323   -1.574062   -0.258324
     74          1           0       -2.066813    0.211566   -0.516479
     75          1           0       -0.148436    0.423383    1.283702
     76          1           0       -0.456323   -1.652921    1.445499
     77          1           0       -4.427589    5.834517    0.753515
     78          1           0       -5.848728    6.878630    1.276158
     79          1           0       -4.921541    5.848099    2.455716
     80          1           0       -8.035453    6.948554    1.071262
     81          1           0       -9.339342    6.095090   -1.359393
     82          1           0       -9.323039    7.643527   -0.393474
     83          1           0      -12.345696    3.556137   -0.223215
     84          1           0      -12.046107    3.611026   -1.782606
     85          1           0      -13.179469    2.632953   -1.194664
     86          1           0      -12.644466   -1.376764   -1.443575
     87          1           0      -13.621273    0.271003   -1.735393
     88          1           0      -12.396510    0.578865   -3.946987
     89          1           0      -11.427956   -0.794896   -3.724479
     90          1           0      -13.290299   -0.923024   -3.676694
     91          1           0      -10.056239   -4.667663   -0.629577
     92          1           0       -9.020739   -4.511891   -2.185221
     93          1           0       -8.456171   -5.564606   -0.932591
     94          1           0       -3.555954   -3.435340   -0.226598
     95          1           0       -1.829322   -5.975190    2.663625
     96          1           0       -2.234869   -4.510995    3.382259
     97          1           0       -3.326371   -6.064552    3.378049
     98          1           0        2.696180   -2.227598   -1.477373
     99          1           0        2.626731   -0.667193   -2.016620
    100          1           0        4.061185   -0.827520    0.572837
    101          1           0        5.159609    1.356465   -2.843924
    102          1           0        5.518107    0.059201   -3.137822
    103          1           0        3.908328   -0.045989   -3.228410
    104          1           0        6.551970    1.312841   -0.466074
    105          1           0        6.221149   -0.208466    0.437970
    106          1           0        7.261121   -1.506330   -1.441230
    107          1           0        7.823041    0.166565   -2.036019
    108          1           0        9.012261    0.857505    0.453972
    109          1           0        8.697761   -0.989554    0.716043
    110          1           0       10.048330   -0.192497   -2.044871
    111          1           0        9.374089   -2.442261   -2.240667
    112          1           0       11.156910   -2.434191   -1.650731
    113          1           0        9.839353   -3.086975   -0.556526
    114          1           0       11.122401    0.617135    0.501568
    115          1           0       11.116863   -1.209360    1.089290
    116          1           0       12.670083   -1.851649   -0.599544
    117          1           0       12.737786   -0.287926   -1.508439
    118          1           0       13.626581    1.000952    0.716599
    119          1           0       13.715738   -0.672905    1.402404
    120          1           0       15.240603    0.511207   -1.209944
    121          1           0       14.976595   -2.465178   -1.030081
    122          1           0       16.581737   -1.825982   -0.957209
    123          1           0       15.869431   -2.073339    0.374850
    124          1           0       15.849244    1.368301    1.034384
    125          1           0       16.578746   -0.039212    1.432851
    126          1           0       17.695330   -0.230969   -0.289633
    127          1           0       16.964856    1.316603   -0.985446
    128          1           0       18.006603    2.526685    0.765319
    129          1           0       18.681621    1.055459    1.710542
    130          1           0       20.575689    0.938427   -0.009194
    131          1           0       20.137354    3.623813   -1.334278
    132          1           0       21.190879    1.944800   -1.745867
    133          1           0       19.147613    2.168839   -2.202534
    134          1           0       21.035726    2.242260    2.134852
    135          1           0       21.849994    2.772222    0.474689
    136          1           0       20.444324    3.721992    1.082760
    137          1           0       -6.835017    1.587254    0.072855
    138          1           0       -7.379851   -0.199599   -0.313585
 ---------------------------------------------------------------------

 SCF Done:  E(RB3LYP) =  -2732.89298995     A.U. after   16 cycles

 Excitation energies and oscillator strengths:

 Excited State   1:      Singlet-A      2.0092 eV  617.10 nm  f=0.2141  <S**2>=0.000
     235 -> 237        0.26300
     235 -> 238        0.23854
     236 -> 237        0.59109
     236 -> 238       -0.14371
 This state for optimization and/or second-order correction.
 Total Energy, E(TD-HF/TD-DFT) =  -2732.81915505
 Copying the excited state density for this state as the 1-particle RhoCI density.

 The electronic state is 1-A.
 Alpha  occ. eigenvalues --  -19.18901 -19.16165 -19.12549 -19.12269 -19.11834
 Alpha  occ. eigenvalues --  -14.37618 -14.36966 -14.31985 -14.29943 -10.31627
 Alpha  occ. eigenvalues --  -10.30729 -10.27908 -10.24488 -10.24287 -10.23791
 Alpha  occ. eigenvalues --  -10.23280 -10.23143 -10.22905 -10.22676 -10.22501
 Alpha  occ. eigenvalues --  -10.22318 -10.21949 -10.21682 -10.21650 -10.21432
 Alpha  occ. eigenvalues --  -10.21252 -10.21223 -10.21138 -10.20891 -10.20831
 Alpha  occ. eigenvalues --  -10.20688 -10.20646 -10.20643 -10.20603 -10.20583
 Alpha  occ. eigenvalues --  -10.20518 -10.20456 -10.20335 -10.20205 -10.20052
 Alpha  occ. eigenvalues --  -10.19897 -10.19890 -10.19880 -10.19793 -10.19759
 Alpha  occ. eigenvalues --  -10.19704 -10.19495 -10.19206 -10.19194 -10.19140
 Alpha  occ. eigenvalues --  -10.19051 -10.18891 -10.18877 -10.18781 -10.18771
 Alpha  occ. eigenvalues --  -10.18723 -10.18389 -10.18226 -10.17868 -10.17154
 Alpha  occ. eigenvalues --  -10.17033 -10.16635 -10.16348 -10.16013  -1.09161
 Alpha  occ. eigenvalues --   -1.08347  -1.03830  -1.00047  -0.99176  -0.97924
 Alpha  occ. eigenvalues --   -0.97257  -0.92954  -0.92409  -0.83445  -0.83048
 Alpha  occ. eigenvalues --   -0.82724  -0.82340  -0.80972  -0.80814  -0.80454
 Alpha  occ. eigenvalues --   -0.79831  -0.79394  -0.79112  -0.78391  -0.77899
 Alpha  occ. eigenvalues --   -0.77164  -0.76271  -0.75812  -0.74870  -0.74518
 Alpha  occ. eigenvalues --   -0.73985  -0.72656  -0.72054  -0.71879  -0.70572
 Alpha  occ. eigenvalues --   -0.70065  -0.69829  -0.68799  -0.68380  -0.68042
 Alpha  occ. eigenvalues --   -0.67790  -0.65718  -0.65618  -0.64973  -0.64004
 Alpha  occ. eigenvalues --   -0.63931  -0.63153  -0.62168  -0.61447  -0.61107
 Alpha  occ. eigenvalues --   -0.60629  -0.58466  -0.58343  -0.58073  -0.56811
 Alpha  occ. eigenvalues --   -0.56701  -0.56363  -0.56072  -0.55741  -0.55318
 Alpha  occ. eigenvalues --   -0.55241  -0.54258  -0.53858  -0.53643  -0.53257
 Alpha  occ. eigenvalues --   -0.53032  -0.51280  -0.50887  -0.50438  -0.49956
 Alpha  occ. eigenvalues --   -0.49344  -0.49169  -0.49022  -0.48387  -0.47928
 Alpha  occ. eigenvalues --   -0.47774  -0.47539  -0.47323  -0.47200  -0.46850
 Alpha  occ. eigenvalues --   -0.46680  -0.46241  -0.46096  -0.45864  -0.45659
 Alpha  occ. eigenvalues --   -0.45457  -0.45291  -0.45028  -0.44997  -0.44729
 Alpha  occ. eigenvalues --   -0.44142  -0.44114  -0.43784  -0.43604  -0.43442
 Alpha  occ. eigenvalues --   -0.43113  -0.43040  -0.42685  -0.42520  -0.42390
 Alpha  occ. eigenvalues --   -0.42127  -0.41951  -0.41885  -0.41703  -0.41484
 Alpha  occ. eigenvalues --   -0.41314  -0.41174  -0.41002  -0.40774  -0.40671
 Alpha  occ. eigenvalues --   -0.40356  -0.39765  -0.39490  -0.39345  -0.39261
 Alpha  occ. eigenvalues --   -0.38911  -0.38752  -0.38576  -0.38385  -0.38237
 Alpha  occ. eigenvalues --   -0.38103  -0.37987  -0.37802  -0.37572  -0.37515
 Alpha  occ. eigenvalues --   -0.37288  -0.37096  -0.36947  -0.36545  -0.36337
 Alpha  occ. eigenvalues --   -0.36123  -0.35944  -0.35898  -0.35693  -0.35600
 Alpha  occ. eigenvalues --   -0.35468  -0.35253  -0.35133  -0.35040  -0.34864
 Alpha  occ. eigenvalues --   -0.34699  -0.34352  -0.34271  -0.34034  -0.33898
 Alpha  occ. eigenvalues --   -0.33406  -0.33048  -0.33015  -0.32941  -0.32517
 Alpha  occ. eigenvalues --   -0.32308  -0.32205  -0.32071  -0.31847  -0.31617
 Alpha  occ. eigenvalues --   -0.31275  -0.31195  -0.31076  -0.30276  -0.30141
 Alpha  occ. eigenvalues --   -0.29606  -0.29367  -0.28357  -0.27906  -0.27800
 Alpha  occ. eigenvalues --   -0.27504  -0.26654  -0.26496  -0.26298  -0.25812
 Alpha  occ. eigenvalues --   -0.24665  -0.23254  -0.23177  -0.22297  -0.19396
 Alpha  occ. eigenvalues --   -0.18570
 Alpha virt. eigenvalues --   -0.10448  -0.07185  -0.03955  -0.02384  -0.01348
 Alpha virt. eigenvalues --   -0.00749   0.00051   0.01350   0.02433   0.03412
 Alpha virt. eigenvalues --    0.03467   0.03475   0.03689   0.03937   0.04023

 Mulliken charges:
               1
     1  C    0.074126
     2  C   -0.127489
     3  C   -0.081658
     4  C   -0.118575
     5  N   -0.259064
     6  C   -0.088990
     7  C   -0.023529
     8  C    0.023611
     9  C    0.006097
    10  C    0.220417
    11  C    0.137792
    12  C   -0.135167
    13  C    0.217413
    14  O   -0.256001
    15  O   -0.299894
    16  N   -0.102502
    17  C    0.046444
    18  C   -0.166186
    19  C    0.075952
    20  C    0.099220
    21  C    0.111637
    22  C   -0.080541
    23  C    0.047465
    24  N   -0.255776
    25  C    0.076977
    26  C   -0.132721
    27  C   -0.038001
    28  C    0.075874
    29  C    0.270165
    30  C   -0.040629
    31  C    0.010857
    32  N   -0.074219
    33  C    0.077730
    34  C   -0.133099
    35  C    0.001574
    36  C    0.051263
    37  C    0.102343
    38  C    0.061282
    39  O   -0.136369
    40  C   -0.098062
    41  C    0.208402
    42  O   -0.225882
    43  O   -0.331751
    44  C    0.254105
    45  C    0.411891
    46  C   -0.175309
    47  C   -0.155839
    48  C    0.217960
    49  C    0.158347
    50  C   -0.087876
    51  C   -0.010035
    52  C   -0.086183
    53  C   -0.076681
    54  C   -0.050701
    55  C    0.046599
    56  C   -0.011740
    57  C   -0.067486
    58  C    0.084864
    59  C    0.078043
    60  C    0.072553
    61  C    0.017960
    62  C    0.066332
    63  C   -0.121883
    64  C   -0.065885
    65  H    0.028685
    66  H   -0.039469
    67  H    0.019423
    68  H    0.025798
    69  H   -0.040611
    70  H   -0.044064
    71  H   -0.033418
    72  H    0.010583
    73  H   -0.011184
    74  H    0.024016
    75  H    0.061529
    76  H    0.063008
    77  H    0.016458
    78  H    0.016811
    79  H    0.035664
    80  H   -0.028813
    81  H   -0.006891
    82  H    0.013160
    83  H   -0.010064
    84  H   -0.014085
    85  H   -0.080123
    86  H    0.025729
    87  H    0.025438
    88  H    0.008207
    89  H    0.022111
    90  H    0.001345
    91  H    0.047454
    92  H    0.036306
    93  H   -0.001611
    94  H    0.059112
    95  H   -0.022444
    96  H    0.017493
    97  H    0.039737
    98  H    0.045131
    99  H   -0.060494
   100  H    0.009330
   101  H   -0.012900
   102  H   -0.092908
   103  H    0.022590
   104  H    0.015620
   105  H   -0.040297
   106  H    0.034584
   107  H    0.003780
   108  H    0.027743
   109  H    0.006019
   110  H    0.029677
   111  H    0.016413
   112  H    0.018482
   113  H    0.034293
   114  H    0.005426
   115  H    0.020739
   116  H    0.028316
   117  H   -0.008173
   118  H    0.003373
   119  H    0.000599
   120  H    0.002943
   121  H    0.019941
   122  H   -0.011553
   123  H   -0.043653
   124  H   -0.046721
   125  H   -0.048442
   126  H   -0.064346
   127  H    0.003880
   128  H    0.003350
   129  H    0.001640
   130  H   -0.058724
   131  H    0.046330
   132  H    0.028181
   133  H    0.039448
   134  H    0.031432
   135  H    0.011865
   136  H    0.020670
   137  H    0.239422
   138  H    0.162125
 Sum of Mulliken charges =  -0.00000

 Dipole moment (field-independent basis, Debye):
    X=              3.0949    Y=              4.1644    Z=             -0.5128  Tot=              5.2137
 Quadrupole moment (field-independent basis, Debye-Ang):
   XX=           -338.4723   YY=           -378.0027   ZZ=           -395.5055
   XY=            -32.8990   XZ=             19.4355   YZ=             -0.5064

 Normal termination of Gaussian 16 at Sat Aug 17 12:24:34 2019.
