 Gaussian 16, Revision A.03,
 Gaussian 16:  ES64L-G16RevA.03 25-Dec-2016

 --------------------------
 # td=(NStates=1) B3LYP/SVP
 --------------------------

 --
 TD
 --
 Symbolic Z-matrix:
 Charge =  0 Multiplicity = 1

                         Standard orientation:
 ---------------------------------------------------------------------
 Center     Atomic      Atomic             Coordinates (Angstroms)
 Number     Number       Type             X           Y           Z
 ---------------------------------------------------------------------
      1          6           0       -5.117021   -1.895096    0.236460
      2          6           0       -4.746227    2.864498    1.270641
      3          6           0       -9.389776    3.270137   -0.136730
      4          6           0       -9.872850   -1.470125   -0.918992
      5          7           0       -5.122265    0.462447    0.720626
      6          6           0       -4.468437   -0.660808    0.639734
      7          6           0       -3.053707   -0.476743    1.005841
      8          6           0       -3.002436    0.933276    1.725504
      9          6           0       -4.322351    1.524239    1.225601
     10          6           0       -3.007236    1.020232    3.165520
     11          6           0       -2.006109   -0.667307    0.007228
     12          6           0       -0.524630   -0.917528    0.467011
     13          6           0        0.426073   -1.221282   -0.615996
     14          8           0        0.168398   -1.757202   -1.656962
     15          8           0        1.734299   -0.919078   -0.235076
     16          7           0       -7.026667    2.764698    0.458515
     17          6           0       -5.888359    3.443720    0.970758
     18          6           0       -6.210143    4.809576    0.929256
     19          6           0       -7.573507    4.988071    0.500935
     20          6           0       -8.065687    3.688884    0.223156
     21          6           0       -5.258016    5.879584    1.378684
     22          6           0       -8.167673    6.290587    0.409077
     23          6           0       -8.984487    6.668516   -0.575895
     24          7           0       -9.241512    0.866866   -0.519871
     25          6           0       -9.906211    1.993244   -0.522520
     26          6           0      -11.338190    1.795344   -0.888350
     27          6           0      -11.493630    0.476749   -1.022341
     28          6           0      -10.146220   -0.120182   -0.827111
     29          6           0      -12.375608    2.947776   -1.027701
     30          6           0      -12.770597   -0.214025   -1.458067
     31          6           0      -12.800516   -0.662288   -2.950123
     32          7           0       -7.513272   -1.190669   -0.228077
     33          6           0       -8.588239   -2.004583   -0.611637
     34          6           0       -8.218545   -3.371689   -0.580712
     35          6           0       -6.855177   -3.379071   -0.199343
     36          6           0       -6.426164   -2.025615   -0.110842
     37          6           0       -8.924388   -4.628029   -0.976044
     38          6           0       -5.681964   -4.261897    0.004750
     39          8           0       -5.512875   -5.432592    0.014856
     40          6           0       -4.520774   -3.272579    0.267303
     41          6           0       -3.947261   -3.678726    1.648674
     42          8           0       -4.200724   -3.259196    2.749496
     43          8           0       -3.088676   -4.707559    1.627742
     44          6           0       -2.646291   -5.319111    2.801722
     45          6           0        2.816781   -1.210436   -1.138656
     46          6           0        4.060963   -0.662020   -0.570192
     47          6           0        5.056462   -0.003790   -1.137348
     48          6           0        4.996115    0.630658   -2.560405
     49          6           0        6.253712    0.336110   -0.313576
     50          6           0        7.511098   -0.459058   -0.857302
     51          6           0        8.790166   -0.317248    0.005733
     52          6           0       10.066004   -0.863057   -0.587809
     53          6           0        9.989080   -2.337568   -1.041815
     54          6           0       11.320798   -0.561804    0.263899
     55          6           0       12.696025   -0.800586   -0.369597
     56          6           0       13.801939   -0.230007    0.443556
     57          6           0       15.183223   -0.337774   -0.203005
     58          6           0       15.645854   -1.745045   -0.302537
     59          6           0       16.281503    0.627037    0.565623
     60          6           0       17.696811    0.833948   -0.218807
     61          6           0       18.634231    1.729286    0.514057
     62          6           0       19.988045    1.814992   -0.154254
     63          6           0       19.887539    2.635007   -1.467167
     64          6           0       20.958583    2.529304    0.898256
     65          1           0       -3.834999    3.634912    1.704436
     66          1           0      -10.054966    4.106476   -0.469397
     67          1           0      -10.692510   -2.176093   -1.070707
     68          1           0       -2.776578   -1.224337    1.779474
     69          1           0       -2.022287    1.611103    1.293624
     70          1           0       -2.133556    0.568027    3.507457
     71          1           0       -3.115848    2.054837    3.760847
     72          1           0       -3.731684    0.533421    3.548434
     73          1           0       -2.372698   -1.526411   -0.580314
     74          1           0       -2.016551   -0.019396   -0.811669
     75          1           0       -0.186260    0.059068    1.069217
     76          1           0       -0.682778   -1.456316    1.452656
     77          1           0       -4.330976    5.808266    0.645913
     78          1           0       -5.755048    6.939958    1.363679
     79          1           0       -4.856665    5.756887    2.531618
     80          1           0       -7.923074    7.000228    1.358288
     81          1           0       -9.339398    5.801428   -1.281312
     82          1           0       -9.506899    7.646833   -0.871146
     83          1           0      -12.565474    3.413287    0.165442
     84          1           0      -11.964297    3.869529   -1.519789
     85          1           0      -13.310193    2.567339   -1.724145
     86          1           0      -12.941134   -1.024155   -0.575209
     87          1           0      -13.762018    0.263946   -1.301758
     88          1           0      -12.706553    0.310680   -3.591594
     89          1           0      -12.072624   -1.507374   -3.099341
     90          1           0      -13.887894   -1.219413   -3.099740
     91          1           0       -9.745641   -4.473784   -0.220899
     92          1           0       -9.152709   -4.753911   -2.044609
     93          1           0       -8.215516   -5.346986   -0.626752
     94          1           0       -3.888084   -3.476002   -0.550686
     95          1           0       -1.887726   -6.088292    2.430690
     96          1           0       -2.218300   -4.663266    3.671275
     97          1           0       -3.492248   -5.752979    3.196360
     98          1           0        3.017462   -2.451388   -1.297508
     99          1           0        2.726191   -0.930096   -2.193300
    100          1           0        4.292617   -1.230989    0.401035
    101          1           0        5.098927    1.703206   -2.497311
    102          1           0        5.885893    0.358875   -3.063947
    103          1           0        3.883505    0.559092   -2.875699
    104          1           0        6.591145    1.399952   -0.344869
    105          1           0        5.894839    0.323118    0.860638
    106          1           0        7.213665   -1.374896   -1.015462
    107          1           0        7.583517   -0.171043   -1.911908
    108          1           0        8.907759    0.704209    0.122255
    109          1           0        8.673718   -0.829915    1.099263
    110          1           0       10.281062   -0.421941   -1.554340
    111          1           0        9.387917   -2.740138   -1.799300
    112          1           0       11.071804   -2.560670   -1.264180
    113          1           0        9.725691   -3.052633   -0.132064
    114          1           0       11.391525    0.662164    0.542525
    115          1           0       11.102407   -1.215757    1.228198
    116          1           0       12.870801   -1.798112   -0.738576
    117          1           0       12.691333    0.049884   -1.199647
    118          1           0       13.548386    1.008753    0.571094
    119          1           0       13.932449   -0.542940    1.603195
    120          1           0       15.074813   -0.078526   -1.293931
    121          1           0       14.928370   -2.388657   -0.846388
    122          1           0       16.736984   -1.760957   -0.709634
    123          1           0       15.802989   -2.059559    0.650881
    124          1           0       15.929347    1.581889    0.794853
    125          1           0       16.385943    0.181699    1.709607
    126          1           0       18.405781   -0.085594   -0.248792
    127          1           0       17.521542    1.218140   -1.192897
    128          1           0       18.029829    2.737123    0.678321
    129          1           0       18.771066    1.501478    1.463468
    130          1           0       20.263356    0.714560   -0.374590
    131          1           0       19.343599    3.661240   -1.236345
    132          1           0       20.886791    2.719981   -2.102494
    133          1           0       19.172942    2.194862   -2.229335
    134          1           0       21.272282    1.670358    1.990414
    135          1           0       22.013748    2.885932    0.499791
    136          1           0       20.486345    3.517338    1.542867
    137          1           0       -7.247109    1.834380    0.183796
    138          1           0       -7.460863   -0.184491   -0.223460
 ---------------------------------------------------------------------

 SCF Done:  E(RB3LYP) =  -2733.01726302     A.U. after   17 cycles

 Excitation energies and oscillator strengths:

 Excited State   1:      Singlet-A      2.0438 eV  606.64 nm  f=0.1802  <S**2>=0.000
     235 -> 237       -0.20964
     235 -> 238       -0.28191
     236 -> 237        0.59546
     236 -> 238       -0.14977
 This state for optimization and/or second-order correction.
 Total Energy, E(TD-HF/TD-DFT) =  -2732.94215588
 Copying the excited state density for this state as the 1-particle RhoCI density.

 The electronic state is 1-A.
 Alpha  occ. eigenvalues --  -19.17602 -19.16446 -19.13337 -19.12833 -19.11634
 Alpha  occ. eigenvalues --  -14.36914 -14.36097 -14.32365 -14.30277 -10.32433
 Alpha  occ. eigenvalues --  -10.31503 -10.28091 -10.25644 -10.24087 -10.23995
 Alpha  occ. eigenvalues --  -10.23867 -10.23495 -10.23412 -10.23266 -10.22973
 Alpha  occ. eigenvalues --  -10.22944 -10.22424 -10.22265 -10.21976 -10.21818
 Alpha  occ. eigenvalues --  -10.21707 -10.21701 -10.21482 -10.21478 -10.21279
 Alpha  occ. eigenvalues --  -10.20991 -10.20968 -10.20919 -10.20821 -10.20645
 Alpha  occ. eigenvalues --  -10.20626 -10.20541 -10.20530 -10.20496 -10.20393
 Alpha  occ. eigenvalues --  -10.20327 -10.20297 -10.20186 -10.20081 -10.20002
 Alpha  occ. eigenvalues --  -10.19867 -10.19832 -10.19807 -10.19497 -10.19449
 Alpha  occ. eigenvalues --  -10.19265 -10.19046 -10.19000 -10.18918 -10.18801
 Alpha  occ. eigenvalues --  -10.18800 -10.18786 -10.18533 -10.18341 -10.18331
 Alpha  occ. eigenvalues --  -10.17972 -10.17313 -10.17180 -10.17088  -1.10098
 Alpha  occ. eigenvalues --   -1.08694  -1.05107  -1.01013  -0.99649  -0.98014
 Alpha  occ. eigenvalues --   -0.96597  -0.94825  -0.94453  -0.85777  -0.82619
 Alpha  occ. eigenvalues --   -0.82094  -0.81896  -0.81783  -0.81778  -0.81262
 Alpha  occ. eigenvalues --   -0.80940  -0.79939  -0.79549  -0.79053  -0.78359
 Alpha  occ. eigenvalues --   -0.76822  -0.75911  -0.75271  -0.74866  -0.73821
 Alpha  occ. eigenvalues --   -0.73550  -0.73188  -0.72627  -0.72138  -0.71158
 Alpha  occ. eigenvalues --   -0.70363  -0.69797  -0.68964  -0.68143  -0.67103
 Alpha  occ. eigenvalues --   -0.66732  -0.66446  -0.66358  -0.65543  -0.64743
 Alpha  occ. eigenvalues --   -0.64074  -0.63309  -0.62330  -0.61206  -0.60828
 Alpha  occ. eigenvalues --   -0.60790  -0.59287  -0.58574  -0.57601  -0.57468
 Alpha  occ. eigenvalues --   -0.57129  -0.56617  -0.55780  -0.55610  -0.55406
 Alpha  occ. eigenvalues --   -0.55152  -0.54751  -0.54125  -0.53926  -0.53011
 Alpha  occ. eigenvalues --   -0.52768  -0.52253  -0.52035  -0.51589  -0.50812
 Alpha  occ. eigenvalues --   -0.49636  -0.49494  -0.49008  -0.48771  -0.48569
 Alpha  occ. eigenvalues --   -0.47821  -0.47548  -0.47365  -0.47187  -0.47028
 Alpha  occ. eigenvalues --   -0.46735  -0.46551  -0.46278  -0.46012  -0.45854
 Alpha  occ. eigenvalues --   -0.45576  -0.45552  -0.44814  -0.44573  -0.44219
 Alpha  occ. eigenvalues --   -0.44153  -0.44067  -0.43808  -0.43764  -0.43461
 Alpha  occ. eigenvalues --   -0.43253  -0.43111  -0.42887  -0.42802  -0.42544
 Alpha  occ. eigenvalues --   -0.42455  -0.42235  -0.42000  -0.41819  -0.41698
 Alpha  occ. eigenvalues --   -0.41488  -0.41336  -0.41122  -0.40517  -0.40399
 Alpha  occ. eigenvalues --   -0.40195  -0.39858  -0.39704  -0.39636  -0.39576
 Alpha  occ. eigenvalues --   -0.39235  -0.38953  -0.38725  -0.38391  -0.38125
 Alpha  occ. eigenvalues --   -0.38068  -0.38000  -0.37767  -0.37586  -0.37521
 Alpha  occ. eigenvalues --   -0.37276  -0.37099  -0.36918  -0.36731  -0.36545
 Alpha  occ. eigenvalues --   -0.36318  -0.36252  -0.35972  -0.35776  -0.35671
 Alpha  occ. eigenvalues --   -0.35437  -0.35261  -0.35172  -0.34625  -0.34442
 Alpha  occ. eigenvalues --   -0.34399  -0.34327  -0.34159  -0.33436  -0.33377
 Alpha  occ. eigenvalues --   -0.33356  -0.32977  -0.32826  -0.32459  -0.32231
 Alpha  occ. eigenvalues --   -0.32008  -0.31894  -0.31377  -0.31143  -0.30922
 Alpha  occ. eigenvalues --   -0.30836  -0.30628  -0.30306  -0.30243  -0.30017
 Alpha  occ. eigenvalues --   -0.29715  -0.29365  -0.29347  -0.28703  -0.28545
 Alpha  occ. eigenvalues --   -0.27374  -0.27119  -0.26818  -0.26392  -0.26270
 Alpha  occ. eigenvalues --   -0.25392  -0.24856  -0.23880  -0.23686  -0.20200
 Alpha  occ. eigenvalues --   -0.18986
 Alpha virt. eigenvalues --   -0.10619  -0.07790  -0.04562  -0.02001  -0.01696
 Alpha virt. eigenvalues --   -0.00416   0.00185   0.00946   0.02272   0.02961
 Alpha virt. eigenvalues --    0.02990   0.03086   0.03110   0.04232   0.04393

 Mulliken charges:
               1
     1  C    0.000349
     2  C   -0.109328
     3  C   -0.053657
     4  C   -0.110436
     5  N   -0.166519
     6  C   -0.072085
     7  C   -0.002454
     8  C   -0.110935
     9  C   -0.032675
    10  C    0.195232
    11  C    0.095477
    12  C   -0.024257
    13  C    0.247754
    14  O   -0.202118
    15  O   -0.331642
    16  N   -0.110381
    17  C    0.200847
    18  C   -0.118351
    19  C    0.053332
    20  C    0.048261
    21  C   -0.013815
    22  C   -0.064094
    23  C   -0.097183
    24  N   -0.200978
    25  C    0.015214
    26  C   -0.099160
    27  C   -0.071532
    28  C    0.076818
    29  C   -0.001719
    30  C   -0.019312
    31  C   -0.034551
    32  N   -0.042469
    33  C    0.111441
    34  C   -0.190644
    35  C   -0.034242
    36  C    0.075286
    37  C    0.118036
    38  C    0.024509
    39  O   -0.130025
    40  C    0.039253
    41  C    0.184648
    42  O   -0.231021
    43  O   -0.282819
    44  C    0.183663
    45  C    0.218688
    46  C   -0.102028
    47  C   -0.151067
    48  C    0.119021
    49  C    0.007702
    50  C    0.071028
    51  C    0.125452
    52  C   -0.044472
    53  C    0.006598
    54  C   -0.055432
    55  C    0.040202
    56  C   -0.065829
    57  C   -0.066254
    58  C    0.076491
    59  C    0.019520
    60  C    0.035356
    61  C    0.051762
    62  C   -0.060774
    63  C   -0.033096
    64  C   -0.110889
    65  H    0.026755
    66  H   -0.024537
    67  H   -0.014599
    68  H   -0.003132
    69  H    0.022255
    70  H   -0.019265
    71  H    0.024364
    72  H   -0.047498
    73  H   -0.004056
    74  H   -0.031448
    75  H    0.034558
    76  H    0.040801
    77  H    0.053665
    78  H    0.035283
    79  H    0.053331
    80  H    0.047564
    81  H    0.044776
    82  H    0.050054
    83  H    0.051487
    84  H    0.030386
    85  H    0.050464
    86  H    0.013935
    87  H    0.005021
    88  H    0.050330
    89  H    0.029052
    90  H    0.026471
    91  H    0.040294
    92  H    0.052605
    93  H    0.028558
    94  H    0.037482
    95  H    0.043044
    96  H    0.035952
    97  H    0.003071
    98  H    0.032174
    99  H    0.009216
   100  H    0.010689
   101  H   -0.000431
   102  H    0.008975
   103  H    0.030115
   104  H   -0.001780
   105  H    0.021666
   106  H   -0.054433
   107  H   -0.019697
   108  H   -0.035569
   109  H    0.013304
   110  H   -0.029878
   111  H    0.009284
   112  H   -0.005053
   113  H   -0.002960
   114  H    0.017774
   115  H    0.010658
   116  H    0.022523
   117  H    0.018211
   118  H    0.004631
   119  H    0.009792
   120  H   -0.016276
   121  H    0.018237
   122  H    0.012477
   123  H   -0.038331
   124  H   -0.022282
   125  H    0.006582
   126  H    0.006366
   127  H   -0.001823
   128  H   -0.014776
   129  H   -0.053086
   130  H    0.020420
   131  H    0.025725
   132  H    0.031759
   133  H    0.014970
   134  H    0.014805
   135  H    0.041289
   136  H    0.046210
   137  H    0.118096
   138  H    0.139701
 Sum of Mulliken charges =  -0.00000

 Dipole moment (field-independent basis, Debye):
    X=              1.2096    Y=              4.1926    Z=             -0.7520  Tot=              4.4280
 Quadrupole moment (field-independent basis, Debye-Ang):
   XX=           -353.3158   YY=           -386.7085   ZZ=           -395.1696
   XY=            -17.5930   XZ=              1.8626   YZ=              0.1127

 Normal termination of Gaussian 16 at Sat Aug 31 19:39:51 2019.
