 Gaussian 16, Revision A.03,
 Gaussian 16:  ES64L-G16RevA.03 25-Dec-2016

 --------------------------
 # td=(NStates=1) B3LYP/SVP
 --------------------------

 --
 TD
 --
 Symbolic Z-matrix:
 Charge =  0 Multiplicity = 1

                         Standard orientation:
 ---------------------------------------------------------------------
 Center     Atomic      Atomic             Coordinates (Angstroms)
 Number     Number       Type             X           Y           Z
 ---------------------------------------------------------------------
      1          6           0       -5.133739   -1.948130    0.379300
      2          6           0       -4.597328    2.677996    1.291247
      3          6           0       -9.198678    3.520148   -0.195038
      4          6           0       -9.867529   -1.296737   -0.798769
      5          7           0       -5.102310    0.394602    0.710827
      6          6           0       -4.477381   -0.761227    0.786739
      7          6           0       -3.068423   -0.622816    1.198880
      8          6           0       -2.997699    0.666648    1.960405
      9          6           0       -4.262506    1.316704    1.274134
     10          6           0       -3.025252    0.643118    3.433078
     11          6           0       -2.005190   -0.728392   -0.023419
     12          6           0       -0.661741   -0.945538    0.537942
     13          6           0        0.295423   -1.253542   -0.691410
     14          8           0        0.050080   -1.627814   -1.824873
     15          8           0        1.652315   -1.019443   -0.344017
     16          7           0       -6.891842    2.779833    0.455159
     17          6           0       -5.723248    3.359523    0.942193
     18          6           0       -5.938605    4.838969    0.912712
     19          6           0       -7.311162    5.056059    0.515834
     20          6           0       -7.875932    3.734918    0.256008
     21          6           0       -4.971147    5.880230    1.461263
     22          6           0       -7.954904    6.306526    0.393506
     23          6           0       -8.887101    6.752785   -0.406183
     24          7           0       -9.113033    1.027500   -0.427296
     25          6           0       -9.799309    2.205827   -0.489851
     26          6           0      -11.159401    2.091623   -0.851789
     27          6           0      -11.321844    0.742631   -0.993375
     28          6           0      -10.014073    0.116819   -0.645617
     29          6           0      -12.055004    3.286351   -0.986503
     30          6           0      -12.682229   -0.008800   -1.423079
     31          6           0      -12.656686   -0.281367   -2.903365
     32          7           0       -7.461882   -1.199716   -0.303549
     33          6           0       -8.621649   -1.876643   -0.643501
     34          6           0       -8.342612   -3.314914   -0.648054
     35          6           0       -6.928428   -3.314556   -0.384347
     36          6           0       -6.475892   -2.040614   -0.064101
     37          6           0       -9.269334   -4.446625   -0.839031
     38          6           0       -5.830402   -4.395551   -0.096078
     39          8           0       -5.710743   -5.516024   -0.116756
     40          6           0       -4.579421   -3.432018    0.311115
     41          6           0       -3.945383   -3.940711    1.614151
     42          8           0       -4.191824   -3.478554    2.773828
     43          8           0       -3.171933   -4.938242    1.365933
     44          6           0       -2.775352   -5.789340    2.468827
     45          6           0        2.645253   -1.158676   -1.312408
     46          6           0        4.037178   -0.881046   -0.705369
     47          6           0        4.932488   -0.106329   -1.198636
     48          6           0        4.846520    0.610337   -2.469561
     49          6           0        6.258070    0.164894   -0.378914
     50          6           0        7.400275   -0.587034   -0.989411
     51          6           0        8.735703   -0.305913   -0.183082
     52          6           0       10.094251   -0.839235   -0.774480
     53          6           0        9.905424   -2.425419   -0.991183
     54          6           0       11.213181   -0.358953    0.076208
     55          6           0       12.595328   -0.663976   -0.478537
     56          6           0       13.766993   -0.074226    0.347155
     57          6           0       15.243238   -0.263081   -0.237120
     58          6           0       15.541792   -1.710185   -0.398522
     59          6           0       16.240369    0.588460    0.681071
     60          6           0       17.543038    0.912038   -0.110738
     61          6           0       18.563059    1.483594    0.851835
     62          6           0       20.016141    1.869681    0.002372
     63          6           0       19.766108    3.026328   -1.298650
     64          6           0       20.979816    2.442200    1.092987
     65          1           0       -3.896834    3.364808    1.868344
     66          1           0       -9.763568    4.414533   -0.278511
     67          1           0      -10.771158   -2.020074   -0.789255
     68          1           0       -2.779460   -1.445789    1.917835
     69          1           0       -2.134387    1.390283    1.458021
     70          1           0       -2.092849    0.352055    3.802611
     71          1           0       -3.334608    1.482341    3.931331
     72          1           0       -3.751719   -0.123760    3.700424
     73          1           0       -2.203324   -1.621218   -0.542678
     74          1           0       -2.343408    0.116829   -0.751397
     75          1           0       -0.381800   -0.236393    1.123493
     76          1           0       -0.518464   -1.932423    1.110568
     77          1           0       -3.820248    5.617974    0.916256
     78          1           0       -5.067257    6.980735    1.279471
     79          1           0       -4.803384    5.799538    2.657012
     80          1           0       -7.509883    7.144219    1.070675
     81          1           0       -9.437682    6.083154   -1.188641
     82          1           0       -9.278002    7.762365   -0.450700
     83          1           0      -11.766796    4.079408   -0.028241
     84          1           0      -11.661736    3.825036   -1.879179
     85          1           0      -13.245823    3.070985   -1.120712
     86          1           0      -12.613397   -0.853953   -0.601557
     87          1           0      -13.597946    0.642113   -0.962334
     88          1           0      -12.741308    0.828494   -3.394327
     89          1           0      -11.727376   -0.741344   -3.226451
     90          1           0      -13.589210   -0.714741   -3.143021
     91          1           0       -9.903172   -4.469461    0.039330
     92          1           0       -9.935325   -4.458608   -1.920664
     93          1           0       -8.842446   -5.369138   -0.920237
     94          1           0       -3.929382   -3.688203   -0.550028
     95          1           0       -2.163667   -6.759026    1.770104
     96          1           0       -2.041941   -5.325673    3.013096
     97          1           0       -3.657783   -6.112843    2.942422
     98          1           0        2.611735   -2.212104   -1.596185
     99          1           0        2.368398   -0.501193   -2.183583
    100          1           0        4.362305   -1.389976    0.283187
    101          1           0        5.054567    1.757086   -2.189828
    102          1           0        5.473472    0.306920   -3.315937
    103          1           0        3.649599    0.868351   -2.831497
    104          1           0        6.260596    1.162131   -0.083971
    105          1           0        6.065610   -0.496603    0.547487
    106          1           0        7.217343   -1.491899   -1.207339
    107          1           0        7.709201   -0.057108   -1.933650
    108          1           0        9.149509    0.678241   -0.187866
    109          1           0        8.596765   -0.715810    0.878785
    110          1           0       10.229706   -0.396335   -1.650136
    111          1           0        9.198793   -2.640340   -1.981358
    112          1           0       10.895961   -3.057339   -1.270604
    113          1           0        9.699568   -2.962674    0.027867
    114          1           0       10.954629    0.841224    0.189816
    115          1           0       11.107674   -0.696778    1.071167
    116          1           0       12.922269   -1.771815   -0.531319
    117          1           0       12.519768   -0.245175   -1.472208
    118          1           0       13.559887    0.990408    0.328401
    119          1           0       13.956833   -0.634072    1.335489
    120          1           0       15.243587    0.294453   -1.047112
    121          1           0       15.005173   -2.014269   -1.353979
    122          1           0       16.650338   -1.624578   -0.842807
    123          1           0       15.637688   -2.272544    0.487051
    124          1           0       15.794181    1.471403    0.924138
    125          1           0       16.565717   -0.159923    1.455268
    126          1           0       17.952327   -0.080946   -0.452885
    127          1           0       17.072708    1.550691   -1.097575
    128          1           0       18.076186    2.347498    1.406541
    129          1           0       18.815359    0.680810    1.685065
    130          1           0       20.386186    0.987504   -0.470549
    131          1           0       19.295436    3.928809   -0.743557
    132          1           0       20.676509    2.981012   -1.971293
    133          1           0       18.923689    2.772405   -2.036438
    134          1           0       21.100319    1.427228    1.798734
    135          1           0       22.097864    2.653886    0.685305
    136          1           0       20.668633    3.503330    1.557191
    137          1           0       -7.196225    1.824277    0.405652
    138          1           0       -7.294595   -0.200218   -0.420467
 ---------------------------------------------------------------------

 SCF Done:  E(RB3LYP) =  -2732.97659227     A.U. after   16 cycles

 Excitation energies and oscillator strengths:

 Excited State   1:      Singlet-A      2.0382 eV  608.31 nm  f=0.1318  <S**2>=0.000
     235 -> 238       -0.33343
     236 -> 237        0.61690
 This state for optimization and/or second-order correction.
 Total Energy, E(TD-HF/TD-DFT) =  -2732.90169071
 Copying the excited state density for this state as the 1-particle RhoCI density.

 The electronic state is 1-A.
 Alpha  occ. eigenvalues --  -19.18748 -19.15921 -19.14261 -19.13403 -19.11037
 Alpha  occ. eigenvalues --  -14.36796 -14.36519 -14.32027 -14.29595 -10.32297
 Alpha  occ. eigenvalues --  -10.31363 -10.28838 -10.26356 -10.24240 -10.23987
 Alpha  occ. eigenvalues --  -10.23284 -10.23251 -10.22899 -10.22853 -10.22812
 Alpha  occ. eigenvalues --  -10.22337 -10.21880 -10.21752 -10.21431 -10.21158
 Alpha  occ. eigenvalues --  -10.21150 -10.21142 -10.21008 -10.20965 -10.20919
 Alpha  occ. eigenvalues --  -10.20911 -10.20897 -10.20658 -10.20630 -10.20607
 Alpha  occ. eigenvalues --  -10.20568 -10.20466 -10.20437 -10.20385 -10.20271
 Alpha  occ. eigenvalues --  -10.19996 -10.19990 -10.19707 -10.19706 -10.19685
 Alpha  occ. eigenvalues --  -10.19486 -10.19462 -10.19114 -10.19027 -10.18738
 Alpha  occ. eigenvalues --  -10.18688 -10.18626 -10.18490 -10.18284 -10.18234
 Alpha  occ. eigenvalues --  -10.18179 -10.18052 -10.17980 -10.17914 -10.17719
 Alpha  occ. eigenvalues --  -10.17450 -10.17438 -10.17429 -10.17198  -1.10889
 Alpha  occ. eigenvalues --   -1.09153  -1.07745  -1.00017  -0.99355  -0.97300
 Alpha  occ. eigenvalues --   -0.96879  -0.95464  -0.94665  -0.83116  -0.82711
 Alpha  occ. eigenvalues --   -0.82050  -0.81726  -0.81647  -0.80735  -0.80620
 Alpha  occ. eigenvalues --   -0.79788  -0.79028  -0.78532  -0.77783  -0.77318
 Alpha  occ. eigenvalues --   -0.76272  -0.76052  -0.75676  -0.74197  -0.73910
 Alpha  occ. eigenvalues --   -0.73627  -0.72636  -0.72107  -0.71535  -0.70467
 Alpha  occ. eigenvalues --   -0.69771  -0.69102  -0.68294  -0.67049  -0.66975
 Alpha  occ. eigenvalues --   -0.66455  -0.65405  -0.65239  -0.65058  -0.64921
 Alpha  occ. eigenvalues --   -0.63853  -0.62843  -0.61965  -0.61124  -0.60955
 Alpha  occ. eigenvalues --   -0.60116  -0.58527  -0.57799  -0.57505  -0.57076
 Alpha  occ. eigenvalues --   -0.56370  -0.56193  -0.56146  -0.55693  -0.55548
 Alpha  occ. eigenvalues --   -0.55470  -0.55142  -0.54486  -0.53001  -0.52829
 Alpha  occ. eigenvalues --   -0.52053  -0.51581  -0.51204  -0.50949  -0.50515
 Alpha  occ. eigenvalues --   -0.50127  -0.49173  -0.48951  -0.48679  -0.48452
 Alpha  occ. eigenvalues --   -0.48116  -0.47690  -0.47161  -0.46991  -0.46822
 Alpha  occ. eigenvalues --   -0.46649  -0.46249  -0.45961  -0.45727  -0.45721
 Alpha  occ. eigenvalues --   -0.45239  -0.45140  -0.44966  -0.44755  -0.44284
 Alpha  occ. eigenvalues --   -0.44221  -0.44083  -0.43649  -0.43573  -0.43385
 Alpha  occ. eigenvalues --   -0.43209  -0.43139  -0.43062  -0.42615  -0.42415
 Alpha  occ. eigenvalues --   -0.42113  -0.42029  -0.41925  -0.41654  -0.41529
 Alpha  occ. eigenvalues --   -0.41395  -0.40997  -0.40946  -0.40832  -0.40778
 Alpha  occ. eigenvalues --   -0.40172  -0.40054  -0.39871  -0.39713  -0.39586
 Alpha  occ. eigenvalues --   -0.39299  -0.39222  -0.39014  -0.38906  -0.38588
 Alpha  occ. eigenvalues --   -0.38430  -0.38213  -0.38064  -0.37939  -0.37583
 Alpha  occ. eigenvalues --   -0.37411  -0.37176  -0.36903  -0.36575  -0.36533
 Alpha  occ. eigenvalues --   -0.36220  -0.36088  -0.35878  -0.35536  -0.35170
 Alpha  occ. eigenvalues --   -0.35149  -0.35094  -0.35023  -0.34345  -0.34280
 Alpha  occ. eigenvalues --   -0.34063  -0.33762  -0.33664  -0.33263  -0.33058
 Alpha  occ. eigenvalues --   -0.32931  -0.32776  -0.32678  -0.32402  -0.32135
 Alpha  occ. eigenvalues --   -0.31811  -0.31599  -0.31252  -0.30875  -0.30358
 Alpha  occ. eigenvalues --   -0.30246  -0.30082  -0.29996  -0.29671  -0.29417
 Alpha  occ. eigenvalues --   -0.28911  -0.28522  -0.28359  -0.28042  -0.27598
 Alpha  occ. eigenvalues --   -0.26956  -0.26901  -0.26620  -0.25980  -0.25767
 Alpha  occ. eigenvalues --   -0.25349  -0.24716  -0.23635  -0.22658  -0.19493
 Alpha  occ. eigenvalues --   -0.18592
 Alpha virt. eigenvalues --   -0.09796  -0.07805  -0.03806  -0.01419  -0.00382
 Alpha virt. eigenvalues --    0.00016   0.01058   0.01877   0.02589   0.03561
 Alpha virt. eigenvalues --    0.03572   0.03684   0.03913   0.03996   0.04465

 Mulliken charges:
               1
     1  C    0.041350
     2  C   -0.064203
     3  C   -0.068600
     4  C   -0.139827
     5  N   -0.148575
     6  C   -0.053423
     7  C   -0.089404
     8  C   -0.087739
     9  C   -0.044860
    10  C    0.205286
    11  C    0.081206
    12  C    0.134689
    13  C    0.181532
    14  O   -0.225995
    15  O   -0.352000
    16  N   -0.055145
    17  C    0.108042
    18  C   -0.070744
    19  C    0.065135
    20  C    0.060903
    21  C   -0.053222
    22  C   -0.063776
    23  C   -0.074056
    24  N   -0.186983
    25  C    0.063803
    26  C   -0.087511
    27  C   -0.177172
    28  C    0.051948
    29  C    0.016566
    30  C   -0.042521
    31  C    0.068331
    32  N    0.009833
    33  C    0.081891
    34  C   -0.117611
    35  C   -0.118380
    36  C    0.043115
    37  C    0.096913
    38  C    0.091064
    39  O   -0.054678
    40  C   -0.099484
    41  C    0.193132
    42  O   -0.305554
    43  O   -0.253319
    44  C    0.186494
    45  C    0.297389
    46  C   -0.072650
    47  C   -0.178390
    48  C   -0.001456
    49  C    0.092407
    50  C    0.135599
    51  C    0.000947
    52  C    0.007829
    53  C   -0.075730
    54  C    0.006679
    55  C    0.046614
    56  C    0.005338
    57  C   -0.046186
    58  C    0.067159
    59  C    0.060823
    60  C   -0.043255
    61  C   -0.015098
    62  C   -0.073160
    63  C   -0.064062
    64  C   -0.053449
    65  H   -0.012998
    66  H   -0.060754
    67  H    0.025714
    68  H   -0.001965
    69  H    0.016398
    70  H   -0.005084
    71  H   -0.014569
    72  H    0.018854
    73  H   -0.005606
    74  H    0.038815
    75  H   -0.041497
    76  H    0.048882
    77  H    0.043139
    78  H    0.040990
    79  H    0.057786
    80  H    0.013814
    81  H    0.038178
    82  H    0.021838
    83  H    0.052229
    84  H    0.030389
    85  H    0.044552
    86  H    0.021001
    87  H    0.021893
    88  H    0.021081
    89  H    0.033219
    90  H    0.008490
    91  H    0.035786
    92  H    0.046501
    93  H   -0.002093
    94  H    0.054361
    95  H    0.053329
    96  H    0.026821
    97  H    0.046262
    98  H    0.000471
    99  H    0.014990
   100  H    0.000135
   101  H    0.016565
   102  H    0.050633
   103  H    0.027412
   104  H   -0.002569
   105  H   -0.012720
   106  H   -0.060097
   107  H   -0.012024
   108  H   -0.019618
   109  H    0.001113
   110  H   -0.055988
   111  H    0.044421
   112  H    0.012363
   113  H    0.025931
   114  H    0.001256
   115  H   -0.028043
   116  H    0.015561
   117  H   -0.021829
   118  H   -0.015801
   119  H    0.002768
   120  H   -0.079405
   121  H    0.031919
   122  H   -0.005690
   123  H    0.011336
   124  H   -0.027898
   125  H   -0.010284
   126  H    0.002612
   127  H    0.027002
   128  H    0.008451
   129  H    0.018068
   130  H    0.003555
   131  H    0.035324
   132  H    0.038641
   133  H    0.016693
   134  H    0.035256
   135  H    0.021132
   136  H    0.046052
   137  H    0.130111
   138  H    0.152636
 Sum of Mulliken charges =  -0.00000

 Dipole moment (field-independent basis, Debye):
    X=              1.9665    Y=              1.9556    Z=              0.6910  Tot=              2.8582
 Quadrupole moment (field-independent basis, Debye-Ang):
   XX=           -358.8406   YY=           -371.7034   ZZ=           -398.0139
   XY=            -14.1371   XZ=              2.9103   YZ=             -2.6113

 Normal termination of Gaussian 16 at Tue Aug 27 06:15:12 2019.
