 Gaussian 16, Revision A.03,
 Gaussian 16:  ES64L-G16RevA.03 25-Dec-2016

 --------------------------
 # td=(NStates=1) B3LYP/SVP
 --------------------------

 --
 TD
 --
 Symbolic Z-matrix:
 Charge =  0 Multiplicity = 1

                         Standard orientation:
 ---------------------------------------------------------------------
 Center     Atomic      Atomic             Coordinates (Angstroms)
 Number     Number       Type             X           Y           Z
 ---------------------------------------------------------------------
      1          6           0       -5.162132   -1.978871    0.478648
      2          6           0       -4.698101    2.730685    1.478069
      3          6           0       -9.344182    3.363688   -0.134886
      4          6           0       -9.792290   -1.409740   -1.059002
      5          7           0       -5.211120    0.385082    0.911861
      6          6           0       -4.558747   -0.829578    0.918809
      7          6           0       -3.066072   -0.690814    1.352476
      8          6           0       -3.009692    0.815600    1.955138
      9          6           0       -4.395786    1.300310    1.438986
     10          6           0       -3.108759    0.788204    3.614448
     11          6           0       -2.165264   -0.833175    0.177160
     12          6           0       -0.688714   -0.709709    0.545989
     13          6           0        0.434076   -1.031101   -0.553954
     14          8           0        0.215843   -1.292157   -1.682959
     15          8           0        1.615751   -0.686954   -0.200528
     16          7           0       -7.105178    2.759234    0.633697
     17          6           0       -5.854645    3.390284    1.003002
     18          6           0       -6.220682    4.821318    1.027605
     19          6           0       -7.492700    4.985088    0.627208
     20          6           0       -8.026641    3.693374    0.293548
     21          6           0       -5.087538    5.883329    1.303557
     22          6           0       -8.203258    6.248208    0.366615
     23          6           0       -9.067208    6.616618   -0.606793
     24          7           0       -9.256694    0.904607   -0.415801
     25          6           0       -9.828889    2.071714   -0.423599
     26          6           0      -11.213572    1.908539   -0.951959
     27          6           0      -11.415661    0.615814   -1.221139
     28          6           0      -10.060777   -0.052075   -0.853213
     29          6           0      -12.189710    2.961203   -1.220262
     30          6           0      -12.646362   -0.008638   -1.793950
     31          6           0      -12.532443   -0.408428   -3.238384
     32          7           0       -7.594988   -1.267000   -0.236000
     33          6           0       -8.599063   -2.015462   -0.637786
     34          6           0       -8.213794   -3.419851   -0.557964
     35          6           0       -6.916856   -3.444129   -0.270428
     36          6           0       -6.473186   -2.074394    0.066500
     37          6           0       -9.087911   -4.577136   -0.993003
     38          6           0       -5.784369   -4.371078   -0.096711
     39          8           0       -5.728817   -5.563108   -0.174720
     40          6           0       -4.613845   -3.417047    0.371511
     41          6           0       -4.058851   -3.798531    1.719347
     42          8           0       -4.424837   -3.466105    2.850217
     43          8           0       -3.166419   -4.794168    1.635503
     44          6           0       -2.678170   -5.446450    2.795437
     45          6           0        2.691964   -0.983010   -1.139637
     46          6           0        4.072325   -0.635109   -0.598577
     47          6           0        4.962647    0.080528   -1.187809
     48          6           0        4.850185    0.665846   -2.587682
     49          6           0        6.302299    0.272312   -0.397133
     50          6           0        7.529229   -0.421001   -1.104912
     51          6           0        8.797326   -0.260763   -0.146252
     52          6           0       10.207003   -0.768849   -0.886827
     53          6           0       10.074621   -2.278879   -1.066673
     54          6           0       11.420236   -0.377339    0.006060
     55          6           0       12.761119   -0.671656   -0.599065
     56          6           0       13.922061   -0.154244    0.303445
     57          6           0       15.231664   -0.186866   -0.387533
     58          6           0       15.789793   -1.612493   -0.804329
     59          6           0       16.248675    0.584161    0.400483
     60          6           0       17.647055    0.699479   -0.065535
     61          6           0       18.606209    1.673303    0.626242
     62          6           0       20.046969    1.694270    0.276519
     63          6           0       20.217220    2.339412   -1.215518
     64          6           0       20.856597    2.329345    1.332115
     65          1           0       -3.964642    3.459163    1.881425
     66          1           0      -10.107017    4.107219   -0.286797
     67          1           0      -10.532699   -2.176798   -1.482551
     68          1           0       -2.751724   -1.336734    2.159069
     69          1           0       -2.090979    1.240817    1.468637
     70          1           0       -2.464422   -0.023278    4.205987
     71          1           0       -3.058341    1.815865    3.957134
     72          1           0       -4.127722    0.410526    3.592968
     73          1           0       -2.161794   -1.874516   -0.284122
     74          1           0       -2.279072   -0.235579   -0.809555
     75          1           0       -0.139504    0.157623    0.985290
     76          1           0       -0.336552   -1.175912    1.502460
     77          1           0       -4.206840    6.242659    0.528348
     78          1           0       -5.505350    6.975695    1.702840
     79          1           0       -4.409144    5.490104    2.042132
     80          1           0       -7.928046    7.074800    1.032752
     81          1           0       -9.507851    5.975918   -1.443373
     82          1           0       -9.495630    7.662311   -0.302377
     83          1           0      -12.102612    3.700758   -0.476865
     84          1           0      -11.904349    3.529487   -2.181358
     85          1           0      -13.080873    2.556124   -1.478540
     86          1           0      -12.688614   -0.981812   -1.329727
     87          1           0      -13.423148    0.593247   -1.604039
     88          1           0      -12.448394    0.501041   -3.989794
     89          1           0      -11.624188   -0.929610   -3.611867
     90          1           0      -13.517020   -1.056002   -3.728362
     91          1           0       -9.856513   -4.938439   -0.341385
     92          1           0       -9.514257   -4.230643   -2.039837
     93          1           0       -8.336916   -5.359593   -1.234280
     94          1           0       -3.674501   -3.244922   -0.452489
     95          1           0       -1.802661   -6.076694    2.452737
     96          1           0       -2.118242   -4.695446    3.585169
     97          1           0       -3.568140   -6.092261    3.433742
     98          1           0        2.437336   -2.023948   -1.648041
     99          1           0        2.469629   -0.255048   -1.994386
    100          1           0        4.052345   -0.770050    0.441665
    101          1           0        4.898084    1.782840   -2.654418
    102          1           0        5.615902    0.155583   -3.224026
    103          1           0        3.837187    0.600213   -3.021346
    104          1           0        6.547766    1.349602   -0.422755
    105          1           0        6.244873   -0.162628    0.596852
    106          1           0        7.246591   -1.378105   -1.416711
    107          1           0        7.635570    0.259033   -1.959495
    108          1           0        8.711845    0.806912    0.193141
    109          1           0        8.909297   -0.814320    0.831908
    110          1           0       10.366086   -0.314462   -1.961414
    111          1           0        8.994066   -2.498674   -1.458122
    112          1           0       10.790162   -2.636832   -1.898074
    113          1           0       10.429692   -2.929746   -0.207899
    114          1           0       11.354813    0.779771    0.106435
    115          1           0       11.421825   -0.982687    0.948973
    116          1           0       12.914194   -1.733180   -0.670461
    117          1           0       12.902413   -0.106910   -1.463950
    118          1           0       13.830501    0.984955    0.379235
    119          1           0       13.909319   -0.504537    1.236058
    120          1           0       15.199758    0.635509   -1.345911
    121          1           0       14.912644   -2.047091   -1.512217
    122          1           0       16.669719   -1.612576   -1.467144
    123          1           0       15.843134   -2.348421    0.121262
    124          1           0       15.870344    1.533926    0.580055
    125          1           0       16.421474    0.278711    1.540022
    126          1           0       18.249367   -0.162123   -0.213739
    127          1           0       17.880470    0.793581   -1.144289
    128          1           0       18.214948    2.734739    0.614215
    129          1           0       18.437846    1.628325    1.842125
    130          1           0       20.265896    0.526390    0.213908
    131          1           0       19.639697    3.198938   -1.221594
    132          1           0       21.180094    2.262765   -1.401743
    133          1           0       19.558745    1.681917   -1.958788
    134          1           0       20.799707    2.019417    2.273699
    135          1           0       21.911291    2.159293    1.066495
    136          1           0       20.744171    3.560329    1.402124
    137          1           0       -7.118150    1.678330    0.531116
    138          1           0       -7.869616   -0.245687    0.147048
 ---------------------------------------------------------------------

 SCF Done:  E(RB3LYP) =  -2733.06886767     A.U. after   16 cycles

 Excitation energies and oscillator strengths:

 Excited State   1:      Singlet-A      2.0537 eV  603.70 nm  f=0.2098  <S**2>=0.000
     235 -> 238       -0.29090
     236 -> 237        0.64088
 This state for optimization and/or second-order correction.
 Total Energy, E(TD-HF/TD-DFT) =  -2732.99339451
 Copying the excited state density for this state as the 1-particle RhoCI density.

 The electronic state is 1-A.
 Alpha  occ. eigenvalues --  -19.17823 -19.17682 -19.13585 -19.12063 -19.10947
 Alpha  occ. eigenvalues --  -14.37419 -14.37008 -14.33449 -14.30448 -10.31939
 Alpha  occ. eigenvalues --  -10.30616 -10.29122 -10.27001 -10.25581 -10.24430
 Alpha  occ. eigenvalues --  -10.24207 -10.23989 -10.23588 -10.23515 -10.23248
 Alpha  occ. eigenvalues --  -10.22776 -10.22329 -10.22214 -10.21631 -10.21617
 Alpha  occ. eigenvalues --  -10.21508 -10.21078 -10.20808 -10.20808 -10.20792
 Alpha  occ. eigenvalues --  -10.20729 -10.20727 -10.20715 -10.20632 -10.20431
 Alpha  occ. eigenvalues --  -10.20429 -10.20357 -10.20328 -10.20294 -10.20249
 Alpha  occ. eigenvalues --  -10.20247 -10.20128 -10.20058 -10.20002 -10.19915
 Alpha  occ. eigenvalues --  -10.19856 -10.19643 -10.19350 -10.19201 -10.19129
 Alpha  occ. eigenvalues --  -10.19064 -10.18795 -10.18456 -10.18378 -10.18194
 Alpha  occ. eigenvalues --  -10.17945 -10.17835 -10.17833 -10.17787 -10.17717
 Alpha  occ. eigenvalues --  -10.17391 -10.17368 -10.17201 -10.17179  -1.11983
 Alpha  occ. eigenvalues --   -1.09695  -1.04744  -1.00740  -0.99126  -0.98571
 Alpha  occ. eigenvalues --   -0.97064  -0.95370  -0.94447  -0.85584  -0.82813
 Alpha  occ. eigenvalues --   -0.82666  -0.81490  -0.81218  -0.80961  -0.80865
 Alpha  occ. eigenvalues --   -0.80494  -0.80127  -0.79517  -0.78571  -0.77243
 Alpha  occ. eigenvalues --   -0.76570  -0.75896  -0.75727  -0.74823  -0.74590
 Alpha  occ. eigenvalues --   -0.73521  -0.73288  -0.72616  -0.71735  -0.70131
 Alpha  occ. eigenvalues --   -0.69540  -0.69064  -0.68643  -0.68347  -0.68086
 Alpha  occ. eigenvalues --   -0.67446  -0.66961  -0.66563  -0.65693  -0.65269
 Alpha  occ. eigenvalues --   -0.64335  -0.62852  -0.62339  -0.61886  -0.61683
 Alpha  occ. eigenvalues --   -0.61293  -0.59889  -0.58947  -0.58024  -0.57784
 Alpha  occ. eigenvalues --   -0.57208  -0.55676  -0.55617  -0.55336  -0.55120
 Alpha  occ. eigenvalues --   -0.54817  -0.54243  -0.53961  -0.53857  -0.53513
 Alpha  occ. eigenvalues --   -0.53215  -0.52300  -0.52017  -0.50819  -0.50203
 Alpha  occ. eigenvalues --   -0.49916  -0.49803  -0.49011  -0.48840  -0.48666
 Alpha  occ. eigenvalues --   -0.48247  -0.47509  -0.47162  -0.47058  -0.46963
 Alpha  occ. eigenvalues --   -0.46560  -0.46486  -0.46337  -0.46212  -0.45914
 Alpha  occ. eigenvalues --   -0.45731  -0.45679  -0.45455  -0.45217  -0.44618
 Alpha  occ. eigenvalues --   -0.44603  -0.44204  -0.43983  -0.43905  -0.43544
 Alpha  occ. eigenvalues --   -0.43206  -0.43010  -0.42938  -0.42874  -0.42793
 Alpha  occ. eigenvalues --   -0.42707  -0.42560  -0.41823  -0.41581  -0.41429
 Alpha  occ. eigenvalues --   -0.41192  -0.41064  -0.40823  -0.40749  -0.40657
 Alpha  occ. eigenvalues --   -0.40540  -0.40233  -0.39943  -0.39454  -0.39424
 Alpha  occ. eigenvalues --   -0.39356  -0.39106  -0.38944  -0.38723  -0.38496
 Alpha  occ. eigenvalues --   -0.38270  -0.38120  -0.37957  -0.37855  -0.37678
 Alpha  occ. eigenvalues --   -0.37609  -0.37212  -0.37181  -0.36929  -0.36796
 Alpha  occ. eigenvalues --   -0.36619  -0.36362  -0.36115  -0.35864  -0.35702
 Alpha  occ. eigenvalues --   -0.35573  -0.35467  -0.34932  -0.34813  -0.34679
 Alpha  occ. eigenvalues --   -0.34606  -0.34455  -0.34344  -0.34144  -0.33968
 Alpha  occ. eigenvalues --   -0.33520  -0.33493  -0.33178  -0.32603  -0.32290
 Alpha  occ. eigenvalues --   -0.32222  -0.32033  -0.31783  -0.31683  -0.31181
 Alpha  occ. eigenvalues --   -0.30822  -0.30762  -0.30120  -0.29840  -0.29741
 Alpha  occ. eigenvalues --   -0.29230  -0.28539  -0.28461  -0.28385  -0.27548
 Alpha  occ. eigenvalues --   -0.27181  -0.27059  -0.26858  -0.26790  -0.26196
 Alpha  occ. eigenvalues --   -0.26054  -0.25533  -0.24509  -0.23214  -0.20271
 Alpha  occ. eigenvalues --   -0.18703
 Alpha virt. eigenvalues --   -0.10193  -0.07666  -0.05222  -0.02171  -0.00896
 Alpha virt. eigenvalues --    0.00361   0.00482   0.01587   0.02389   0.03549
 Alpha virt. eigenvalues --    0.03665   0.04067   0.04386   0.04577   0.05070

 Mulliken charges:
               1
     1  C   -0.022365
     2  C   -0.027481
     3  C   -0.101434
     4  C   -0.102929
     5  N   -0.150971
     6  C   -0.059356
     7  C   -0.001687
     8  C   -0.074039
     9  C   -0.026645
    10  C    0.026932
    11  C    0.087130
    12  C   -0.038478
    13  C    0.118151
    14  O   -0.225335
    15  O   -0.274837
    16  N   -0.151460
    17  C    0.084728
    18  C   -0.057814
    19  C    0.047884
    20  C    0.126849
    21  C   -0.021676
    22  C   -0.059414
    23  C   -0.060372
    24  N   -0.158097
    25  C    0.045268
    26  C   -0.194028
    27  C   -0.135859
    28  C    0.068064
    29  C    0.195100
    30  C    0.238043
    31  C   -0.100115
    32  N   -0.083753
    33  C    0.001534
    34  C   -0.173398
    35  C   -0.014302
    36  C    0.120654
    37  C    0.074410
    38  C    0.135608
    39  O   -0.129625
    40  C   -0.102207
    41  C    0.214164
    42  O   -0.248703
    43  O   -0.273428
    44  C    0.090321
    45  C    0.186947
    46  C   -0.051181
    47  C   -0.119552
    48  C    0.062294
    49  C    0.061482
    50  C    0.021746
    51  C    0.005624
    52  C   -0.093382
    53  C   -0.021559
    54  C    0.021884
    55  C    0.104377
    56  C    0.050827
    57  C   -0.105734
    58  C   -0.012558
    59  C    0.100101
    60  C    0.105428
    61  C   -0.056927
    62  C   -0.139791
    63  C    0.110858
    64  C    0.084268
    65  H   -0.014926
    66  H   -0.047778
    67  H    0.004360
    68  H    0.004248
    69  H    0.023603
    70  H    0.049708
    71  H    0.027258
    72  H    0.031385
    73  H    0.023509
    74  H    0.039210
    75  H    0.011666
    76  H   -0.005046
    77  H    0.052289
    78  H    0.039027
    79  H    0.014922
    80  H    0.004384
    81  H    0.046963
    82  H    0.039656
    83  H    0.010895
    84  H    0.012139
    85  H   -0.034222
    86  H   -0.009834
    87  H   -0.034270
    88  H    0.006377
    89  H    0.022631
    90  H    0.025652
    91  H    0.038016
    92  H    0.037868
    93  H    0.034839
    94  H    0.103904
    95  H    0.045062
    96  H    0.041406
    97  H    0.070120
    98  H    0.055033
    99  H    0.016591
   100  H   -0.018665
   101  H    0.024977
   102  H    0.042976
   103  H    0.002382
   104  H    0.002300
   105  H    0.000224
   106  H    0.005073
   107  H    0.005537
   108  H   -0.001781
   109  H    0.007774
   110  H    0.005632
   111  H    0.026207
   112  H    0.014890
   113  H    0.018058
   114  H    0.005162
   115  H   -0.003259
   116  H   -0.002161
   117  H   -0.033112
   118  H   -0.010607
   119  H   -0.046278
   120  H    0.008896
   121  H    0.016052
   122  H    0.026488
   123  H    0.033405
   124  H   -0.037870
   125  H   -0.014106
   126  H   -0.053295
   127  H   -0.057889
   128  H   -0.023698
   129  H   -0.018880
   130  H    0.003263
   131  H   -0.004867
   132  H   -0.013806
   133  H    0.008929
   134  H   -0.023843
   135  H   -0.004887
   136  H    0.012619
   137  H    0.182641
   138  H    0.208687
 Sum of Mulliken charges =  -0.00000

 Dipole moment (field-independent basis, Debye):
    X=              3.0601    Y=              3.6525    Z=              0.4027  Tot=              4.7820
 Quadrupole moment (field-independent basis, Debye-Ang):
   XX=           -361.2663   YY=           -389.2045   ZZ=           -397.3346
   XY=            -21.2847   XZ=              6.6884   YZ=             -0.4418

 Normal termination of Gaussian 16 at Sun Aug 25 16:59:28 2019.
