 Gaussian 09, Revision D.01,
 Gaussian 09:  ES64L-G09RevD.01 24-Apr-2013

 -------------------------------------------
 # td(NStates=1) CAM-B3LYP/6-31G(d,p) nosymm
 -------------------------------------------

 -----------------------
 lutein-abs Single Point
 -----------------------
 Symbolic Z-matrix:
 Charge =  0 Multiplicity = 1

                          Input orientation:
 ---------------------------------------------------------------------
 Center     Atomic      Atomic             Coordinates (Angstroms)
 Number     Number       Type             X           Y           Z
 ---------------------------------------------------------------------
      1          8           0      -14.023251   -1.963795    0.988422
      2          8           0       14.641840    1.034486    0.950092
      3          6           0      -11.751274    0.244321    1.126551
      4          6           0      -10.834051   -0.009152   -0.145271
      5          6           0      -12.006350   -1.108289    1.880325
      6          6           0      -12.647626   -2.263949    1.020481
      7          6           0      -11.377010   -1.116567   -0.929310
      8          6           0       10.993450   -0.055831    1.682263
      9          6           0      -11.185346    1.187878    2.156539
     10          6           0      -13.094307    0.887672    0.757966
     11          6           0       12.368657    0.668013    1.810311
     12          6           0      -12.198542   -2.101409   -0.452955
     13          6           0       13.294654    0.361875    0.761694
     14          6           0       10.527918   -0.055552    0.248333
     15          6           0       -9.376952   -0.105182    0.125083
     16          6           0       12.870531    0.806247   -0.526070
     17          6           0       11.383384    0.384024   -0.830074
     18          6           0       10.117705    0.581445    2.653671
     19          6           0       11.305871   -1.484864    2.229834
     20          6           0      -10.985522   -1.222915   -2.439338
     21          6           0       -8.562854    0.865769   -0.285244
     22          6           0        9.209927   -0.504851    0.036892
     23          6           0       11.010585    0.459697   -2.293059
     24          6           0       -7.026818    0.638190    0.088736
     25          6           0        8.836372   -1.518470   -0.766102
     26          6           0       -6.589789   -0.560628    0.929500
     27          6           0        7.426783   -1.939089   -0.945078
     28          6           0       -6.272293    1.626930   -0.374147
     29          6           0        7.292134   -3.313454   -1.318887
     30          6           0        6.404586   -1.134700   -0.628238
     31          6           0       -4.815597    1.685473   -0.215032
     32          6           0        4.942026   -1.321493   -0.861137
     33          6           0       -4.005441    2.572365   -0.874913
     34          6           0       -2.629634    2.795946   -0.834294
     35          6           0        4.009105   -0.403975   -0.707442
     36          6           0        2.676771   -0.570829   -0.863319
     37          6           0       -2.164203    4.153778   -0.745149
     38          6           0       -1.782573    1.746574   -0.847051
     39          6           0        1.920786    0.570601   -0.657621
     40          6           0        2.044270   -1.984134   -0.992648
     41          6           0       -0.380207    1.745243   -0.755330
     42          6           0        0.458116    0.607759   -0.804547
     43          1           0      -10.970894    1.008628   -0.827321
     44          1           0      -12.612844   -0.866945    2.936747
     45          1           0      -11.035161   -1.465648    2.258565
     46          1           0      -12.373246   -3.314533    1.522089
     47          1           0      -10.406291    0.791841    2.871049
     48          1           0      -10.880546    2.081599    1.771980
     49          1           0      -12.060396    1.634091    2.843198
     50          1           0      -13.672423    0.555704   -0.152709
     51          1           0      -13.973325    0.753635    1.459318
     52          1           0      -12.822523    1.856011    0.198599
     53          1           0       12.231770    1.728956    1.756748
     54          1           0       12.823442    0.476833    2.917116
     55          1           0      -12.435889   -2.753605   -1.146263
     56          1           0       13.748440   -0.690042    0.772181
     57          1           0       -8.813559   -0.891370    0.968234
     58          1           0       13.547226    0.254249   -1.302199
     59          1           0       12.915346    1.828362   -0.590286
     60          1           0        9.131455   -0.088934    2.812538
     61          1           0        9.575967    1.656523    2.436307
     62          1           0       10.552208    0.665297    3.731470
     63          1           0       11.988025   -2.032753    1.505392
     64          1           0       10.554034   -2.271273    2.359321
     65          1           0       11.676969   -1.457297    3.217538
     66          1           0       -9.949916   -1.285076   -2.546993
     67          1           0      -11.306293   -0.356384   -2.820304
     68          1           0      -11.694960   -2.060665   -2.881164
     69          1           0      -14.380154   -2.571404    0.260851
     70          1           0        8.365822   -0.128552    0.542882
     71          1           0       -8.703306    1.673016   -0.830666
     72          1           0       11.565486   -0.385254   -2.747098
     73          1           0        9.962622    0.221215   -2.441464
     74          1           0       11.409960    1.267629   -2.975331
     75          1           0       14.907851    0.809154    2.004904
     76          1           0        9.488605   -1.988547   -1.308428
     77          1           0       -5.415091   -0.615023    1.176879
     78          1           0       -7.211345   -0.608712    1.852123
     79          1           0       -6.960606   -1.507412    0.397159
     80          1           0       -6.659235    2.323935   -1.108172
     81          1           0        7.526402   -4.090946   -0.395008
     82          1           0        6.138323   -3.710223   -1.420797
     83          1           0        7.858172   -3.608712   -2.256150
     84          1           0        6.520748   -0.274397   -0.248721
     85          1           0       -4.396497    0.982534    0.344550
     86          1           0        4.634319   -2.468547   -1.091197
     87          1           0       -4.544142    3.371102   -1.379076
     88          1           0        4.388826    0.529369   -0.434256
     89          1           0       -1.062141    4.279017   -0.473525
     90          1           0       -2.972967    4.585691    0.186337
     91          1           0       -2.689623    4.708337   -1.423434
     92          1           0       -2.187831    0.532731   -0.610595
     93          1           0        2.594709    1.406911   -0.506246
     94          1           0        2.461033   -2.729116   -0.232415
     95          1           0        1.040602   -2.161208   -1.126710
     96          1           0        2.506451   -2.307906   -1.836512
     97          1           0        0.019689    2.646064   -0.553684
     98          1           0        0.061660   -0.433957   -0.930536
 ---------------------------------------------------------------------

 SCF Done:  E(RCAM-B3LYP) =  -1706.87026878     A.U. after   15 cycles

 Excitation energies and oscillator strengths:

 Excited state symmetry could not be determined.
 Excited State   1:      Singlet-?Sym    2.8004 eV  442.74 nm  f=2.9464  <S**2>=0.000
     155 ->158         0.16083
     156 ->157         0.68451
 This state for optimization and/or second-order correction.
 Total Energy, E(TD-HF/TD-KS) =  -1706.76735560
 Copying the excited state density for this state as the 1-particle RhoCI density.

 Alpha  occ. eigenvalues --  -19.21464 -19.20591 -10.31978 -10.29374 -10.28770
 Alpha  occ. eigenvalues --  -10.28321 -10.28037 -10.27984 -10.27742 -10.27670
 Alpha  occ. eigenvalues --  -10.27564 -10.27415 -10.27250 -10.27192 -10.27191
 Alpha  occ. eigenvalues --  -10.26924 -10.26808 -10.26624 -10.26601 -10.26584
 Alpha  occ. eigenvalues --  -10.26495 -10.26490 -10.26108 -10.26108 -10.26045
 Alpha  occ. eigenvalues --  -10.25837 -10.25645 -10.25628 -10.25626 -10.25584
 Alpha  occ. eigenvalues --  -10.25443 -10.25326 -10.25045 -10.24780 -10.24773
 Alpha  occ. eigenvalues --  -10.24630 -10.24619 -10.24496 -10.24398 -10.24261
 Alpha  occ. eigenvalues --  -10.24155 -10.24032  -1.09332  -1.04370  -0.94241
 Alpha  occ. eigenvalues --   -0.93120  -0.92854  -0.92573  -0.91047  -0.90157
 Alpha  occ. eigenvalues --   -0.87234  -0.86807  -0.86538  -0.85998  -0.84944
 Alpha  occ. eigenvalues --   -0.83009  -0.81743  -0.80952  -0.79835  -0.78861
 Alpha  occ. eigenvalues --   -0.77257  -0.77103  -0.76356  -0.76125  -0.76061
 Alpha  occ. eigenvalues --   -0.75309  -0.74951  -0.74301  -0.73637  -0.70368
 Alpha  occ. eigenvalues --   -0.68370  -0.67166  -0.66376  -0.64440  -0.64029
 Alpha  occ. eigenvalues --   -0.63238  -0.62528  -0.62391  -0.61028  -0.60464
 Alpha  occ. eigenvalues --   -0.59730  -0.58827  -0.58546  -0.57622  -0.56693
 Alpha  occ. eigenvalues --   -0.56061  -0.55089  -0.54394  -0.54003  -0.53630
 Alpha  occ. eigenvalues --   -0.53513  -0.52784  -0.52620  -0.51649  -0.51299
 Alpha  occ. eigenvalues --   -0.50941  -0.50434  -0.50172  -0.49374  -0.49334
 Alpha  occ. eigenvalues --   -0.48915  -0.48510  -0.48132  -0.47983  -0.47869
 Alpha  occ. eigenvalues --   -0.47739  -0.47547  -0.47340  -0.47045  -0.46501
 Alpha  occ. eigenvalues --   -0.46306  -0.46198  -0.45715  -0.45034  -0.44990
 Alpha  occ. eigenvalues --   -0.44813  -0.44316  -0.44274  -0.43920  -0.43598
 Alpha  occ. eigenvalues --   -0.43063  -0.43007  -0.42688  -0.41924  -0.41825
 Alpha  occ. eigenvalues --   -0.41297  -0.41041  -0.40866  -0.40691  -0.40342
 Alpha  occ. eigenvalues --   -0.40145  -0.40108  -0.39818  -0.39565  -0.39094
 Alpha  occ. eigenvalues --   -0.38606  -0.38546  -0.37849  -0.37702  -0.37460
 Alpha  occ. eigenvalues --   -0.37447  -0.36472  -0.36217  -0.35826  -0.35531
 Alpha  occ. eigenvalues --   -0.35270  -0.34363  -0.33052  -0.31849  -0.31554
 Alpha  occ. eigenvalues --   -0.31098  -0.28907  -0.28626  -0.26664  -0.24728
 Alpha  occ. eigenvalues --   -0.20646
 Alpha virt. eigenvalues --   -0.03729   0.00481   0.02892   0.05743   0.06614
 Alpha virt. eigenvalues --    0.08515   0.09663   0.10066   0.10703   0.11231
 Alpha virt. eigenvalues --    0.12032   0.12255   0.12484   0.12641   0.13226

 Mulliken charges:
               1
     1  O   -0.523972
     2  O   -0.592797
     3  C    0.052909
     4  C   -0.168449
     5  C   -0.174850
     6  C    0.137544
     7  C    0.108494
     8  C    0.005974
     9  C   -0.296111
    10  C   -0.298539
    11  C   -0.179354
    12  C   -0.117714
    13  C    0.165507
    14  C    0.041367
    15  C   -0.072873
    16  C   -0.198006
    17  C    0.038428
    18  C   -0.298853
    19  C   -0.302450
    20  C   -0.345531
    21  C   -0.035340
    22  C   -0.110125
    23  C   -0.372871
    24  C    0.111997
    25  C   -0.066806
    26  C   -0.394138
    27  C    0.110622
    28  C   -0.142912
    29  C   -0.373592
    30  C   -0.096763
    31  C   -0.037931
    32  C   -0.107086
    33  C   -0.143023
    34  C    0.125378
    35  C   -0.097758
    36  C    0.126500
    37  C   -0.359669
    38  C   -0.104700
    39  C   -0.129599
    40  C   -0.375049
    41  C   -0.067631
    42  C   -0.109896
    43  H    0.070806
    44  H    0.082814
    45  H    0.084830
    46  H    0.065627
    47  H    0.089634
    48  H    0.107600
    49  H    0.084508
    50  H    0.092634
    51  H    0.121781
    52  H    0.073869
    53  H    0.109343
    54  H    0.059643
    55  H    0.060360
    56  H    0.090155
    57  H    0.070384
    58  H    0.105382
    59  H    0.135434
    60  H    0.084151
    61  H    0.086794
    62  H    0.098163
    63  H    0.098013
    64  H    0.102572
    65  H    0.105753
    66  H    0.129848
    67  H    0.123406
    68  H    0.089823
    69  H    0.303910
    70  H    0.089690
    71  H    0.078683
    72  H    0.117728
    73  H    0.125079
    74  H    0.117550
    75  H    0.287455
    76  H    0.063746
    77  H    0.113497
    78  H    0.132316
    79  H    0.129233
    80  H    0.078632
    81  H    0.105514
    82  H    0.089401
    83  H    0.114652
    84  H    0.051817
    85  H    0.061025
    86  H    0.055850
    87  H    0.065300
    88  H    0.082506
    89  H    0.127571
    90  H    0.077944
    91  H    0.139734
    92  H    0.048478
    93  H    0.076218
    94  H    0.114794
    95  H    0.119639
    96  H    0.136060
    97  H    0.063902
    98  H    0.078416
 Sum of Mulliken charges =   0.00000

 Dipole moment (field-independent basis, Debye):
    X=             -0.4958    Y=             -1.7385    Z=             -0.2058  Tot=              1.8195
 Quadrupole moment (field-independent basis, Debye-Ang):
   XX=           -294.5348   YY=           -245.8901   ZZ=           -257.0470
   XY=             -5.6589   XZ=             28.2345   YZ=              0.0014

 Normal termination of Gaussian 09 at Fri May 17 22:02:10 2019.
