 Gaussian 09, Revision D.01,
 Gaussian 09:  ES64L-G09RevD.01 24-Apr-2013

 ----------------
 #n B3LYP/SVP Opt
 ----------------

 -------------------------
 dihydrobiliverdin-s0-geom
 -------------------------
 Symbolic Z-matrix:
 Charge =  0 Multiplicity = 1

 SCF Done:  E(RB3LYP) =  -1948.07980724     A.U. after   16 cycles
 SCF Done:  E(RB3LYP) =  -1948.12246397     A.U. after   14 cycles
 SCF Done:  E(RB3LYP) =  -1947.46091877     A.U. after   21 cycles
 SCF Done:  E(RB3LYP) =  -1948.13156355     A.U. after   15 cycles
 SCF Done:  E(RB3LYP) =  -1948.14423879     A.U. after   14 cycles
 SCF Done:  E(RB3LYP) =  -1948.14606076     A.U. after   15 cycles
 SCF Done:  E(RB3LYP) =  -1948.14795627     A.U. after   14 cycles
 SCF Done:  E(RB3LYP) =  -1948.14900249     A.U. after   13 cycles
 SCF Done:  E(RB3LYP) =  -1948.14989580     A.U. after   13 cycles
 SCF Done:  E(RB3LYP) =  -1948.15057207     A.U. after   13 cycles
 SCF Done:  E(RB3LYP) =  -1948.15174291     A.U. after   10 cycles
 SCF Done:  E(RB3LYP) =  -1948.15169646     A.U. after   13 cycles
 SCF Done:  E(RB3LYP) =  -1948.14581935     A.U. after   16 cycles
 SCF Done:  E(RB3LYP) =  -1948.15175248     A.U. after   12 cycles
 SCF Done:  E(RB3LYP) =  -1948.15171615     A.U. after   12 cycles
 SCF Done:  E(RB3LYP) =  -1948.15177112     A.U. after   11 cycles
 SCF Done:  E(RB3LYP) =  -1948.15177297     A.U. after   10 cycles
 SCF Done:  E(RB3LYP) =  -1948.15177322     A.U. after    9 cycles
 SCF Done:  E(RB3LYP) =  -1948.15177323     A.U. after    7 cycles
 SCF Done:  E(RB3LYP) =  -1948.15177323     A.U. after    7 cycles
 Optimization completed on the basis of negligible forces.
    -- Stationary point found.

                         Standard orientation:
 ---------------------------------------------------------------------
 Center     Atomic      Atomic             Coordinates (Angstroms)
 Number     Number       Type             X           Y           Z
 ---------------------------------------------------------------------
      1          8           0        5.366147   -0.209229   -3.341756
      2          8           0       -2.871783   -3.103040    3.247042
      3          8           0       -3.212379   -0.890146    3.261224
      4          8           0       -1.566534    7.200965    1.516166
      5          8           0       -0.490944    6.990686   -0.440695
      6          8           0       -1.986178   -4.020142   -0.072632
      7          7           0        2.373885    0.889775    0.574645
      8          7           0        4.420770   -0.648077   -1.270798
      9          7           0       -1.892897    0.680427   -0.375487
     10          7           0       -2.697765   -1.855189   -0.525128
     11          6           0        4.847361   -1.208598   -0.004640
     12          6           0        4.463843   -0.316037    1.209216
     13          6           0        2.995350   -0.061358    1.336491
     14          6           0        2.019478   -0.678684    2.121937
     15          6           0        0.761053   -0.085699    1.792357
     16          6           0        1.006179    0.888815    0.802913
     17          6           0        6.348847   -1.342876   -0.185970
     18          6           0       -0.535227   -0.310904    2.523306
     19          6           0        6.705475   -0.907463   -1.421567
     20          6           0        0.192565    1.886994    0.158318
     21          6           0       -1.100924    1.815022   -0.291946
     22          6           0        5.459195   -0.533520   -2.175696
     23          6           0       -1.901203    2.914476   -0.836723
     24          6           0        2.262525   -1.732825    3.163524
     25          6           0        7.209935   -1.895028    0.903755
     26          6           0       -3.114684    2.400141   -1.228296
     27          6           0       -1.072303   -1.748720    2.507783
     28          6           0       -3.084738    0.965993   -0.963538
     29          6           0       -1.454287    4.346365   -0.875224
     30          6           0        7.992550   -0.814981   -2.102995
     31          6           0       -1.721870    5.097649    0.437001
     32          6           0       -4.282695    3.107770   -1.840052
     33          6           0       -4.040855   -0.002875   -1.287838
     34          6           0       -2.483779   -1.828481    3.041143
     35          6           0       -3.815176   -1.376954   -1.072085
     36          6           0        9.218094   -0.792797   -1.552707
     37          6           0       -1.185277    6.512618    0.422230
     38          6           0       -4.769927   -2.478811   -1.462569
     39          6           0       -4.144414   -3.637862   -1.124192
     40          6           0       -2.813104   -3.242667   -0.514468
     41          6           0       -6.080516   -2.240460   -2.054545
     42          6           0       -4.553086   -5.064217   -1.233142
     43          6           0       -6.884409   -3.144632   -2.644501
     44          1           0        4.400306   -2.209914    0.154668
     45          1           0        5.005605    0.639861    1.107186
     46          1           0        4.828772   -0.797800    2.128518
     47          1           0        2.835795    1.431269   -0.146175
     48          1           0        3.462821   -0.699479   -1.598023
     49          1           0       -0.404227   -0.000421    3.576679
     50          1           0       -1.315621    0.351039    2.126815
     51          1           0        0.695158    2.840320   -0.038106
     52          1           0        3.328436   -1.804358    3.428152
     53          1           0        1.711439   -1.513799    4.092719
     54          1           0        1.941842   -2.733774    2.828442
     55          1           0        6.650750   -2.600279    1.539213
     56          1           0        7.593437   -1.096996    1.565153
     57          1           0        8.084542   -2.419343    0.489888
     58          1           0       -1.098322   -2.174043    1.489887
     59          1           0       -0.449528   -2.439270    3.096319
     60          1           0       -1.664105   -0.315888   -0.217597
     61          1           0       -1.957463    4.875117   -1.698984
     62          1           0       -0.378982    4.410858   -1.102900
     63          1           0        7.896425   -0.723853   -3.191051
     64          1           0       -1.259073    4.576807    1.293096
     65          1           0       -2.798209    5.135556    0.671454
     66          1           0       -4.075879    4.175418   -1.998232
     67          1           0       -5.179091    3.030455   -1.201592
     68          1           0       -4.547898    2.670748   -2.817477
     69          1           0       -4.962180    0.329478   -1.762919
     70          1           0        9.384714   -0.822769   -0.473506
     71          1           0       10.108128   -0.717473   -2.182980
     72          1           0       -3.795635   -3.064615    3.548154
     73          1           0       -6.440991   -1.207333   -2.003525
     74          1           0       -4.519304   -5.418959   -2.279102
     75          1           0       -3.861994   -5.688661   -0.647788
     76          1           0       -5.583895   -5.224387   -0.873921
     77          1           0       -1.172249    8.087461    1.443465
     78          1           0       -7.857198   -2.845850   -3.043383
     79          1           0       -6.604778   -4.192802   -2.763646
 ---------------------------------------------------------------------

 The electronic state is 1-A.
 Alpha  occ. eigenvalues --  -19.19092 -19.16663 -19.13516 -19.11031 -19.10137
 Alpha  occ. eigenvalues --  -19.10118 -14.38374 -14.36380 -14.35448 -14.28825
 Alpha  occ. eigenvalues --  -10.32798 -10.30272 -10.28477 -10.26083 -10.25136
 Alpha  occ. eigenvalues --  -10.24601 -10.24278 -10.23176 -10.22970 -10.22953
 Alpha  occ. eigenvalues --  -10.22173 -10.22028 -10.21997 -10.21695 -10.21337
 Alpha  occ. eigenvalues --  -10.21156 -10.21141 -10.20911 -10.20479 -10.20237
 Alpha  occ. eigenvalues --  -10.20104 -10.20074 -10.19632 -10.19619 -10.19609
 Alpha  occ. eigenvalues --  -10.19285 -10.19278 -10.19210 -10.18971 -10.18866
 Alpha  occ. eigenvalues --  -10.18815 -10.18489 -10.18473  -1.10787  -1.08336
 Alpha  occ. eigenvalues --   -1.02714  -1.01593  -1.01184  -0.99020  -0.98779
 Alpha  occ. eigenvalues --   -0.98331  -0.94396  -0.91888  -0.83096  -0.82342
 Alpha  occ. eigenvalues --   -0.81739  -0.81116  -0.80172  -0.79729  -0.78315
 Alpha  occ. eigenvalues --   -0.77194  -0.76268  -0.75675  -0.74594  -0.72756
 Alpha  occ. eigenvalues --   -0.71935  -0.71471  -0.69707  -0.69197  -0.68881
 Alpha  occ. eigenvalues --   -0.67147  -0.66262  -0.63928  -0.61360  -0.60751
 Alpha  occ. eigenvalues --   -0.60460  -0.58944  -0.58470  -0.57987  -0.57026
 Alpha  occ. eigenvalues --   -0.56375  -0.56037  -0.55222  -0.54097  -0.53252
 Alpha  occ. eigenvalues --   -0.52165  -0.51871  -0.51230  -0.50761  -0.50128
 Alpha  occ. eigenvalues --   -0.49037  -0.48889  -0.48475  -0.48122  -0.47227
 Alpha  occ. eigenvalues --   -0.47118  -0.47017  -0.46567  -0.46272  -0.45536
 Alpha  occ. eigenvalues --   -0.45187  -0.45100  -0.44101  -0.43763  -0.43592
 Alpha  occ. eigenvalues --   -0.43435  -0.43149  -0.42793  -0.42723  -0.42579
 Alpha  occ. eigenvalues --   -0.42519  -0.42398  -0.41882  -0.41650  -0.41228
 Alpha  occ. eigenvalues --   -0.40979  -0.40666  -0.40481  -0.40286  -0.40102
 Alpha  occ. eigenvalues --   -0.39836  -0.39727  -0.39362  -0.39157  -0.38934
 Alpha  occ. eigenvalues --   -0.38798  -0.38691  -0.38370  -0.37994  -0.37653
 Alpha  occ. eigenvalues --   -0.36969  -0.36385  -0.35932  -0.35518  -0.35066
 Alpha  occ. eigenvalues --   -0.34655  -0.34217  -0.33423  -0.33299  -0.31904
 Alpha  occ. eigenvalues --   -0.31254  -0.30939  -0.29213  -0.28835  -0.27529
 Alpha  occ. eigenvalues --   -0.26832  -0.26705  -0.26228  -0.25802  -0.24730
 Alpha  occ. eigenvalues --   -0.24471  -0.23989  -0.23809  -0.22361  -0.19180
 Alpha virt. eigenvalues --   -0.10487  -0.06006  -0.05648  -0.00411  -0.00162
 Alpha virt. eigenvalues --    0.01224   0.01639   0.02362   0.03297   0.03671
 Alpha virt. eigenvalues --    0.04421   0.04923   0.05023   0.05834   0.06086

 Mulliken charges:
               1
     1  O   -0.213817
     2  O   -0.175524
     3  O   -0.235369
     4  O   -0.177741
     5  O   -0.221480
     6  O   -0.203082
     7  N   -0.065840
     8  N   -0.200399
     9  N   -0.064374
    10  N   -0.280945
    11  C    0.092483
    12  C    0.210126
    13  C   -0.100014
    14  C   -0.141120
    15  C   -0.083565
    16  C    0.070688
    17  C   -0.188287
    18  C    0.097952
    19  C   -0.041246
    20  C   -0.107398
    21  C    0.105901
    22  C    0.141091
    23  C   -0.088157
    24  C    0.107293
    25  C    0.091571
    26  C   -0.138255
    27  C   -0.008841
    28  C    0.100853
    29  C    0.105933
    30  C   -0.009999
    31  C    0.002415
    32  C    0.118704
    33  C   -0.123377
    34  C    0.119571
    35  C    0.098854
    36  C   -0.026147
    37  C    0.125982
    38  C    0.063251
    39  C   -0.221127
    40  C    0.146818
    41  C   -0.029595
    42  C    0.096139
    43  C   -0.018596
    44  H    0.020668
    45  H   -0.010920
    46  H   -0.007124
    47  H    0.112843
    48  H    0.128324
    49  H    0.007053
    50  H    0.007947
    51  H   -0.014317
    52  H   -0.008824
    53  H    0.018362
    54  H    0.038005
    55  H    0.016747
    56  H    0.039453
    57  H    0.036346
    58  H    0.067612
    59  H    0.016675
    60  H    0.150509
    61  H    0.013217
    62  H    0.015064
    63  H    0.013135
    64  H    0.042929
    65  H    0.036408
    66  H    0.007143
    67  H    0.029129
    68  H    0.030310
    69  H   -0.036357
    70  H    0.011465
    71  H    0.028932
    72  H    0.173490
    73  H   -0.012042
    74  H    0.032115
    75  H    0.024827
    76  H    0.022850
    77  H    0.181492
    78  H    0.021487
    79  H    0.013719
 Sum of Mulliken charges =   0.00000

 Dipole moment (field-independent basis, Debye):
    X=              0.5887    Y=              2.6502    Z=              3.1554  Tot=              4.1626
 Quadrupole moment (field-independent basis, Debye-Ang):
   XX=           -218.4299   YY=           -244.2054   ZZ=           -263.5893
   XY=            -11.7797   XZ=             34.1537   YZ=              3.0298

 1\1\GINC-PADAWAN-42\FOpt\RB3LYP\SVP\C33H36N4O6\PADAWAN\29-Mar-2019\0\\
 #n B3LYP/SVP Opt\\dihydrobiliverdin-s0-geom\\0,1\O,5.0191523418,-1.642
 0421798,3.6211390266\O,-0.9946317372,2.037836063,-4.7420409008\O,-2.60
 75215139,0.9353603564,-3.6483133285\O,-5.8956153707,-4.0406365931,2.32
 22810186\O,-4.49144744,-3.6290453204,4.0220815715\O,1.0205716907,3.664
 4022962,-2.3050673494\N,1.1602926894,-2.3347288085,0.4385266644\N,4.08
 30024662,-1.8080804831,1.5066068104\N,-1.709725587,0.9690446428,0.4292
 140427\N,-0.732772236,3.057150992,-0.9067962992\C,4.448020142,-2.37415

 Normal termination of Gaussian 09 at Fri Mar 29 23:18:28 2019.
