 Gaussian 09, Revision D.01,
 Gaussian 09:  ES64L-G09RevD.01 24-Apr-2013

 ---------------------------
 #n CAM-B3LYP/6-31G(d,p) Opt
 ---------------------------

 ------------------
 neoxanthin-s0-geom
 ------------------
 Symbolic Z-matrix:
 Charge =  0 Multiplicity = 1

 SCF Done:  E(RCAM-B3LYP) =  -1857.67596660     A.U. after   14 cycles
 SCF Done:  E(RCAM-B3LYP) =  -1857.71363303     A.U. after   13 cycles
 SCF Done:  E(RCAM-B3LYP) =  -1857.73021175     A.U. after   13 cycles
 SCF Done:  E(RCAM-B3LYP) =  -1857.73079490     A.U. after   13 cycles
 SCF Done:  E(RCAM-B3LYP) =  -1857.73304894     A.U. after   13 cycles
 SCF Done:  E(RCAM-B3LYP) =  -1857.73268674     A.U. after   13 cycles
 SCF Done:  E(RCAM-B3LYP) =  -1857.73489509     A.U. after   12 cycles
 SCF Done:  E(RCAM-B3LYP) =  -1857.73429696     A.U. after   12 cycles
 SCF Done:  E(RCAM-B3LYP) =  -1857.73516377     A.U. after   11 cycles
 SCF Done:  E(RCAM-B3LYP) =  -1857.73524904     A.U. after   12 cycles
 SCF Done:  E(RCAM-B3LYP) =  -1857.74089621     A.U. after   10 cycles
 SCF Done:  E(RCAM-B3LYP) =  -1857.74092411     A.U. after    9 cycles
 SCF Done:  E(RCAM-B3LYP) =  -1857.74093037     A.U. after   10 cycles
 SCF Done:  E(RCAM-B3LYP) =  -1857.74093786     A.U. after   10 cycles
 SCF Done:  E(RCAM-B3LYP) =  -1857.74093977     A.U. after    8 cycles
 SCF Done:  E(RCAM-B3LYP) =  -1857.74093994     A.U. after    8 cycles
 SCF Done:  E(RCAM-B3LYP) =  -1857.74094012     A.U. after    6 cycles
 SCF Done:  E(RCAM-B3LYP) =  -1857.74093998     A.U. after    6 cycles
 SCF Done:  E(RCAM-B3LYP) =  -1857.74094008     A.U. after    5 cycles
 SCF Done:  E(RCAM-B3LYP) =  -1857.74093994     A.U. after    5 cycles
 Optimization completed.
    -- Stationary point found.

                         Standard orientation:
 ---------------------------------------------------------------------
 Center     Atomic      Atomic             Coordinates (Angstroms)
 Number     Number       Type             X           Y           Z
 ---------------------------------------------------------------------
      1          8           0       11.620716    0.841030   -0.861433
      2          8           0       13.087993   -2.474211    1.246667
      3          8           0      -10.436268   -0.727337    2.233538
      4          8           0      -14.385806   -1.203284    0.444529
      5          6           0       10.894198   -0.300990   -0.387231
      6          6           0       11.863443    0.422997    0.487756
      7          6           0       11.282558   -1.597164   -1.129289
      8          6           0       13.272040   -0.107891    0.711152
      9          6           0       12.813876   -1.790600   -1.102262
     10          6           0       13.488021   -1.543849    0.244036
     11          6           0       11.399858    1.407274    1.534484
     12          6           0        9.426223   -0.040843   -0.254388
     13          6           0       10.559878   -2.824593   -0.551537
     14          6           0       10.850302   -1.439744   -2.596468
     15          6           0        8.678551   -0.375782    0.799462
     16          6           0        7.234691   -0.134645    0.952263
     17          6           0        6.504749   -1.171936    1.763281
     18          6           0        6.652463    0.950049    0.401309
     19          6           0        5.247668    1.296042    0.419512
     20          6           0      -11.907233   -0.311178   -1.282578
     21          6           0      -11.543528   -0.490211    1.367283
     22          6           0      -12.597652   -1.687044   -1.179735
     23          6           0      -13.246117   -2.012075    0.164404
     24          6           0      -12.253654   -1.846482    1.303318
     25          6           0      -11.040215   -0.080674   -0.035188
     26          6           0      -11.035112   -0.310082   -2.543987
     27          6           0      -12.944145    0.819499   -1.430987
     28          6           0      -12.416905    0.598522    1.997499
     29          6           0        4.763071    2.418113   -0.143706
     30          6           0       -9.859646    0.471940   -0.105061
     31          6           0        3.359852    2.828957   -0.201047
     32          6           0       -8.647470    0.982502   -0.086588
     33          6           0        3.138665    4.316568   -0.287132
     34          6           0        2.360674    1.917237   -0.192137
     35          6           0       -7.407784    0.197180   -0.137343
     36          6           0       -7.560817   -1.297028   -0.136907
     37          6           0       -6.228907    0.855089   -0.153271
     38          6           0        0.941242    2.171174   -0.192199
     39          6           0       -4.902182    0.283309   -0.181874
     40          6           0        0.012181    1.191815   -0.207548
     41          6           0       -3.783041    1.034008   -0.185170
     42          6           0       -1.405892    1.445682   -0.197479
     43          6           0       -2.415374    0.541660   -0.204827
     44          6           0       -2.203209   -0.946996   -0.228588
     45          1           0       13.533487   -0.051244    1.772490
     46          1           0       13.950278    0.567700    0.178723
     47          1           0       13.043444   -2.806926   -1.437021
     48          1           0       13.267589   -1.103241   -1.824119
     49          1           0       14.562302   -1.717557    0.127121
     50          1           0       11.264607    0.915944    2.503164
     51          1           0       12.158244    2.186436    1.659766
     52          1           0       10.461064    1.878082    1.248852
     53          1           0        8.965467    0.439258   -1.114927
     54          1           0        9.477237   -2.722876   -0.644516
     55          1           0       10.864467   -3.717364   -1.104634
     56          1           0       10.794801   -3.010154    0.497139
     57          1           0       11.272941   -0.528770   -3.027025
     58          1           0       11.199686   -2.293084   -3.185518
     59          1           0        9.761614   -1.395952   -2.691712
     60          1           0       12.244430   -2.179519    1.607280
     61          1           0        9.155981   -0.903982    1.625797
     62          1           0        5.465912   -0.909490    1.959453
     63          1           0        6.519521   -2.144035    1.258119
     64          1           0        6.999590   -1.313462    2.730414
     65          1           0        7.298715    1.658754   -0.112702
     66          1           0        4.556767    0.621390    0.916053
     67          1           0      -13.343472   -1.772526   -1.981468
     68          1           0      -11.852379   -2.467728   -1.374232
     69          1           0      -13.554969   -3.068170    0.143686
     70          1           0      -12.753324   -2.033821    2.257768
     71          1           0      -11.473858   -2.605525    1.189791
     72          1           0      -11.651552   -0.507333   -3.426471
     73          1           0      -10.543994    0.655746   -2.683974
     74          1           0      -10.257843   -1.077049   -2.491146
     75          1           0      -13.656163    0.836680   -0.608452
     76          1           0      -12.441670    1.788967   -1.483957
     77          1           0      -13.508062    0.682120   -2.360286
     78          1           0      -12.639418    0.312159    3.028543
     79          1           0      -11.878589    1.551340    2.009170
     80          1           0      -13.359526    0.727949    1.468809
     81          1           0        5.477608    3.115272   -0.581826
     82          1           0       -9.882059    0.064553    2.221816
     83          1           0      -15.013984   -1.311849   -0.279150
     84          1           0       -8.535668    2.064900   -0.023898
     85          1           0        2.099304    4.586103   -0.470672
     86          1           0        3.460068    4.812805    0.635042
     87          1           0        3.739867    4.740659   -1.098507
     88          1           0        2.641885    0.866181   -0.199206
     89          1           0       -6.612242   -1.818332   -0.013821
     90          1           0       -8.235744   -1.600166    0.669222
     91          1           0       -8.016206   -1.637208   -1.073287
     92          1           0       -6.265671    1.943745   -0.141016
     93          1           0        0.598009    3.202382   -0.169781
     94          1           0       -4.814831   -0.798162   -0.200808
     95          1           0        0.356372    0.160870   -0.224628
     96          1           0       -3.893635    2.117514   -0.168714
     97          1           0       -1.686193    2.498083   -0.179812
     98          1           0       -1.149760   -1.221933   -0.242628
     99          1           0       -2.659640   -1.416265    0.648944
    100          1           0       -2.675812   -1.390287   -1.111025
 ---------------------------------------------------------------------

 The electronic state is 1-A.
 Alpha  occ. eigenvalues --  -19.21995 -19.21994 -19.21132 -19.20459 -10.31959
 Alpha  occ. eigenvalues --  -10.31674 -10.31498 -10.30987 -10.30393 -10.27878
 Alpha  occ. eigenvalues --  -10.27400 -10.27232 -10.27072 -10.27059 -10.26915
 Alpha  occ. eigenvalues --  -10.26823 -10.26772 -10.26620 -10.26335 -10.26288
 Alpha  occ. eigenvalues --  -10.26255 -10.26132 -10.26114 -10.26024 -10.25980
 Alpha  occ. eigenvalues --  -10.25899 -10.25809 -10.25777 -10.25729 -10.25713
 Alpha  occ. eigenvalues --  -10.25663 -10.25643 -10.25538 -10.25493 -10.25348
 Alpha  occ. eigenvalues --  -10.25188 -10.24736 -10.24680 -10.24571 -10.24380
 Alpha  occ. eigenvalues --  -10.24325 -10.24224 -10.24130 -10.23437  -1.15224
 Alpha  occ. eigenvalues --   -1.10357  -1.09565  -1.09319  -0.92910  -0.92218
 Alpha  occ. eigenvalues --   -0.91748  -0.91043  -0.90434  -0.89992  -0.87303
 Alpha  occ. eigenvalues --   -0.86702  -0.86065  -0.85552  -0.84714  -0.83104
 Alpha  occ. eigenvalues --   -0.82311  -0.81121  -0.80451  -0.78305  -0.76958
 Alpha  occ. eigenvalues --   -0.76836  -0.76390  -0.76186  -0.76159  -0.76038
 Alpha  occ. eigenvalues --   -0.75911  -0.74521  -0.73569  -0.70470  -0.69910
 Alpha  occ. eigenvalues --   -0.68703  -0.66791  -0.65364  -0.64746  -0.64479
 Alpha  occ. eigenvalues --   -0.63337  -0.62117  -0.60900  -0.60376  -0.59807
 Alpha  occ. eigenvalues --   -0.58943  -0.58365  -0.57926  -0.57697  -0.56828
 Alpha  occ. eigenvalues --   -0.55777  -0.55393  -0.54931  -0.54497  -0.54320
 Alpha  occ. eigenvalues --   -0.53631  -0.53205  -0.52830  -0.52086  -0.51684
 Alpha  occ. eigenvalues --   -0.51445  -0.51324  -0.50462  -0.49654  -0.49475
 Alpha  occ. eigenvalues --   -0.49286  -0.49106  -0.49010  -0.48580  -0.48533
 Alpha  occ. eigenvalues --   -0.48463  -0.48062  -0.47859  -0.47729  -0.47167
 Alpha  occ. eigenvalues --   -0.46881  -0.46658  -0.46379  -0.46197  -0.45423
 Alpha  occ. eigenvalues --   -0.44991  -0.44731  -0.44595  -0.44259  -0.44195
 Alpha  occ. eigenvalues --   -0.43849  -0.43776  -0.43458  -0.43124  -0.43040
 Alpha  occ. eigenvalues --   -0.42782  -0.42537  -0.42307  -0.42152  -0.41875
 Alpha  occ. eigenvalues --   -0.41063  -0.40955  -0.40594  -0.40557  -0.40296
 Alpha  occ. eigenvalues --   -0.40092  -0.40021  -0.39822  -0.39573  -0.39354
 Alpha  occ. eigenvalues --   -0.39111  -0.38927  -0.38377  -0.38221  -0.37730
 Alpha  occ. eigenvalues --   -0.37623  -0.36364  -0.35298  -0.34905  -0.34070
 Alpha  occ. eigenvalues --   -0.32830  -0.32606  -0.32335  -0.31820  -0.31328
 Alpha  occ. eigenvalues --   -0.29846  -0.28132  -0.24994  -0.21344
 Alpha virt. eigenvalues --   -0.03357   0.00383   0.04036   0.07111   0.07657
 Alpha virt. eigenvalues --    0.10101   0.10775   0.10916   0.12959   0.13301
 Alpha virt. eigenvalues --    0.13603   0.13877   0.14454   0.14815   0.15194

 Mulliken charges:
               1
     1  O   -0.510052
     2  O   -0.545610
     3  O   -0.565809
     4  O   -0.543259
     5  C    0.204718
     6  C    0.230056
     7  C    0.014352
     8  C   -0.223338
     9  C   -0.180610
    10  C    0.148451
    11  C   -0.333027
    12  C   -0.105597
    13  C   -0.300763
    14  C   -0.317775
    15  C   -0.084042
    16  C    0.077304
    17  C   -0.373926
    18  C   -0.116030
    19  C   -0.060034
    20  C    0.016437
    21  C    0.247824
    22  C   -0.191735
    23  C    0.146982
    24  C   -0.184335
    25  C   -0.076744
    26  C   -0.305070
    27  C   -0.306341
    28  C   -0.304883
    29  C   -0.125602
    30  C    0.158862
    31  C    0.085781
    32  C   -0.306043
    33  C   -0.374651
    34  C   -0.120548
    35  C    0.127620
    36  C   -0.380553
    37  C   -0.115986
    38  C   -0.076377
    39  C   -0.089547
    40  C   -0.080646
    41  C   -0.110092
    42  C   -0.139240
    43  C    0.123408
    44  C   -0.380051
    45  H    0.106575
    46  H    0.121784
    47  H    0.098734
    48  H    0.104758
    49  H    0.097585
    50  H    0.102445
    51  H    0.113493
    52  H    0.125315
    53  H    0.107424
    54  H    0.105237
    55  H    0.105012
    56  H    0.083056
    57  H    0.122338
    58  H    0.100719
    59  H    0.100642
    60  H    0.301248
    61  H    0.074603
    62  H    0.114767
    63  H    0.126004
    64  H    0.117287
    65  H    0.083534
    66  H    0.083755
    67  H    0.079516
    68  H    0.099731
    69  H    0.080369
    70  H    0.113270
    71  H    0.113873
    72  H    0.093395
    73  H    0.110220
    74  H    0.103426
    75  H    0.121350
    76  H    0.102689
    77  H    0.089285
    78  H    0.111160
    79  H    0.086821
    80  H    0.130992
    81  H    0.081462
    82  H    0.302981
    83  H    0.306245
    84  H    0.106240
    85  H    0.111804
    86  H    0.126570
    87  H    0.118261
    88  H    0.078029
    89  H    0.104764
    90  H    0.137206
    91  H    0.120383
    92  H    0.073210
    93  H    0.079191
    94  H    0.080147
    95  H    0.078777
    96  H    0.076671
    97  H    0.076367
    98  H    0.107772
    99  H    0.124068
   100  H    0.123955
 Sum of Mulliken charges =   0.00000

 Dipole moment (field-independent basis, Debye):
    X=             -2.1329    Y=              0.0188    Z=             -1.1624  Tot=              2.4292
 Quadrupole moment (field-independent basis, Debye-Ang):
   XX=           -261.5543   YY=           -261.1542   ZZ=           -274.1300
   XY=             14.4605   XZ=             33.2520   YZ=              7.1225

 Normal termination of Gaussian 09 at Thu Mar 28 11:16:33 2019.
