 Gaussian 09, Revision D.01,
 Gaussian 09:  ES64L-G09RevD.01 24-Apr-2013

 ------------------------------------------------
 #n CAM-B3LYP/6-31G(d,p) Opt Freq=savenormalmodes
 ------------------------------------------------

 -----------------------
 neoxanthin-s0-geom-freq
 -----------------------
 Symbolic Z-matrix:
 Charge =  0 Multiplicity = 1

 SCF Done:  E(RCAM-B3LYP) =  -1857.67596656     A.U. after   14 cycles
 SCF Done:  E(RCAM-B3LYP) =  -1857.71363299     A.U. after   13 cycles
 SCF Done:  E(RCAM-B3LYP) =  -1857.73021171     A.U. after   13 cycles
 SCF Done:  E(RCAM-B3LYP) =  -1857.73079488     A.U. after   13 cycles
 SCF Done:  E(RCAM-B3LYP) =  -1857.73304891     A.U. after   13 cycles
 SCF Done:  E(RCAM-B3LYP) =  -1857.73268672     A.U. after   13 cycles
 SCF Done:  E(RCAM-B3LYP) =  -1857.73489506     A.U. after   12 cycles
 SCF Done:  E(RCAM-B3LYP) =  -1857.73429693     A.U. after   12 cycles
 SCF Done:  E(RCAM-B3LYP) =  -1857.73516373     A.U. after   11 cycles
 SCF Done:  E(RCAM-B3LYP) =  -1857.73524899     A.U. after   12 cycles
 SCF Done:  E(RCAM-B3LYP) =  -1857.74092287     A.U. after    9 cycles
 SCF Done:  E(RCAM-B3LYP) =  -1857.74093049     A.U. after   10 cycles
 SCF Done:  E(RCAM-B3LYP) =  -1857.74093698     A.U. after   10 cycles
 SCF Done:  E(RCAM-B3LYP) =  -1857.74093989     A.U. after    8 cycles
 SCF Done:  E(RCAM-B3LYP) =  -1857.74093987     A.U. after    8 cycles
 SCF Done:  E(RCAM-B3LYP) =  -1857.74094012     A.U. after    6 cycles
 SCF Done:  E(RCAM-B3LYP) =  -1857.74093994     A.U. after    6 cycles
 SCF Done:  E(RCAM-B3LYP) =  -1857.74094009     A.U. after    6 cycles
 SCF Done:  E(RCAM-B3LYP) =  -1857.74093991     A.U. after    6 cycles
 Optimization completed.
    -- Stationary point found.

 The electronic state is 1-A.
 Alpha  occ. eigenvalues --  -19.21995 -19.21994 -19.21132 -19.20459 -10.31959
 Alpha  occ. eigenvalues --  -10.31674 -10.31498 -10.30987 -10.30393 -10.27878
 Alpha  occ. eigenvalues --  -10.27400 -10.27232 -10.27072 -10.27059 -10.26915
 Alpha  occ. eigenvalues --  -10.26823 -10.26772 -10.26620 -10.26335 -10.26288
 Alpha  occ. eigenvalues --  -10.26255 -10.26132 -10.26114 -10.26024 -10.25980
 Alpha  occ. eigenvalues --  -10.25899 -10.25809 -10.25777 -10.25729 -10.25714
 Alpha  occ. eigenvalues --  -10.25663 -10.25643 -10.25538 -10.25493 -10.25348
 Alpha  occ. eigenvalues --  -10.25188 -10.24736 -10.24680 -10.24571 -10.24380
 Alpha  occ. eigenvalues --  -10.24325 -10.24224 -10.24130 -10.23437  -1.15224
 Alpha  occ. eigenvalues --   -1.10357  -1.09565  -1.09319  -0.92910  -0.92218
 Alpha  occ. eigenvalues --   -0.91748  -0.91043  -0.90434  -0.89992  -0.87303
 Alpha  occ. eigenvalues --   -0.86702  -0.86065  -0.85552  -0.84714  -0.83104
 Alpha  occ. eigenvalues --   -0.82312  -0.81121  -0.80451  -0.78305  -0.76958
 Alpha  occ. eigenvalues --   -0.76836  -0.76390  -0.76186  -0.76159  -0.76038
 Alpha  occ. eigenvalues --   -0.75911  -0.74521  -0.73569  -0.70470  -0.69910
 Alpha  occ. eigenvalues --   -0.68703  -0.66791  -0.65364  -0.64746  -0.64479
 Alpha  occ. eigenvalues --   -0.63337  -0.62117  -0.60900  -0.60376  -0.59807
 Alpha  occ. eigenvalues --   -0.58943  -0.58365  -0.57926  -0.57697  -0.56828
 Alpha  occ. eigenvalues --   -0.55777  -0.55393  -0.54931  -0.54497  -0.54320
 Alpha  occ. eigenvalues --   -0.53631  -0.53205  -0.52830  -0.52086  -0.51684
 Alpha  occ. eigenvalues --   -0.51445  -0.51324  -0.50462  -0.49654  -0.49475
 Alpha  occ. eigenvalues --   -0.49286  -0.49106  -0.49010  -0.48580  -0.48533
 Alpha  occ. eigenvalues --   -0.48463  -0.48062  -0.47859  -0.47729  -0.47167
 Alpha  occ. eigenvalues --   -0.46881  -0.46658  -0.46379  -0.46197  -0.45423
 Alpha  occ. eigenvalues --   -0.44991  -0.44731  -0.44595  -0.44259  -0.44195
 Alpha  occ. eigenvalues --   -0.43849  -0.43776  -0.43458  -0.43124  -0.43040
 Alpha  occ. eigenvalues --   -0.42782  -0.42537  -0.42307  -0.42152  -0.41875
 Alpha  occ. eigenvalues --   -0.41063  -0.40955  -0.40594  -0.40557  -0.40296
 Alpha  occ. eigenvalues --   -0.40092  -0.40021  -0.39822  -0.39573  -0.39354
 Alpha  occ. eigenvalues --   -0.39111  -0.38927  -0.38377  -0.38221  -0.37730
 Alpha  occ. eigenvalues --   -0.37623  -0.36364  -0.35298  -0.34905  -0.34070
 Alpha  occ. eigenvalues --   -0.32830  -0.32606  -0.32335  -0.31820  -0.31328
 Alpha  occ. eigenvalues --   -0.29846  -0.28132  -0.24994  -0.21344
 Alpha virt. eigenvalues --   -0.03357   0.00383   0.04036   0.07111   0.07657
 Alpha virt. eigenvalues --    0.10101   0.10775   0.10916   0.12959   0.13301
 Alpha virt. eigenvalues --    0.13603   0.13877   0.14454   0.14815   0.15194

 Mulliken charges:
               1
     1  O   -0.510053
     2  O   -0.545610
     3  O   -0.565808
     4  O   -0.543259
     5  C    0.204721
     6  C    0.230056
     7  C    0.014352
     8  C   -0.223340
     9  C   -0.180610
    10  C    0.148452
    11  C   -0.333027
    12  C   -0.105596
    13  C   -0.300762
    14  C   -0.317775
    15  C   -0.084042
    16  C    0.077303
    17  C   -0.373925
    18  C   -0.116029
    19  C   -0.060033
    20  C    0.016437
    21  C    0.247824
    22  C   -0.191734
    23  C    0.146982
    24  C   -0.184336
    25  C   -0.076747
    26  C   -0.305070
    27  C   -0.306341
    28  C   -0.304884
    29  C   -0.125602
    30  C    0.158863
    31  C    0.085781
    32  C   -0.306041
    33  C   -0.374651
    34  C   -0.120548
    35  C    0.127622
    36  C   -0.380553
    37  C   -0.115986
    38  C   -0.076377
    39  C   -0.089548
    40  C   -0.080646
    41  C   -0.110092
    42  C   -0.139240
    43  C    0.123408
    44  C   -0.380051
    45  H    0.106575
    46  H    0.121784
    47  H    0.098734
    48  H    0.104757
    49  H    0.097586
    50  H    0.102445
    51  H    0.113493
    52  H    0.125315
    53  H    0.107424
    54  H    0.105236
    55  H    0.105011
    56  H    0.083056
    57  H    0.122338
    58  H    0.100719
    59  H    0.100642
    60  H    0.301249
    61  H    0.074603
    62  H    0.114767
    63  H    0.126004
    64  H    0.117288
    65  H    0.083534
    66  H    0.083755
    67  H    0.079516
    68  H    0.099731
    69  H    0.080369
    70  H    0.113270
    71  H    0.113874
    72  H    0.093395
    73  H    0.110220
    74  H    0.103426
    75  H    0.121351
    76  H    0.102689
    77  H    0.089285
    78  H    0.111161
    79  H    0.086821
    80  H    0.130992
    81  H    0.081462
    82  H    0.302981
    83  H    0.306245
    84  H    0.106240
    85  H    0.111804
    86  H    0.126569
    87  H    0.118262
    88  H    0.078029
    89  H    0.104764
    90  H    0.137205
    91  H    0.120383
    92  H    0.073210
    93  H    0.079191
    94  H    0.080147
    95  H    0.078777
    96  H    0.076671
    97  H    0.076367
    98  H    0.107772
    99  H    0.124068
   100  H    0.123955
 Sum of Mulliken charges =   0.00000

 Dipole moment (field-independent basis, Debye):
    X=             -2.1329    Y=              0.0187    Z=             -1.1623  Tot=              2.4291
 Quadrupole moment (field-independent basis, Debye-Ang):
   XX=           -261.5568   YY=           -261.1541   ZZ=           -274.1299
   XY=             14.4609   XZ=             33.2524   YZ=              7.1225

 Normal termination of Gaussian 09 at Thu Apr 18 03:31:40 2019.

 ----------------------------------------------------------------------
 #N Geom=AllCheck Guess=TCheck SCRF=Check GenChk RCAM-B3LYP/6-31G(d,p)
 Freq
 ----------------------------------------------------------------------

 Structure from the checkpoint file:  "neoxanthin-s0-geom-freq.chk"
 -----------------------
 neoxanthin-s0-geom-freq
 -----------------------
 Charge =  0 Multiplicity = 1

                         Standard orientation:
 ---------------------------------------------------------------------
 Center     Atomic      Atomic             Coordinates (Angstroms)
 Number     Number       Type             X           Y           Z
 ---------------------------------------------------------------------
      1          8           0       11.620736    0.841062   -0.861355
      2          8           0       13.087968   -2.474262    1.246662
      3          8           0      -10.436293   -0.727284    2.233576
      4          8           0      -14.385804   -1.203331    0.444504
      5          6           0       10.894206   -0.300976   -0.387216
      6          6           0       11.863425    0.422977    0.487825
      7          6           0       11.282589   -1.597125   -1.129307
      8          6           0       13.272015   -0.107918    0.711244
      9          6           0       12.813906   -1.790561   -1.102245
     10          6           0       13.488017   -1.543858    0.244079
     11          6           0       11.399810    1.407214    1.534578
     12          6           0        9.426228   -0.040843   -0.254398
     13          6           0       10.559890   -2.824569   -0.551612
     14          6           0       10.850373   -1.439659   -2.596494
     15          6           0        8.678539   -0.375808    0.799432
     16          6           0        7.234674   -0.134683    0.952213
     17          6           0        6.504719   -1.172003    1.763181
     18          6           0        6.652453    0.950029    0.401285
     19          6           0        5.247656    1.296020    0.419474
     20          6           0      -11.907212   -0.311210   -1.282568
     21          6           0      -11.543541   -0.490188    1.367300
     22          6           0      -12.597607   -1.687088   -1.179712
     23          6           0      -13.246091   -2.012104    0.164421
     24          6           0      -12.253654   -1.846469    1.303352
     25          6           0      -11.040213   -0.080673   -0.035172
     26          6           0      -11.035077   -0.310115   -2.543967
     27          6           0      -12.944145    0.819447   -1.431008
     28          6           0      -12.416939    0.598548    1.997485
     29          6           0        4.763071    2.418117   -0.143698
     30          6           0       -9.859650    0.471955   -0.105043
     31          6           0        3.359853    2.828965   -0.201041
     32          6           0       -8.647476    0.982521   -0.086592
     33          6           0        3.138668    4.316578   -0.287092
     34          6           0        2.360673    1.917246   -0.192161
     35          6           0       -7.407787    0.197202   -0.137330
     36          6           0       -7.560814   -1.297007   -0.136866
     37          6           0       -6.228913    0.855113   -0.153282
     38          6           0        0.941241    2.171187   -0.192227
     39          6           0       -4.902188    0.283333   -0.181890
     40          6           0        0.012178    1.191830   -0.207593
     41          6           0       -3.783045    1.034030   -0.185203
     42          6           0       -1.405895    1.445699   -0.197518
     43          6           0       -2.415379    0.541678   -0.204867
     44          6           0       -2.203216   -0.946979   -0.228636
     45          1           0       13.533429   -0.051313    1.772593
     46          1           0       13.950269    0.567697    0.178865
     47          1           0       13.043485   -2.806874   -1.437036
     48          1           0       13.267638   -1.103174   -1.824064
     49          1           0       14.562302   -1.717554    0.127182
     50          1           0       11.264536    0.915850    2.503238
     51          1           0       12.158191    2.186374    1.659907
     52          1           0       10.461022    1.878031    1.248938
     53          1           0        8.965484    0.439267   -1.114939
     54          1           0        9.477251   -2.722838   -0.644604
     55          1           0       10.864481   -3.717323   -1.104736
     56          1           0       10.794794   -3.010170    0.497062
     57          1           0       11.273021   -0.528667   -3.027007
     58          1           0       11.199781   -2.292977   -3.185562
     59          1           0        9.761688   -1.395870   -2.691769
     60          1           0       12.244402   -2.179581    1.607279
     61          1           0        9.155959   -0.904021    1.625765
     62          1           0        5.465876   -0.909569    1.959336
     63          1           0        6.519510   -2.144087    1.257990
     64          1           0        6.999538   -1.313555    2.730322
     65          1           0        7.298713    1.658755   -0.112688
     66          1           0        4.556746    0.621342    0.915968
     67          1           0      -13.343410   -1.772600   -1.981457
     68          1           0      -11.852315   -2.467761   -1.374179
     69          1           0      -13.554922   -3.068205    0.143718
     70          1           0      -12.753341   -2.033791    2.257797
     71          1           0      -11.473846   -2.605506    1.189862
     72          1           0      -11.651502   -0.507397   -3.426455
     73          1           0      -10.543981    0.655723   -2.683966
     74          1           0      -10.257791   -1.077062   -2.491103
     75          1           0      -13.656176    0.836628   -0.608485
     76          1           0      -12.441686    1.788923   -1.483986
     77          1           0      -13.508046    0.682043   -2.360313
     78          1           0      -12.639456    0.312204    3.028533
     79          1           0      -11.878637    1.551374    2.009139
     80          1           0      -13.359558    0.727949    1.468785
     81          1           0        5.477615    3.115297   -0.581775
     82          1           0       -9.882089    0.064609    2.221842
     83          1           0      -15.013968   -1.311931   -0.279182
     84          1           0       -8.535678    2.064920   -0.023923
     85          1           0        2.099304    4.586120   -0.470602
     86          1           0        3.460095    4.812796    0.635085
     87          1           0        3.739853    4.740683   -1.098472
     88          1           0        2.641882    0.866191   -0.199251
     89          1           0       -6.612239   -1.818304   -0.013747
     90          1           0       -8.235757   -1.600132    0.669254
     91          1           0       -8.016178   -1.637210   -1.073250
     92          1           0       -6.265678    1.943769   -0.141046
     93          1           0        0.598010    3.202395   -0.169792
     94          1           0       -4.814837   -0.798139   -0.200811
     95          1           0        0.356368    0.160885   -0.224682
     96          1           0       -3.893637    2.117536   -0.168755
     97          1           0       -1.686195    2.498100   -0.179842
     98          1           0       -1.149767   -1.221915   -0.242704
     99          1           0       -2.659625   -1.416249    0.648907
    100          1           0       -2.675839   -1.390268   -1.111062
 ---------------------------------------------------------------------

 SCF Done:  E(RCAM-B3LYP) =  -1857.74093991     A.U. after    1 cycles
