 Gaussian 16, Revision A.03,
 Gaussian 16:  ES64L-G16RevA.03 25-Dec-2016

 ------------------------------------------------------------
 # wB97XD/Def2TZVP iop(3/107=0112500000,3/108=0112500000) opt
 ------------------------------------------------------------

 -----
 TITLE
 -----
 Symbolic Z-matrix:
 Charge =  0 Multiplicity = 1

 SCF Done:  E(RwB97XD) =  -1708.56102413     A.U. after   15 cycles
 SCF Done:  E(RwB97XD) =  -1708.56122075     A.U. after   11 cycles
 SCF Done:  E(RwB97XD) =  -1708.56125009     A.U. after   10 cycles
 SCF Done:  E(RwB97XD) =  -1708.56126261     A.U. after   10 cycles
 SCF Done:  E(RwB97XD) =  -1708.56126523     A.U. after   10 cycles
 SCF Done:  E(RwB97XD) =  -1708.56126619     A.U. after   10 cycles
 SCF Done:  E(RwB97XD) =  -1708.56126669     A.U. after    8 cycles
 SCF Done:  E(RwB97XD) =  -1708.56126685     A.U. after    7 cycles
 SCF Done:  E(RwB97XD) =  -1708.56126691     A.U. after    6 cycles
 Optimization completed.
    -- Stationary point found.

                         Standard orientation:
 ---------------------------------------------------------------------
 Center     Atomic      Atomic             Coordinates (Angstroms)
 Number     Number       Type             X           Y           Z
 ---------------------------------------------------------------------
      1          8           0      -13.903076   -2.316309    0.844302
      2          8           0       14.702889    0.942117    0.700870
      3          6           0      -11.775780    0.116119    1.296691
      4          6           0      -10.935328    0.179187   -0.012126
      5          6           0      -11.897217   -1.352131    1.738786
      6          6           0      -12.477385   -2.295187    0.688599
      7          6           0      -11.429881   -0.812393   -1.054499
      8          6           0       11.125359    0.080855    1.704204
      9          6           0      -11.094154    0.918844    2.410771
     10          6           0      -13.156178    0.737671    1.031934
     11          6           0       12.492686    0.786796    1.734595
     12          6           0      -12.090087   -1.916977   -0.713050
     13          6           0       13.435311    0.298549    0.648740
     14          6           0       10.603857   -0.041001    0.262532
     15          6           0       -9.461776   -0.053200    0.194281
     16          6           0       12.827182    0.599608   -0.704077
     17          6           0       11.370688    0.221990   -0.812114
     18          6           0       10.160509    0.913751    2.570142
     19          6           0       11.236534   -1.327617    2.321203
     20          6           0      -11.099649   -0.483263   -2.480608
     21          6           0       -8.502777    0.817661   -0.138000
     22          6           0        9.202833   -0.480041    0.141160
     23          6           0       10.877978    0.218132   -2.234496
     24          6           0       -7.066607    0.624389    0.019675
     25          6           0        8.775333   -1.510594   -0.601141
     26          6           0       -6.593457   -0.672840    0.611750
     27          6           0        7.387021   -1.953807   -0.748879
     28          6           0       -6.238055    1.620471   -0.375602
     29          6           0        7.215997   -3.433862   -0.965307
     30          6           0        6.363954   -1.070881   -0.703246
     31          6           0       -4.801143    1.649659   -0.317649
     32          6           0        4.955193   -1.356784   -0.777443
     33          6           0       -4.067395    2.701631   -0.734753
     34          6           0       -2.613997    2.816021   -0.733655
     35          6           0        4.006310   -0.396612   -0.740198
     36          6           0        2.574209   -0.600345   -0.803518
     37          6           0       -2.092790    4.229080   -0.705361
     38          6           0       -1.816086    1.720783   -0.773243
     39          6           0        1.765613    0.490454   -0.748741
     40          6           0        2.062164   -2.008608   -0.928200
     41          6           0       -0.382805    1.679484   -0.731355
     42          6           0        0.333194    0.532563   -0.796921
     43          1           0      -11.052914    1.185978   -0.427777
     44          1           0      -12.513558   -1.422741    2.637301
     45          1           0      -10.904760   -1.718064    2.014747
     46          1           0      -12.100740   -3.307005    0.891922
     47          1           0      -10.127899    0.494532    2.687131
     48          1           0      -10.924176    1.952150    2.099662
     49          1           0      -11.724061    0.936078    3.302741
     50          1           0      -13.671959    0.253019    0.205188
     51          1           0      -13.792234    0.643612    1.913513
     52          1           0      -13.052650    1.800987    0.801668
     53          1           0       12.355759    1.863825    1.598491
     54          1           0       12.943406    0.644626    2.722462
     55          1           0      -12.401223   -2.608093   -1.493574
     56          1           0       13.573916   -0.786175    0.742497
     57          1           0       -9.191831   -1.016608    0.614791
     58          1           0       13.391528    0.087708   -1.488758
     59          1           0       12.942811    1.671232   -0.905516
     60          1           0        9.218470    0.396201    2.752489
     61          1           0        9.941690    1.875599    2.102418
     62          1           0       10.616716    1.108326    3.543153
     63          1           0       11.948679   -1.949801    1.777527
     64          1           0       10.271591   -1.835963    2.297853
     65          1           0       11.561029   -1.264510    3.362761
     66          1           0      -10.025835   -0.321435   -2.602602
     67          1           0      -11.596897    0.443576   -2.781202
     68          1           0      -11.410270   -1.275150   -3.161639
     69          1           0      -14.282347   -2.769778    0.089572
     70          1           0        8.471815    0.044269    0.748702
     71          1           0       -8.802723    1.770562   -0.567254
     72          1           0       11.262696   -0.648984   -2.779704
     73          1           0        9.793663    0.207592   -2.308081
     74          1           0       11.256187    1.103042   -2.754314
     75          1           0       15.100626    0.756595    1.552894
     76          1           0        9.520526   -2.110944   -1.116851
     77          1           0       -5.511394   -0.727628    0.693361
     78          1           0       -7.011023   -0.812814    1.611930
     79          1           0       -6.927029   -1.517335    0.003554
     80          1           0       -6.703049    2.511168   -0.790361
     81          1           0        7.525680   -3.991739   -0.077278
     82          1           0        6.193779   -3.717704   -1.203309
     83          1           0        7.854603   -3.769007   -1.786844
     84          1           0        6.620744   -0.019600   -0.610876
     85          1           0       -4.287104    0.790121    0.096247
     86          1           0        4.648971   -2.392637   -0.858747
     87          1           0       -4.605052    3.581137   -1.082203
     88          1           0        4.332091    0.636631   -0.652405
     89          1           0       -1.014620    4.291575   -0.827847
     90          1           0       -2.356036    4.717529    0.236662
     91          1           0       -2.552928    4.814474   -1.505602
     92          1           0       -2.301626    0.753431   -0.860750
     93          1           0        2.254283    1.457166   -0.657875
     94          1           0        2.390690   -2.614217   -0.080020
     95          1           0        0.977598   -2.057680   -0.970078
     96          1           0        2.452235   -2.481131   -1.832995
     97          1           0        0.161443    2.612901   -0.634483
     98          1           0       -0.212055   -0.400709   -0.888942
 ---------------------------------------------------------------------

 The electronic state is 1-A.
 Alpha  occ. eigenvalues --  -19.20519 -19.20322 -10.29391 -10.28917 -10.26344
 Alpha  occ. eigenvalues --  -10.26073 -10.26069 -10.25939 -10.25721 -10.25619
 Alpha  occ. eigenvalues --  -10.25550 -10.25391 -10.25143 -10.25030 -10.24974
 Alpha  occ. eigenvalues --  -10.24902 -10.24865 -10.24688 -10.24678 -10.24628
 Alpha  occ. eigenvalues --  -10.24623 -10.24529 -10.24487 -10.24486 -10.24443
 Alpha  occ. eigenvalues --  -10.24418 -10.24335 -10.24190 -10.24187 -10.24183
 Alpha  occ. eigenvalues --  -10.24092 -10.24088 -10.23780 -10.23746 -10.23577
 Alpha  occ. eigenvalues --  -10.23562 -10.23428 -10.23187 -10.23164 -10.22985
 Alpha  occ. eigenvalues --  -10.22460 -10.21873  -1.08044  -1.07667  -0.91465
 Alpha  occ. eigenvalues --   -0.91326  -0.89972  -0.89461  -0.88497  -0.87843
 Alpha  occ. eigenvalues --   -0.85234  -0.84829  -0.84701  -0.83523  -0.82759
 Alpha  occ. eigenvalues --   -0.81205  -0.80383  -0.78777  -0.78285  -0.76451
 Alpha  occ. eigenvalues --   -0.75052  -0.74572  -0.74223  -0.74177  -0.73879
 Alpha  occ. eigenvalues --   -0.73576  -0.73386  -0.73181  -0.72030  -0.68495
 Alpha  occ. eigenvalues --   -0.67205  -0.66201  -0.64929  -0.63412  -0.62146
 Alpha  occ. eigenvalues --   -0.61574  -0.61123  -0.60763  -0.59274  -0.58549
 Alpha  occ. eigenvalues --   -0.58197  -0.57318  -0.57107  -0.56340  -0.54978
 Alpha  occ. eigenvalues --   -0.54343  -0.53854  -0.53404  -0.52968  -0.52457
 Alpha  occ. eigenvalues --   -0.51902  -0.51690  -0.51449  -0.50859  -0.50031
 Alpha  occ. eigenvalues --   -0.49180  -0.49025  -0.48388  -0.47958  -0.47612
 Alpha  occ. eigenvalues --   -0.47546  -0.47444  -0.47245  -0.47225  -0.47109
 Alpha  occ. eigenvalues --   -0.46939  -0.46480  -0.45822  -0.45657  -0.45036
 Alpha  occ. eigenvalues --   -0.44963  -0.44701  -0.44408  -0.44305  -0.44098
 Alpha  occ. eigenvalues --   -0.43914  -0.43880  -0.43302  -0.42967  -0.42831
 Alpha  occ. eigenvalues --   -0.42702  -0.42313  -0.42126  -0.41694  -0.41414
 Alpha  occ. eigenvalues --   -0.41244  -0.40986  -0.40948  -0.40287  -0.40087
 Alpha  occ. eigenvalues --   -0.39895  -0.39790  -0.39317  -0.39255  -0.38956
 Alpha  occ. eigenvalues --   -0.38832  -0.38712  -0.38299  -0.38273  -0.38090
 Alpha  occ. eigenvalues --   -0.37523  -0.36414  -0.36282  -0.36033  -0.35630
 Alpha  occ. eigenvalues --   -0.35348  -0.34247  -0.33300  -0.31894  -0.31674
 Alpha  occ. eigenvalues --   -0.31551  -0.29539  -0.28926  -0.27126  -0.24719
 Alpha  occ. eigenvalues --   -0.21396
 Alpha virt. eigenvalues --   -0.03958  -0.00243   0.02971   0.05494   0.06862
 Alpha virt. eigenvalues --    0.08669   0.09724   0.09790   0.10202   0.10591
 Alpha virt. eigenvalues --    0.10982   0.11215   0.11412   0.11471   0.11646

 Mulliken charges:
               1
     1  O   -0.487545
     2  O   -0.474089
     3  C    0.068306
     4  C    0.232622
     5  C   -0.289443
     6  C    0.308280
     7  C   -0.020208
     8  C    0.155864
     9  C   -0.318526
    10  C   -0.358104
    11  C   -0.222833
    12  C   -0.333076
    13  C    0.128658
    14  C    0.019875
    15  C   -0.393247
    16  C   -0.134377
    17  C   -0.019328
    18  C   -0.398547
    19  C   -0.388177
    20  C   -0.365159
    21  C   -0.131919
    22  C   -0.297751
    23  C   -0.371337
    24  C    0.101150
    25  C   -0.217663
    26  C   -0.359643
    27  C    0.120838
    28  C   -0.123598
    29  C   -0.335293
    30  C   -0.178151
    31  C   -0.053702
    32  C   -0.041156
    33  C   -0.211379
    34  C    0.088364
    35  C   -0.208472
    36  C    0.108231
    37  C   -0.333802
    38  C   -0.132599
    39  C   -0.114519
    40  C   -0.370244
    41  C   -0.096466
    42  C   -0.121766
    43  H    0.065538
    44  H    0.104068
    45  H    0.101866
    46  H    0.054653
    47  H    0.120717
    48  H    0.109207
    49  H    0.117846
    50  H    0.133453
    51  H    0.111584
    52  H    0.100327
    53  H    0.099150
    54  H    0.092322
    55  H    0.094833
    56  H    0.055160
    57  H    0.151404
    58  H    0.105804
    59  H    0.104637
    60  H    0.123579
    61  H    0.127038
    62  H    0.118957
    63  H    0.111146
    64  H    0.133751
    65  H    0.110144
    66  H    0.138215
    67  H    0.116465
    68  H    0.106635
    69  H    0.304548
    70  H    0.136820
    71  H    0.096032
    72  H    0.119564
    73  H    0.148728
    74  H    0.118616
    75  H    0.307800
    76  H    0.121385
    77  H    0.110349
    78  H    0.128907
    79  H    0.129491
    80  H    0.092181
    81  H    0.123599
    82  H    0.104606
    83  H    0.117324
    84  H    0.115980
    85  H    0.096514
    86  H    0.114481
    87  H    0.100457
    88  H    0.091909
    89  H    0.105456
    90  H    0.126927
    91  H    0.118147
    92  H    0.100071
    93  H    0.092981
    94  H    0.128614
    95  H    0.112819
    96  H    0.129703
    97  H    0.085957
    98  H    0.081468
 Sum of Mulliken charges =  -0.00000

 Dipole moment (field-independent basis, Debye):
    X=              0.2375    Y=             -1.4474    Z=             -0.1075  Tot=              1.4707
 Quadrupole moment (field-independent basis, Debye-Ang):
   XX=           -279.2669   YY=           -243.2615   ZZ=           -259.1229
   XY=             -8.7526   XZ=             33.2015   YZ=              2.7750

 Normal termination of Gaussian 16 at Tue Nov 26 03:48:11 2019.
