 Gaussian 16, Revision A.03,
 Gaussian 16:  ES64L-G16RevA.03 25-Dec-2016

 --------------------------------------------------------
 # wB97XD/Def2TZVP iop(3/107=0112500000,3/108=0112500000)
 --------------------------------------------------------

 -------------------
 lutein-s0-tunado-sp
 -------------------
 Symbolic Z-matrix:
 Charge =  1 Multiplicity = 2

                         Standard orientation:
 ---------------------------------------------------------------------
 Center     Atomic      Atomic             Coordinates (Angstroms)
 Number     Number       Type             X           Y           Z
 ---------------------------------------------------------------------
      1          8           0      -13.903079   -2.316309    0.844300
      2          8           0       14.702891    0.942120    0.700870
      3          6           0      -11.775779    0.116121    1.296690
      4          6           0      -10.935329    0.179191   -0.012130
      5          6           0      -11.897219   -1.352129    1.738790
      6          6           0      -12.477379   -2.295189    0.688600
      7          6           0      -11.429879   -0.812389   -1.054500
      8          6           0       11.125361    0.080850    1.704200
      9          6           0      -11.094149    0.918841    2.410770
     10          6           0      -13.156179    0.737671    1.031930
     11          6           0       12.492691    0.786800    1.734600
     12          6           0      -12.090089   -1.916979   -0.713050
     13          6           0       13.435311    0.298550    0.648740
     14          6           0       10.603861   -0.041000    0.262530
     15          6           0       -9.461779   -0.053199    0.194280
     16          6           0       12.827181    0.599610   -0.704080
     17          6           0       11.370691    0.221990   -0.812110
     18          6           0       10.160511    0.913750    2.570140
     19          6           0       11.236531   -1.327620    2.321200
     20          6           0      -11.099649   -0.483259   -2.480610
     21          6           0       -8.502779    0.817661   -0.138000
     22          6           0        9.202831   -0.480040    0.141160
     23          6           0       10.877981    0.218130   -2.234500
     24          6           0       -7.066609    0.624391    0.019680
     25          6           0        8.775331   -1.510590   -0.601140
     26          6           0       -6.593459   -0.672840    0.611750
     27          6           0        7.387021   -1.953810   -0.748880
     28          6           0       -6.238059    1.620470   -0.375600
     29          6           0        7.216001   -3.433860   -0.965310
     30          6           0        6.363951   -1.070880   -0.703250
     31          6           0       -4.801139    1.649660   -0.317650
     32          6           0        4.955191   -1.356780   -0.777440
     33          6           0       -4.067399    2.701630   -0.734750
     34          6           0       -2.613999    2.816020   -0.733650
     35          6           0        4.006311   -0.396610   -0.740200
     36          6           0        2.574211   -0.600350   -0.803520
     37          6           0       -2.092789    4.229080   -0.705360
     38          6           0       -1.816089    1.720780   -0.773240
     39          6           0        1.765611    0.490450   -0.748740
     40          6           0        2.062161   -2.008610   -0.928200
     41          6           0       -0.382809    1.679480   -0.731350
     42          6           0        0.333191    0.532560   -0.796920
     43          1           0      -11.052909    1.185981   -0.427780
     44          1           0      -12.513559   -1.422739    2.637300
     45          1           0      -10.904759   -1.718059    2.014750
     46          1           0      -12.100739   -3.307009    0.891920
     47          1           0      -10.127899    0.494531    2.687130
     48          1           0      -10.924179    1.952151    2.099660
     49          1           0      -11.724059    0.936081    3.302740
     50          1           0      -13.671959    0.253021    0.205190
     51          1           0      -13.792229    0.643611    1.913510
     52          1           0      -13.052649    1.800991    0.801670
     53          1           0       12.355761    1.863830    1.598490
     54          1           0       12.943411    0.644630    2.722460
     55          1           0      -12.401219   -2.608089   -1.493570
     56          1           0       13.573921   -0.786170    0.742500
     57          1           0       -9.191829   -1.016609    0.614790
     58          1           0       13.391531    0.087710   -1.488760
     59          1           0       12.942811    1.671230   -0.905520
     60          1           0        9.218471    0.396200    2.752490
     61          1           0        9.941691    1.875600    2.102420
     62          1           0       10.616721    1.108330    3.543150
     63          1           0       11.948681   -1.949800    1.777530
     64          1           0       10.271591   -1.835960    2.297850
     65          1           0       11.561031   -1.264510    3.362760
     66          1           0      -10.025839   -0.321439   -2.602600
     67          1           0      -11.596899    0.443581   -2.781200
     68          1           0      -11.410269   -1.275149   -3.161640
     69          1           0      -14.282349   -2.769779    0.089570
     70          1           0        8.471811    0.044270    0.748700
     71          1           0       -8.802719    1.770561   -0.567250
     72          1           0       11.262701   -0.648980   -2.779700
     73          1           0        9.793661    0.207590   -2.308080
     74          1           0       11.256191    1.103040   -2.754310
     75          1           0       15.100631    0.756600    1.552890
     76          1           0        9.520531   -2.110940   -1.116850
     77          1           0       -5.511389   -0.727630    0.693360
     78          1           0       -7.011019   -0.812809    1.611930
     79          1           0       -6.927029   -1.517339    0.003550
     80          1           0       -6.703049    2.511170   -0.790360
     81          1           0        7.525681   -3.991740   -0.077280
     82          1           0        6.193781   -3.717700   -1.203310
     83          1           0        7.854601   -3.769010   -1.786840
     84          1           0        6.620741   -0.019600   -0.610880
     85          1           0       -4.287099    0.790120    0.096250
     86          1           0        4.648971   -2.392640   -0.858750
     87          1           0       -4.605049    3.581140   -1.082200
     88          1           0        4.332091    0.636630   -0.652410
     89          1           0       -1.014619    4.291570   -0.827850
     90          1           0       -2.356039    4.717530    0.236660
     91          1           0       -2.552929    4.814470   -1.505600
     92          1           0       -2.301629    0.753430   -0.860750
     93          1           0        2.254281    1.457170   -0.657870
     94          1           0        2.390691   -2.614220   -0.080020
     95          1           0        0.977601   -2.057680   -0.970080
     96          1           0        2.452231   -2.481130   -1.832990
     97          1           0        0.161441    2.612900   -0.634480
     98          1           0       -0.212049   -0.400710   -0.888940
 ---------------------------------------------------------------------

 SCF Done:  E(UwB97XD) =  -1708.34706172     A.U. after   23 cycles

 Alpha virt. eigenvalues --    0.30682   0.30901   0.31320   0.31486   0.31606
 Alpha virt. eigenvalues --    0.31836   0.32183   0.32406   0.32585   0.32824
 Alpha virt. eigenvalues --    0.33009   0.33325   0.33451   0.33772   0.33791

  Beta  occ. eigenvalues --  -19.25885 -19.25513 -10.38456 -10.38453 -10.37428
  Beta  occ. eigenvalues --  -10.37202 -10.37028 -10.36840 -10.36685 -10.36474
  Beta  occ. eigenvalues --  -10.36364 -10.36346 -10.35845 -10.35431 -10.34925
  Beta  occ. eigenvalues --  -10.34758 -10.34667 -10.34427 -10.34222 -10.34052
  Beta  occ. eigenvalues --  -10.33917 -10.33596 -10.33302 -10.33163 -10.32902
  Beta  occ. eigenvalues --  -10.32890 -10.32796 -10.32725 -10.32167 -10.31830
  Beta  occ. eigenvalues --  -10.31691 -10.31660 -10.30117 -10.30048 -10.29658
  Beta  occ. eigenvalues --  -10.29570 -10.29556 -10.29533 -10.29270 -10.29151
  Beta  occ. eigenvalues --  -10.28446 -10.27364  -1.13452  -1.12882  -1.01374
  Beta  occ. eigenvalues --   -1.00380  -0.99141  -0.98650  -0.97754  -0.97208
  Beta  occ. eigenvalues --   -0.95872  -0.93195  -0.92001  -0.91456  -0.90657
  Beta  occ. eigenvalues --   -0.89934  -0.89049  -0.87309  -0.85828  -0.85559
  Beta  occ. eigenvalues --   -0.84946  -0.84394  -0.83140  -0.81475  -0.81033
  Beta  occ. eigenvalues --   -0.80505  -0.79878  -0.79673  -0.79043  -0.78174
  Beta  occ. eigenvalues --   -0.76175  -0.74289  -0.72353  -0.72025  -0.70709
  Beta  occ. eigenvalues --   -0.70377  -0.70044  -0.69113  -0.68536  -0.67297
  Beta  occ. eigenvalues --   -0.67027  -0.66485  -0.65226  -0.63730  -0.63585
  Beta  occ. eigenvalues --   -0.62949  -0.62504  -0.61624  -0.60962  -0.60801
  Beta  occ. eigenvalues --   -0.60033  -0.59484  -0.59067  -0.58539  -0.57671
  Beta  occ. eigenvalues --   -0.57648  -0.57500  -0.57190  -0.57005  -0.56887
  Beta  occ. eigenvalues --   -0.56026  -0.55893  -0.55776  -0.55406  -0.55125
  Beta  occ. eigenvalues --   -0.54113  -0.54080  -0.53664  -0.53573  -0.53506
  Beta  occ. eigenvalues --   -0.53026  -0.52549  -0.52374  -0.52095  -0.51896
  Beta  occ. eigenvalues --   -0.51737  -0.51506  -0.51395  -0.50753  -0.50554
  Beta  occ. eigenvalues --   -0.50529  -0.50394  -0.50230  -0.50094  -0.49642
  Beta  occ. eigenvalues --   -0.49508  -0.49062  -0.48752  -0.48506  -0.48450
  Beta  occ. eigenvalues --   -0.48323  -0.47670  -0.47557  -0.47501  -0.47397
  Beta  occ. eigenvalues --   -0.46460  -0.46438  -0.45929  -0.45484  -0.45033
  Beta  occ. eigenvalues --   -0.44637  -0.44290  -0.43429  -0.42688  -0.42266
  Beta  occ. eigenvalues --   -0.42151  -0.41682  -0.40954  -0.40129  -0.37624
  Beta  occ. eigenvalues --   -0.37219  -0.36981  -0.35539  -0.34881  -0.32783
  Beta virt. eigenvalues --   -0.21353  -0.13720  -0.09495  -0.06096  -0.02940
  Beta virt. eigenvalues --   -0.00895   0.00346   0.01147   0.01291   0.02213
  Beta virt. eigenvalues --    0.02354   0.02735   0.03021   0.03168   0.03470

 Mulliken charges and spin densities:
               1          2
     1  O   -0.480370   0.000207
     2  O   -0.467534   0.000047
     3  C    0.047580   0.003756
     4  C    0.227070  -0.005179
     5  C   -0.287805   0.000719
     6  C    0.297847  -0.000277
     7  C   -0.044254   0.002016
     8  C    0.135336   0.002764
     9  C   -0.318759   0.001087
    10  C   -0.356187   0.000103
    11  C   -0.227100   0.000023
    12  C   -0.320281   0.003055
    13  C    0.122061   0.000346
    14  C    0.000087  -0.017223
    15  C   -0.354691   0.100480
    16  C   -0.139848  -0.001728
    17  C   -0.008937   0.031910
    18  C   -0.396058  -0.000318
    19  C   -0.383621   0.001245
    20  C   -0.360073   0.001146
    21  C   -0.138673  -0.039368
    22  C   -0.255483   0.098752
    23  C   -0.367889  -0.000957
    24  C    0.140415   0.125682
    25  C   -0.222918  -0.039627
    26  C   -0.358680  -0.005649
    27  C    0.156922   0.148712
    28  C   -0.154274  -0.050209
    29  C   -0.333690  -0.007183
    30  C   -0.192232  -0.031521
    31  C    0.001332   0.127454
    32  C    0.010188   0.144365
    33  C   -0.208870  -0.037937
    34  C    0.116802   0.126183
    35  C   -0.206593  -0.028521
    36  C    0.132678   0.109569
    37  C   -0.334805  -0.006989
    38  C   -0.124846   0.024786
    39  C   -0.101346   0.037829
    40  C   -0.374831  -0.006212
    41  C   -0.070912   0.078970
    42  C   -0.094052   0.063906
    43  H    0.077731   0.000037
    44  H    0.117311   0.000118
    45  H    0.096664  -0.000067
    46  H    0.063400   0.000039
    47  H    0.110853  -0.000171
    48  H    0.113525   0.000029
    49  H    0.132306  -0.000053
    50  H    0.139446   0.000004
    51  H    0.123078   0.000375
    52  H    0.104904   0.000006
    53  H    0.107009   0.000005
    54  H    0.105739   0.000101
    55  H    0.108969   0.000299
    56  H    0.062213  -0.000004
    57  H    0.164170  -0.003560
    58  H    0.120517   0.001787
    59  H    0.119195   0.001724
    60  H    0.113815   0.000039
    61  H    0.131127   0.000040
    62  H    0.133723  -0.000058
    63  H    0.119802  -0.000013
    64  H    0.122676  -0.000161
    65  H    0.124335  -0.000192
    66  H    0.124897  -0.000033
    67  H    0.126145  -0.000061
    68  H    0.118405  -0.000004
    69  H    0.309789  -0.000006
    70  H    0.146536  -0.003256
    71  H    0.113962   0.001400
    72  H    0.133302   0.001445
    73  H    0.135351  -0.000055
    74  H    0.136400   0.001753
    75  H    0.313870  -0.000015
    76  H    0.146434   0.003754
    77  H    0.107528   0.000166
    78  H    0.152164   0.005611
    79  H    0.151319   0.005796
    80  H    0.115647   0.001197
    81  H    0.150192   0.008087
    82  H    0.107934   0.000030
    83  H    0.143943   0.005890
    84  H    0.138819   0.000855
    85  H    0.111384  -0.003846
    86  H    0.138005  -0.004963
    87  H    0.130185   0.002116
    88  H    0.117588   0.001020
    89  H    0.114446  -0.000205
    90  H    0.154953   0.007488
    91  H    0.146413   0.005483
    92  H    0.123797  -0.000622
    93  H    0.122849  -0.001846
    94  H    0.152621   0.005902
    95  H    0.124483   0.000308
    96  H    0.154097   0.005817
    97  H    0.114492  -0.003172
    98  H    0.106834  -0.002567
 Sum of Mulliken charges =   1.00000   1.00000

 Dipole moment (field-independent basis, Debye):
    X=              2.5689    Y=             -0.5554    Z=             -2.0861  Tot=              3.3555
 Quadrupole moment (field-independent basis, Debye-Ang):
   XX=            -23.6350   YY=           -218.4722   ZZ=           -247.7550
   XY=            -26.5366   XZ=             27.3290   YZ=              2.6029

 Normal termination of Gaussian 16 at Tue Dec  3 22:01:30 2019.
