 Gaussian 16, Revision A.03,

 ------------------------------------------------------------
 # wB97XD/Def2TZVP iop(3/107=0112500000,3/108=0112500000) opt
 ------------------------------------------------------------

 ---------------------
 lutein-charged-tunado
 ---------------------
 Symbolic Z-matrix:
 Charge =  1 Multiplicity = 2

 SCF Done:  E(UwB97XD) =  -1708.34706172     A.U. after   23 cycles
 SCF Done:  E(UwB97XD) =  -1708.35511511     A.U. after   18 cycles
 SCF Done:  E(UwB97XD) =  -1708.35774727     A.U. after   21 cycles
 SCF Done:  E(UwB97XD) =  -1708.35826358     A.U. after   19 cycles
 SCF Done:  E(UwB97XD) =  -1708.35845785     A.U. after   17 cycles
 SCF Done:  E(UwB97XD) =  -1708.35860390     A.U. after   17 cycles
 SCF Done:  E(UwB97XD) =  -1708.35865715     A.U. after   17 cycles
 SCF Done:  E(UwB97XD) =  -1708.35867162     A.U. after   15 cycles
 SCF Done:  E(UwB97XD) =  -1708.35868080     A.U. after   14 cycles
 SCF Done:  E(UwB97XD) =  -1708.35869227     A.U. after   13 cycles
 SCF Done:  E(UwB97XD) =  -1708.35946849     A.U. after    9 cycles
 SCF Done:  E(UwB97XD) =  -1708.35946893     A.U. after    9 cycles
 SCF Done:  E(UwB97XD) =  -1708.35946901     A.U. after    6 cycles
 SCF Done:  E(UwB97XD) =  -1708.35946915     A.U. after    7 cycles
 SCF Done:  E(UwB97XD) =  -1708.35946934     A.U. after    7 cycles
 SCF Done:  E(UwB97XD) =  -1708.35946943     A.U. after    6 cycles
 SCF Done:  E(UwB97XD) =  -1708.35946950     A.U. after    6 cycles
 SCF Done:  E(UwB97XD) =  -1708.35946956     A.U. after    6 cycles
 SCF Done:  E(UwB97XD) =  -1708.35946958     A.U. after    5 cycles
 Optimization completed.
    -- Stationary point found.
 Normal termination of Gaussian 16 at Wed Dec  4 16:30:02 2019.
 Gaussian 16:  ES64L-G16RevA.03 25-Dec-2016

 ----------------------------------------------------------------------
 # wB97XD/Def2TZVP iop(3/107=0112500000,3/108=0112500000) Geom=Checkpoi
 nt Guess=Read
 ----------------------------------------------------------------------

 ------------------------
 lutein-charged-tunado-sp
 ------------------------
 Structure from the checkpoint file:  "lutein-charged-tunado-sp.chk"
 Charge =  0 Multiplicity = 1

                         Standard orientation:
 ---------------------------------------------------------------------
 Center     Atomic      Atomic             Coordinates (Angstroms)
 Number     Number       Type             X           Y           Z
 ---------------------------------------------------------------------
      1          8           0      -13.963853   -2.155578    0.401411
      2          8           0       14.684928    1.044996    0.189290
      3          6           0      -11.695063   -0.018977    1.331269
      4          6           0      -10.933132    0.360656    0.026608
      5          6           0      -11.868170   -1.546231    1.381413
      6          6           0      -12.554096   -2.158333    0.162706
      7          6           0      -11.530597   -0.306842   -1.207354
      8          6           0       10.965652    1.019827    1.029637
      9          6           0      -10.902929    0.438532    2.562182
     10          6           0      -13.052054    0.700909    1.333890
     11          6           0       12.372958    1.584433    0.764263
     12          6           0      -12.224378   -1.438970   -1.116391
     13          6           0       13.393544    0.511265    0.426547
     14          6           0       10.605405   -0.069134   -0.000808
     15          6           0       -9.476094    0.012538    0.064630
     16          6           0       12.962228   -0.186512   -0.845730
     17          6           0       11.510595   -0.577026   -0.872138
     18          6           0        9.983621    2.206040    0.952118
     19          6           0       10.891205    0.412334    2.444523
     20          6           0      -11.279445    0.385328   -2.514882
     21          6           0       -8.473863    0.883771   -0.144710
     22          6           0        9.217868   -0.504097    0.030163
     23          6           0       11.191287   -1.528907   -1.991112
     24          6           0       -7.066434    0.562466   -0.141853
     25          6           0        8.754581   -1.769029   -0.121661
     26          6           0       -6.650021   -0.857495    0.101428
     27          6           0        7.375137   -2.181849   -0.071265
     28          6           0       -6.175153    1.587494   -0.360966
     29          6           0        7.163641   -3.656434    0.120113
     30          6           0        6.338194   -1.281279   -0.204374
     31          6           0       -4.770453    1.498230   -0.392675
     32          6           0        4.967603   -1.567271   -0.118910
     33          6           0       -3.960342    2.590261   -0.618955
     34          6           0       -2.548203    2.622195   -0.669765
     35          6           0        3.986671   -0.605686   -0.267523
     36          6           0        2.600847   -0.830016   -0.188595
     37          6           0       -1.893895    3.952804   -0.933999
     38          6           0       -1.764069    1.481013   -0.484722
     39          6           0        1.757668    0.272399   -0.365617
     40          6           0        2.074565   -2.212990    0.076924
     41          6           0       -0.376894    1.449608   -0.520240
     42          6           0        0.369913    0.289510   -0.329516
     43          1           0      -11.015818    1.444498   -0.103538
     44          1           0      -12.440130   -1.825469    2.267809
     45          1           0      -10.885202   -2.012465    1.491634
     46          1           0      -12.221063   -3.200854    0.071019
     47          1           0       -9.945743   -0.079572    2.650972
     48          1           0      -10.700033    1.511145    2.521734
     49          1           0      -11.472893    0.241389    3.471728
     50          1           0      -13.645180    0.461722    0.453694
     51          1           0      -13.633864    0.406249    2.208068
     52          1           0      -12.907110    1.783016    1.374085
     53          1           0       12.338928    2.286280   -0.074176
     54          1           0       12.694681    2.153134    1.641501
     55          1           0      -12.628217   -1.880264   -2.024293
     56          1           0       13.440725   -0.225014    1.239207
     57          1           0       -9.248339   -1.033212    0.243133
     58          1           0       13.572412   -1.078247   -1.014102
     59          1           0       13.171898    0.476479   -1.693636
     60          1           0        8.992586    1.958989    1.335048
     61          1           0        9.881594    2.569521   -0.071986
     62          1           0       10.360977    3.027791    1.562939
     63          1           0       11.602753   -0.404377    2.570837
     64          1           0        9.895113    0.013558    2.646645
     65          1           0       11.105980    1.172715    3.198129
     66          1           0      -10.210222    0.542041   -2.680138
     67          1           0      -11.750166    1.372467   -2.519041
     68          1           0      -11.675199   -0.184472   -3.354477
     69          1           0      -14.410066   -2.502393   -0.373239
     70          1           0        8.494475    0.262220    0.284101
     71          1           0       -8.726661    1.923933   -0.326956
     72          1           0       11.491010   -2.548761   -1.731869
     73          1           0       10.138035   -1.541784   -2.260632
     74          1           0       11.771830   -1.254624   -2.874592
     75          1           0       15.009810    1.444266    0.997797
     76          1           0        9.476571   -2.570422   -0.222831
     77          1           0       -5.573462   -0.996687    0.075314
     78          1           0       -7.007185   -1.195027    1.076396
     79          1           0       -7.090769   -1.515576   -0.649837
     80          1           0       -6.596354    2.574478   -0.525599
     81          1           0        7.564046   -3.968071    1.087882
     82          1           0        6.123754   -3.964315    0.067016
     83          1           0        7.717134   -4.209141   -0.642179
     84          1           0        6.595279   -0.247815   -0.408682
     85          1           0       -4.315629    0.529644   -0.230677
     86          1           0        4.660021   -2.586677    0.075618
     87          1           0       -4.462753    3.539059   -0.776028
     88          1           0        4.309159    0.412672   -0.460767
     89          1           0       -1.286319    3.919425   -1.840555
     90          1           0       -1.237393    4.238672   -0.109690
     91          1           0       -2.634694    4.739272   -1.058060
     92          1           0       -2.263895    0.537873   -0.296785
     93          1           0        2.247202    1.223640   -0.552665
     94          1           0        2.444794   -2.588068    1.032718
     95          1           0        0.990060   -2.250398    0.108068
     96          1           0        2.405615   -2.905330   -0.699196
     97          1           0        0.166912    2.369596   -0.704717
     98          1           0       -0.174980   -0.629271   -0.145685
 ---------------------------------------------------------------------

 SCF Done:  E(UwB97XD) =  -1708.54965549     A.U. after   30 cycles

 Alpha virt. eigenvalues --    0.39914   0.40153   0.40369   0.40438   0.40937
 Alpha virt. eigenvalues --    0.41099   0.41260   0.41424   0.41667   0.41896
 Alpha virt. eigenvalues --    0.42063   0.42224   0.42426   0.42672   0.42910

  Beta  occ. eigenvalues --  -19.20679 -19.20386 -10.29421 -10.29055 -10.26502
  Beta  occ. eigenvalues --  -10.26003 -10.25921 -10.25858 -10.25834 -10.25518
  Beta  occ. eigenvalues --  -10.25507 -10.25411 -10.25236 -10.24845 -10.24780
  Beta  occ. eigenvalues --  -10.24711 -10.24701 -10.24596 -10.24546 -10.24542
  Beta  occ. eigenvalues --  -10.24510 -10.24502 -10.24458 -10.24350 -10.24334
  Beta  occ. eigenvalues --  -10.24297 -10.24222 -10.24112 -10.24108 -10.24044
  Beta  occ. eigenvalues --  -10.24019 -10.23897 -10.23838 -10.23704 -10.23631
  Beta  occ. eigenvalues --  -10.23439 -10.23431 -10.23416 -10.23355 -10.23102
  Beta  occ. eigenvalues --  -10.22438 -10.21783  -1.08337  -1.07831  -0.91452
  Beta  occ. eigenvalues --   -0.91394  -0.89974  -0.89462  -0.88506  -0.87826
  Beta  occ. eigenvalues --   -0.85249  -0.84991  -0.84620  -0.83518  -0.82733
  Beta  occ. eigenvalues --   -0.81168  -0.80314  -0.78636  -0.78285  -0.76698
  Beta  occ. eigenvalues --   -0.74972  -0.74650  -0.74359  -0.74193  -0.74134
  Beta  occ. eigenvalues --   -0.73659  -0.73388  -0.73150  -0.71078  -0.68717
  Beta  occ. eigenvalues --   -0.67430  -0.66218  -0.64959  -0.63657  -0.62271
  Beta  occ. eigenvalues --   -0.61533  -0.61059  -0.60810  -0.59256  -0.58580
  Beta  occ. eigenvalues --   -0.58181  -0.57646  -0.57272  -0.56379  -0.55026
  Beta  occ. eigenvalues --   -0.54514  -0.53847  -0.53516  -0.52943  -0.52529
  Beta  occ. eigenvalues --   -0.52023  -0.51609  -0.51422  -0.50842  -0.49682
  Beta  occ. eigenvalues --   -0.49117  -0.48833  -0.48246  -0.47836  -0.47697
  Beta  occ. eigenvalues --   -0.47538  -0.47435  -0.47326  -0.47161  -0.47073
  Beta  occ. eigenvalues --   -0.47002  -0.46473  -0.45850  -0.45570  -0.45280
  Beta  occ. eigenvalues --   -0.45043  -0.44715  -0.44302  -0.44211  -0.44023
  Beta  occ. eigenvalues --   -0.43803  -0.43737  -0.43056  -0.42944  -0.42887
  Beta  occ. eigenvalues --   -0.42761  -0.42522  -0.41912  -0.41604  -0.41508
  Beta  occ. eigenvalues --   -0.41423  -0.40874  -0.40850  -0.40313  -0.40041
  Beta  occ. eigenvalues --   -0.39999  -0.39621  -0.39406  -0.39314  -0.39115
  Beta  occ. eigenvalues --   -0.39047  -0.38603  -0.38565  -0.38410  -0.38095
  Beta  occ. eigenvalues --   -0.37609  -0.36445  -0.36326  -0.36197  -0.35702
  Beta  occ. eigenvalues --   -0.35286  -0.34581  -0.33703  -0.31953  -0.31795
  Beta  occ. eigenvalues --   -0.31597  -0.29509  -0.29021  -0.26925  -0.23869
  Beta  occ. eigenvalues --   -0.19317
  Beta virt. eigenvalues --   -0.05739  -0.00823   0.02782   0.05457   0.06989
  Beta virt. eigenvalues --    0.08700   0.09733   0.09752   0.10468   0.10524
  Beta virt. eigenvalues --    0.10933   0.11147   0.11328   0.11559   0.11697

 Mulliken charges and spin densities:
               1          2
     1  O   -0.485444   0.000000
     2  O   -0.474263  -0.000000
     3  C    0.053879   0.000000
     4  C    0.253154   0.000000
     5  C   -0.285885   0.000000
     6  C    0.301068  -0.000000
     7  C   -0.033207  -0.000000
     8  C    0.101562  -0.000001
     9  C   -0.316754   0.000000
    10  C   -0.357683   0.000000
    11  C   -0.224517   0.000000
    12  C   -0.310921   0.000001
    13  C    0.127730  -0.000000
    14  C    0.023311   0.000008
    15  C   -0.396099   0.000002
    16  C   -0.141672   0.000001
    17  C    0.024500  -0.000009
    18  C   -0.377748   0.000000
    19  C   -0.378607   0.000000
    20  C   -0.367562   0.000000
    21  C   -0.154898  -0.000001
    22  C   -0.208624  -0.000006
    23  C   -0.415420   0.000001
    24  C    0.127379   0.000005
    25  C   -0.282946   0.000006
    26  C   -0.359219  -0.000000
    27  C    0.129227   0.000003
    28  C   -0.151683  -0.000004
    29  C   -0.347897  -0.000000
    30  C   -0.138513  -0.000001
    31  C   -0.003838   0.000006
    32  C   -0.060356   0.000009
    33  C   -0.250784  -0.000007
    34  C    0.135344   0.000000
    35  C   -0.203521  -0.000007
    36  C    0.118996   0.000008
    37  C   -0.378272  -0.000000
    38  C   -0.110512  -0.000003
    39  C   -0.137927  -0.000008
    40  C   -0.372619  -0.000000
    41  C   -0.162342  -0.000005
    42  C   -0.084380   0.000002
    43  H    0.066628  -0.000000
    44  H    0.103311  -0.000000
    45  H    0.101595  -0.000000
    46  H    0.055700   0.000000
    47  H    0.119998  -0.000000
    48  H    0.109729   0.000000
    49  H    0.117438  -0.000000
    50  H    0.137040  -0.000000
    51  H    0.110055   0.000000
    52  H    0.100247  -0.000000
    53  H    0.100324  -0.000000
    54  H    0.093239  -0.000000
    55  H    0.091128  -0.000000
    56  H    0.056547   0.000000
    57  H    0.152953  -0.000000
    58  H    0.108860  -0.000000
    59  H    0.106513  -0.000001
    60  H    0.114147  -0.000000
    61  H    0.129721  -0.000000
    62  H    0.120822   0.000000
    63  H    0.112009  -0.000000
    64  H    0.132818  -0.000000
    65  H    0.109884   0.000000
    66  H    0.138247  -0.000000
    67  H    0.116674  -0.000000
    68  H    0.106477  -0.000000
    69  H    0.304482  -0.000000
    70  H    0.108247   0.000001
    71  H    0.097907  -0.000000
    72  H    0.127095  -0.000000
    73  H    0.157196  -0.000000
    74  H    0.121621  -0.000000
    75  H    0.308778   0.000000
    76  H    0.133665  -0.000000
    77  H    0.108116   0.000000
    78  H    0.128041   0.000000
    79  H    0.129903   0.000000
    80  H    0.090319   0.000000
    81  H    0.125825   0.000000
    82  H    0.105479  -0.000000
    83  H    0.119349   0.000000
    84  H    0.101917  -0.000000
    85  H    0.084769  -0.000000
    86  H    0.111915  -0.000000
    87  H    0.085142   0.000001
    88  H    0.091467   0.000000
    89  H    0.130698  -0.000000
    90  H    0.130612  -0.000000
    91  H    0.113399   0.000000
    92  H    0.089433   0.000000
    93  H    0.092019   0.000000
    94  H    0.128902   0.000000
    95  H    0.113086   0.000000
    96  H    0.129289   0.000000
    97  H    0.114142   0.000000
    98  H    0.083047  -0.000000
 Sum of Mulliken charges =  -0.00000   0.00000

 Dipole moment (field-independent basis, Debye):
    X=              0.6369    Y=             -0.7106    Z=              0.0587  Tot=              0.9560
 Quadrupole moment (field-independent basis, Debye-Ang):
   XX=           -268.9320   YY=           -239.9215   ZZ=           -261.7371
   XY=              3.3411   XZ=             36.1242   YZ=              2.4687

 Normal termination of Gaussian 16 at Wed Dec  4 20:00:34 2019.
