 Gaussian 16, Revision A.03,
 Gaussian 16:  ES64L-G16RevA.03 25-Dec-2016

 --------------------------------------------------------
 # wB97XD/Def2TZVP iop(3/107=0150000000,3/108=0150000000)
 --------------------------------------------------------

 -----
 TITLE
 -----
 Symbolic Z-matrix:
 Charge = -1 Multiplicity = 2

                         Standard orientation:
 ---------------------------------------------------------------------
 Center     Atomic      Atomic             Coordinates (Angstroms)
 Number     Number       Type             X           Y           Z
 ---------------------------------------------------------------------
      1          8           0      -13.856582   -2.362559    0.839041
      2          8           0       14.669821    0.910536    0.807527
      3          6           0      -11.758820    0.077578    1.298830
      4          6           0      -10.917110    0.152014   -0.005042
      5          6           0      -11.862284   -1.390329    1.739839
      6          6           0      -12.432534   -2.336344    0.689506
      7          6           0      -11.393087   -0.845423   -1.047928
      8          6           0       11.108936   -0.068718    1.736661
      9          6           0      -11.091783    0.888143    2.413172
     10          6           0      -13.145080    0.679530    1.030774
     11          6           0       12.467885    0.643283    1.826955
     12          6           0      -12.041811   -1.956515   -0.709997
     13          6           0       13.410281    0.262504    0.700803
     14          6           0       10.583329   -0.060346    0.293903
     15          6           0       -9.442629   -0.060076    0.207973
     16          6           0       12.796584    0.677560   -0.617230
     17          6           0       11.343351    0.301229   -0.754152
     18          6           0       10.140857    0.668736    2.678097
     19          6           0       11.235097   -1.525481    2.218328
     20          6           0      -11.056882   -0.512887   -2.470390
     21          6           0       -8.495666    0.820788   -0.123740
     22          6           0        9.183544   -0.493003    0.136888
     23          6           0       10.846375    0.417290   -2.169027
     24          6           0       -7.057002    0.644566    0.043115
     25          6           0        8.763960   -1.461141   -0.685369
     26          6           0       -6.575744   -0.644445    0.643375
     27          6           0        7.375529   -1.893628   -0.868903
     28          6           0       -6.238857    1.645498   -0.349945
     29          6           0        7.205570   -3.357365   -1.170457
     30          6           0        6.356987   -1.013656   -0.779760
     31          6           0       -4.800222    1.687588   -0.281799
     32          6           0        4.946241   -1.293490   -0.880733
     33          6           0       -4.074937    2.742681   -0.694723
     34          6           0       -2.619789    2.860739   -0.679944
     35          6           0        4.001763   -0.336632   -0.797704
     36          6           0        2.567692   -0.536032   -0.882555
     37          6           0       -2.103274    4.270814   -0.583965
     38          6           0       -1.824701    1.770812   -0.765359
     39          6           0        1.760968    0.547403   -0.776932
     40          6           0        2.060189   -1.935405   -1.084756
     41          6           0       -0.388634    1.729107   -0.716194
     42          6           0        0.325927    0.589990   -0.833077
     43          1           0      -11.046735    1.157519   -0.421765
     44          1           0      -12.478410   -1.468335    2.638429
     45          1           0      -10.865188   -1.745323    2.014991
     46          1           0      -12.051596   -3.346268    0.894786
     47          1           0      -10.121821    0.474603    2.694263
     48          1           0      -10.931621    1.922930    2.100352
     49          1           0      -11.726527    0.899592    3.302157
     50          1           0      -13.651783    0.187975    0.202049
     51          1           0      -13.782422    0.575010    1.910687
     52          1           0      -13.054484    1.744751    0.802317
     53          1           0       12.320770    1.727301    1.786852
     54          1           0       12.923278    0.417598    2.797495
     55          1           0      -12.340765   -2.651786   -1.492006
     56          1           0       13.558746   -0.825334    0.697265
     57          1           0       -9.161866   -1.018083    0.635036
     58          1           0       13.362018    0.241575   -1.446068
     59          1           0       12.904001    1.764047   -0.721655
     60          1           0        9.204659    0.126116    2.813553
     61          1           0        9.910674    1.667942    2.302326
     62          1           0       10.599585    0.776262    3.663719
     63          1           0       11.951811   -2.087436    1.617469
     64          1           0       10.274324   -2.038308    2.149088
     65          1           0       11.561633   -1.555945    3.261060
     66          1           0       -9.983944   -0.337247   -2.583314
     67          1           0      -11.563616    0.407977   -2.774094
     68          1           0      -11.352497   -1.309060   -3.153510
     69          1           0      -14.232367   -2.813915    0.081076
     70          1           0        8.447971   -0.020042    0.780807
     71          1           0       -8.805156    1.768276   -0.559149
     72          1           0       11.233640   -0.398705   -2.786830
     73          1           0        9.761590    0.407546   -2.240364
     74          1           0       11.219722    1.345304   -2.611823
     75          1           0       15.071381    0.656540    1.640099
     76          1           0        9.512154   -2.014501   -1.248292
     77          1           0       -5.493520   -0.688456    0.732444
     78          1           0       -6.999497   -0.783678    1.641309
     79          1           0       -6.898119   -1.494429    0.036446
     80          1           0       -6.708833    2.530855   -0.771356
     81          1           0        7.512939   -3.964743   -0.314542
     82          1           0        6.184074   -3.627325   -1.428288
     83          1           0        7.847955   -3.643982   -2.007550
     84          1           0        6.614480    0.030402   -0.624256
     85          1           0       -4.279909    0.833865    0.137448
     86          1           0        4.639371   -2.323202   -1.021330
     87          1           0       -4.614151    3.619723   -1.047393
     88          1           0        4.327457    0.690362   -0.651133
     89          1           0       -1.023670    4.341020   -0.691807
     90          1           0       -2.379250    4.716539    0.375565
     91          1           0       -2.557134    4.889178   -1.363072
     92          1           0       -2.309525    0.808182   -0.901122
     93          1           0        2.246906    1.509369   -0.632511
     94          1           0        2.385161   -2.583879   -0.267165
     95          1           0        0.975823   -1.984535   -1.137187
     96          1           0        2.458842   -2.358434   -2.010354
     97          1           0        0.153646    2.657716   -0.570069
     98          1           0       -0.217439   -0.338557   -0.974842
 ---------------------------------------------------------------------

 SCF Done:  E(UwB97XD) =  -1708.47817383     A.U. after   23 cycles

 Alpha virt. eigenvalues --    0.48161   0.48321   0.48557   0.48729   0.48779
 Alpha virt. eigenvalues --    0.48967   0.49534   0.49576   0.49656   0.49880
 Alpha virt. eigenvalues --    0.50379   0.50571   0.50678   0.50996   0.51186

  Beta  occ. eigenvalues --  -19.17233 -19.16748 -10.25389 -10.25133 -10.21845
  Beta  occ. eigenvalues --  -10.21104 -10.20909 -10.20136 -10.19835 -10.19677
  Beta  occ. eigenvalues --  -10.19569 -10.19433 -10.19319 -10.19230 -10.19078
  Beta  occ. eigenvalues --  -10.18861 -10.18789 -10.18396 -10.18001 -10.17920
  Beta  occ. eigenvalues --  -10.17920 -10.17740 -10.17201 -10.17120 -10.17041
  Beta  occ. eigenvalues --  -10.16902 -10.16810 -10.16719 -10.16606 -10.16439
  Beta  occ. eigenvalues --  -10.15675 -10.15577 -10.15515 -10.15457 -10.15014
  Beta  occ. eigenvalues --  -10.14926 -10.14625 -10.14612 -10.14413 -10.14236
  Beta  occ. eigenvalues --  -10.14053 -10.13876  -1.04890  -1.04243  -0.86872
  Beta  occ. eigenvalues --   -0.86865  -0.81457  -0.81409  -0.80540  -0.80533
  Beta  occ. eigenvalues --   -0.79699  -0.79036  -0.77668  -0.77254  -0.75428
  Beta  occ. eigenvalues --   -0.74378  -0.73311  -0.72094  -0.71174  -0.70095
  Beta  occ. eigenvalues --   -0.69942  -0.69552  -0.69029  -0.68733  -0.68259
  Beta  occ. eigenvalues --   -0.67137  -0.66712  -0.66206  -0.63496  -0.62338
  Beta  occ. eigenvalues --   -0.61845  -0.59252  -0.58351  -0.57604  -0.56882
  Beta  occ. eigenvalues --   -0.55687  -0.53982  -0.53523  -0.52817  -0.51486
  Beta  occ. eigenvalues --   -0.51126  -0.50411  -0.49926  -0.49664  -0.49257
  Beta  occ. eigenvalues --   -0.48147  -0.47918  -0.47429  -0.47212  -0.46552
  Beta  occ. eigenvalues --   -0.45673  -0.45197  -0.44980  -0.44456  -0.43495
  Beta  occ. eigenvalues --   -0.43362  -0.43319  -0.42943  -0.42252  -0.41636
  Beta  occ. eigenvalues --   -0.41546  -0.40982  -0.40746  -0.40444  -0.40158
  Beta  occ. eigenvalues --   -0.40069  -0.39958  -0.39902  -0.39726  -0.39455
  Beta  occ. eigenvalues --   -0.39258  -0.38845  -0.38519  -0.38494  -0.38418
  Beta  occ. eigenvalues --   -0.37885  -0.37222  -0.37112  -0.36847  -0.36522
  Beta  occ. eigenvalues --   -0.36380  -0.36044  -0.35791  -0.35406  -0.35115
  Beta  occ. eigenvalues --   -0.34999  -0.34726  -0.34624  -0.33975  -0.33915
  Beta  occ. eigenvalues --   -0.33845  -0.33066  -0.32774  -0.32235  -0.31679
  Beta  occ. eigenvalues --   -0.31538  -0.31367  -0.31078  -0.30561  -0.30384
  Beta  occ. eigenvalues --   -0.29823  -0.29468  -0.29428  -0.29146  -0.28272
  Beta  occ. eigenvalues --   -0.28198  -0.27969  -0.27744  -0.26481  -0.25555
  Beta  occ. eigenvalues --   -0.24699  -0.23290  -0.21674  -0.18843  -0.15829
  Beta  occ. eigenvalues --   -0.11357
  Beta virt. eigenvalues --    0.07930   0.10083   0.12509   0.13868   0.15206
  Beta virt. eigenvalues --    0.15815   0.16510   0.16838   0.17315   0.17939
  Beta virt. eigenvalues --    0.18036   0.18371   0.19071   0.19214   0.19370

 Mulliken charges and spin densities:
               1          2
     1  O   -0.485472   0.000236
     2  O   -0.469026   0.000029
     3  C    0.110767   0.003084
     4  C    0.221674  -0.005581
     5  C   -0.303938   0.000313
     6  C    0.298310  -0.000421
     7  C    0.016471   0.000686
     8  C    0.195862   0.003022
     9  C   -0.329359   0.000903
    10  C   -0.370918   0.000221
    11  C   -0.233118   0.000101
    12  C   -0.351809   0.005750
    13  C    0.115418   0.000148
    14  C    0.048626  -0.017074
    15  C   -0.415234   0.106526
    16  C   -0.139578  -0.001108
    17  C   -0.036270   0.023761
    18  C   -0.414149  -0.000079
    19  C   -0.406132   0.000117
    20  C   -0.388530   0.000805
    21  C   -0.145950  -0.037590
    22  C   -0.334128   0.083581
    23  C   -0.381783  -0.001283
    24  C    0.082303   0.134197
    25  C   -0.218576  -0.034652
    26  C   -0.371874  -0.005474
    27  C    0.095859   0.135957
    28  C   -0.113219  -0.053977
    29  C   -0.353034  -0.006059
    30  C   -0.164708  -0.055258
    31  C   -0.104927   0.144541
    32  C   -0.098750   0.145856
    33  C   -0.230816  -0.019217
    34  C    0.080178   0.140774
    35  C   -0.209720  -0.025780
    36  C    0.097937   0.118500
    37  C   -0.350919  -0.004305
    38  C   -0.164841   0.007188
    39  C   -0.137627   0.016900
    40  C   -0.381839  -0.004043
    41  C   -0.118931   0.087278
    42  C   -0.148415   0.076805
    43  H    0.059676   0.000147
    44  H    0.095289   0.000019
    45  H    0.110145   0.000302
    46  H    0.053705   0.000084
    47  H    0.131110   0.000043
    48  H    0.107847  -0.000008
    49  H    0.105330   0.000041
    50  H    0.126453   0.000002
    51  H    0.102769   0.000258
    52  H    0.098507   0.000010
    53  H    0.096378  -0.000005
    54  H    0.084914   0.000056
    55  H    0.085731   0.000130
    56  H    0.053707   0.000012
    57  H    0.133417  -0.004229
    58  H    0.098296   0.001180
    59  H    0.096081   0.001169
    60  H    0.136310   0.000176
    61  H    0.126795  -0.000012
    62  H    0.108114  -0.000040
    63  H    0.106103  -0.000035
    64  H    0.145623   0.000011
    65  H    0.100607  -0.000136
    66  H    0.153934  -0.000080
    67  H    0.110313   0.000063
    68  H    0.098475  -0.000012
    69  H    0.298173   0.000006
    70  H    0.130826  -0.003633
    71  H    0.080914   0.001243
    72  H    0.111775   0.000747
    73  H    0.161914   0.000197
    74  H    0.106360   0.000884
    75  H    0.301643  -0.000013
    76  H    0.098821   0.004208
    77  H    0.118880   0.000136
    78  H    0.106411   0.005414
    79  H    0.109165   0.005550
    80  H    0.069656   0.002215
    81  H    0.103434   0.005412
    82  H    0.107322   0.001266
    83  H    0.095978   0.004591
    84  H    0.097897   0.002090
    85  H    0.082290  -0.005977
    86  H    0.088882  -0.005873
    87  H    0.067804   0.003254
    88  H    0.069008   0.000496
    89  H    0.096786   0.002098
    90  H    0.104617   0.004672
    91  H    0.093736   0.004266
    92  H    0.080980   0.000056
    93  H    0.065413  -0.000095
    94  H    0.107541   0.004358
    95  H    0.108696  -0.000073
    96  H    0.107872   0.004339
    97  H    0.057043  -0.003411
    98  H    0.054720  -0.002946
 Sum of Mulliken charges =  -1.00000   1.00000

 Dipole moment (field-independent basis, Debye):
    X=              0.4742    Y=             -2.9747    Z=              1.8979  Tot=              3.5603
 Quadrupole moment (field-independent basis, Debye-Ang):
   XX=           -523.0731   YY=           -271.1058   ZZ=           -271.7758
   XY=              7.4253   XZ=             38.3777   YZ=              3.2105

 Normal termination of Gaussian 16 at Wed Nov 20 14:17:42 2019.
