 Gaussian 16, Revision A.03,
 Gaussian 16:  ES64L-G16RevA.03 25-Dec-2016

 --------------------------------------------------------
 # wB97XD/Def2TZVP iop(3/107=0125000000,3/108=0125000000)
 --------------------------------------------------------

 -----
 TITLE
 -----
 Symbolic Z-matrix:
 Charge = -1 Multiplicity = 2

                         Standard orientation:
 ---------------------------------------------------------------------
 Center     Atomic      Atomic             Coordinates (Angstroms)
 Number     Number       Type             X           Y           Z
 ---------------------------------------------------------------------
      1          8           0      -13.888890   -2.328241    0.841421
      2          8           0       14.694355    0.931197    0.721985
      3          6           0      -11.770380    0.105241    1.297014
      4          6           0      -10.929379    0.172002   -0.009993
      5          6           0      -11.886425   -1.362908    1.738486
      6          6           0      -12.463712   -2.306476    0.688110
      7          6           0      -11.417658   -0.821396   -1.052668
      8          6           0       11.119131    0.053834    1.711542
      9          6           0      -11.093442    0.910137    2.411329
     10          6           0      -13.152420    0.720845    1.031107
     11          6           0       12.485257    0.759823    1.752385
     12          6           0      -12.074637   -1.927940   -0.712651
     13          6           0       13.427941    0.287839    0.660218
     14          6           0       10.597826   -0.046014    0.269017
     15          6           0       -9.455594   -0.053677    0.198933
     16          6           0       12.820309    0.608317   -0.687744
     17          6           0       11.364258    0.232310   -0.801347
     18          6           0       10.154135    0.872008    2.589797
     19          6           0       11.231253   -1.363175    2.306444
     20          6           0      -11.084620   -0.491239   -2.477319
     21          6           0       -8.500441    0.819857   -0.134530
     22          6           0        9.196794   -0.482963    0.140942
     23          6           0       10.871985    0.248088   -2.223299
     24          6           0       -7.063480    0.632191    0.026513
     25          6           0        8.770547   -1.502035   -0.616491
     26          6           0       -6.588063   -0.660929    0.624512
     27          6           0        7.381779   -1.942121   -0.771381
     28          6           0       -6.238090    1.628512   -0.370823
     29          6           0        7.209687   -3.419274   -1.002655
     30          6           0        6.360862   -1.058689   -0.718775
     31          6           0       -4.800559    1.661535   -0.309816
     32          6           0        4.951237   -1.342635   -0.798675
     33          6           0       -4.069297    2.712689   -0.729577
     34          6           0       -2.615241    2.827834   -0.724772
     35          6           0        4.004420   -0.382391   -0.753216
     36          6           0        2.571504   -0.584756   -0.821337
     37          6           0       -2.095154    4.240265   -0.680964
     38          6           0       -1.818675    1.733658   -0.774538
     39          6           0        1.763998    0.504581   -0.756629
     40          6           0        2.060401   -1.991329   -0.961599
     41          6           0       -0.384431    1.692110   -0.730568
     42          6           0        0.330646    0.546859   -0.806934
     43          1           0      -11.050806    1.178456   -0.426055
     44          1           0      -12.502751   -1.435873    2.637052
     45          1           0      -10.892523   -1.725693    2.014108
     46          1           0      -12.086391   -3.317974    0.892128
     47          1           0      -10.126156    0.488906    2.689413
     48          1           0      -10.926144    1.943908    2.099721
     49          1           0      -11.725156    0.925697    3.302202
     50          1           0      -13.665004    0.234735    0.203046
     51          1           0      -13.789350    0.622765    1.911802
     52          1           0      -13.052730    1.784996    0.802355
     53          1           0       12.347635    1.838779    1.631353
     54          1           0       12.935954    0.603766    2.738376
     55          1           0      -12.381665   -2.620338   -1.493838
     56          1           0       13.566897   -0.798264    0.738315
     57          1           0       -9.182210   -1.014794    0.623025
     58          1           0       13.384863    0.108022   -1.479880
     59          1           0       12.935838    1.682985   -0.873103
     60          1           0        9.212681    0.350499    2.764551
     61          1           0        9.934131    1.840662    2.136553
     62          1           0       10.610708    1.052301    3.565538
     63          1           0       11.944319   -1.976359    1.753550
     64          1           0       10.266558   -1.871885    2.274668
     65          1           0       11.555133   -1.315529    3.349161
     66          1           0      -10.010909   -0.325159   -2.595680
     67          1           0      -11.584511    0.433871   -2.779147
     68          1           0      -11.390178   -1.284441   -3.159278
     69          1           0      -14.267214   -2.779825    0.084977
     70          1           0        8.464960    0.032789    0.755117
     71          1           0       -8.803424    1.770339   -0.567417
     72          1           0       11.255855   -0.612393   -2.779680
     73          1           0        9.787548    0.239805   -2.297358
     74          1           0       11.251832    1.139352   -2.731095
     75          1           0       15.091419    0.735456    1.572140
     76          1           0        9.516061   -2.094522   -1.141187
     77          1           0       -5.505969   -0.711909    0.709614
     78          1           0       -7.008572   -0.798514    1.623902
     79          1           0       -6.917421   -1.508622    0.018295
     80          1           0       -6.704443    2.516484   -0.790251
     81          1           0        7.518456   -3.986091   -0.119909
     82          1           0        6.187344   -3.699978   -1.244379
     83          1           0        7.848966   -3.746468   -1.826997
     84          1           0        6.618557   -0.008522   -0.614986
     85          1           0       -4.284759    0.805151    0.108904
     86          1           0        4.644110   -2.377459   -0.891207
     87          1           0       -4.607242    3.590266   -1.082007
     88          1           0        4.330768    0.649815   -0.654113
     89          1           0       -1.016320    4.304497   -0.797758
     90          1           0       -2.363578    4.719808    0.264232
     91          1           0       -2.552175    4.832571   -1.478065
     92          1           0       -2.304234    0.767181   -0.873196
     93          1           0        2.252116    1.470647   -0.654751
     94          1           0        2.387715   -2.605429   -0.118941
     95          1           0        0.975838   -2.040437   -1.006367
     96          1           0        2.453013   -2.454269   -1.870366
     97          1           0        0.159541    2.624699   -0.622886
     98          1           0       -0.214331   -0.385625   -0.909747
 ---------------------------------------------------------------------

 SCF Done:  E(UwB97XD) =  -1708.54996761     A.U. after   21 cycles

 Alpha virt. eigenvalues --    0.47768   0.47930   0.48165   0.48273   0.48331
 Alpha virt. eigenvalues --    0.48537   0.49097   0.49131   0.49276   0.49558
 Alpha virt. eigenvalues --    0.50009   0.50129   0.50312   0.50538   0.50792

  Beta  occ. eigenvalues --  -19.16028 -19.15547 -10.24227 -10.23964 -10.20703
  Beta  occ. eigenvalues --  -10.19919 -10.19772 -10.18971 -10.18627 -10.18510
  Beta  occ. eigenvalues --  -10.18398 -10.18269 -10.18145 -10.18071 -10.17898
  Beta  occ. eigenvalues --  -10.17698 -10.17615 -10.17224 -10.16835 -10.16765
  Beta  occ. eigenvalues --  -10.16705 -10.16511 -10.16066 -10.15896 -10.15820
  Beta  occ. eigenvalues --  -10.15757 -10.15652 -10.15536 -10.15495 -10.15286
  Beta  occ. eigenvalues --  -10.14656 -10.14516 -10.14465 -10.14384 -10.14104
  Beta  occ. eigenvalues --  -10.14011 -10.13638 -10.13565 -10.13415 -10.13250
  Beta  occ. eigenvalues --  -10.13144 -10.12961  -1.03570  -1.02920  -0.85473
  Beta  occ. eigenvalues --   -0.85470  -0.80135  -0.80072  -0.79191  -0.79184
  Beta  occ. eigenvalues --   -0.78515  -0.77818  -0.76369  -0.75950  -0.74219
  Beta  occ. eigenvalues --   -0.73114  -0.72051  -0.70850  -0.69990  -0.68812
  Beta  occ. eigenvalues --   -0.68660  -0.68260  -0.67754  -0.67435  -0.66976
  Beta  occ. eigenvalues --   -0.66049  -0.65463  -0.65007  -0.62326  -0.61088
  Beta  occ. eigenvalues --   -0.60604  -0.58101  -0.57134  -0.56371  -0.55639
  Beta  occ. eigenvalues --   -0.54551  -0.52816  -0.52291  -0.51596  -0.50416
  Beta  occ. eigenvalues --   -0.49926  -0.49255  -0.48838  -0.48476  -0.48086
  Beta  occ. eigenvalues --   -0.46952  -0.46708  -0.46243  -0.46035  -0.45387
  Beta  occ. eigenvalues --   -0.44524  -0.44025  -0.43839  -0.43285  -0.42387
  Beta  occ. eigenvalues --   -0.42226  -0.42162  -0.41776  -0.41126  -0.40508
  Beta  occ. eigenvalues --   -0.40420  -0.39847  -0.39654  -0.39312  -0.39034
  Beta  occ. eigenvalues --   -0.38949  -0.38824  -0.38761  -0.38622  -0.38359
  Beta  occ. eigenvalues --   -0.38184  -0.37788  -0.37492  -0.37429  -0.37401
  Beta  occ. eigenvalues --   -0.36834  -0.36138  -0.36020  -0.35801  -0.35420
  Beta  occ. eigenvalues --   -0.35310  -0.34967  -0.34711  -0.34352  -0.34044
  Beta  occ. eigenvalues --   -0.33963  -0.33741  -0.33574  -0.32944  -0.32845
  Beta  occ. eigenvalues --   -0.32774  -0.32062  -0.31752  -0.31228  -0.30606
  Beta  occ. eigenvalues --   -0.30483  -0.30325  -0.30076  -0.29519  -0.29388
  Beta  occ. eigenvalues --   -0.28827  -0.28505  -0.28455  -0.28129  -0.27451
  Beta  occ. eigenvalues --   -0.27211  -0.26898  -0.26669  -0.25478  -0.24540
  Beta  occ. eigenvalues --   -0.23684  -0.22332  -0.20722  -0.17984  -0.15002
  Beta  occ. eigenvalues --   -0.10647
  Beta virt. eigenvalues --    0.07348   0.09611   0.12030   0.13402   0.15142
  Beta virt. eigenvalues --    0.15568   0.16154   0.16706   0.17258   0.17825
  Beta virt. eigenvalues --    0.17936   0.18009   0.18961   0.19120   0.19252

 Mulliken charges and spin densities:
               1          2
     1  O   -0.491444   0.000256
     2  O   -0.475841   0.000028
     3  C    0.099226   0.003270
     4  C    0.232446  -0.005928
     5  C   -0.295268   0.000266
     6  C    0.311907  -0.000398
     7  C    0.009717   0.001068
     8  C    0.180745   0.003281
     9  C   -0.322495   0.000936
    10  C   -0.364446   0.000253
    11  C   -0.224196   0.000096
    12  C   -0.349497   0.006086
    13  C    0.127253   0.000202
    14  C    0.045279  -0.018093
    15  C   -0.427128   0.109178
    16  C   -0.133016  -0.001339
    17  C   -0.031414   0.025945
    18  C   -0.405159  -0.000183
    19  C   -0.396945   0.000101
    20  C   -0.377222   0.000746
    21  C   -0.136229  -0.037064
    22  C   -0.334755   0.086943
    23  C   -0.377574  -0.001457
    24  C    0.076182   0.133389
    25  C   -0.218133  -0.033725
    26  C   -0.366538  -0.005567
    27  C    0.090964   0.133979
    28  C   -0.111145  -0.049581
    29  C   -0.344936  -0.005946
    30  C   -0.159290  -0.051362
    31  C   -0.100982   0.142305
    32  C   -0.101796   0.140352
    33  C   -0.229329  -0.013891
    34  C    0.074804   0.134316
    35  C   -0.203951  -0.021536
    36  C    0.091961   0.112462
    37  C   -0.342391  -0.004084
    38  C   -0.155916   0.010802
    39  C   -0.131736   0.019134
    40  C   -0.376739  -0.003757
    41  C   -0.119874   0.083780
    42  C   -0.146684   0.073992
    43  H    0.054966   0.000142
    44  H    0.091732   0.000018
    45  H    0.108094   0.000319
    46  H    0.048367   0.000089
    47  H    0.130873   0.000037
    48  H    0.105950  -0.000004
    49  H    0.103254   0.000038
    50  H    0.126907  -0.000004
    51  H    0.100614   0.000271
    52  H    0.096672   0.000009
    53  H    0.093728  -0.000005
    54  H    0.081640   0.000058
    55  H    0.081616   0.000114
    56  H    0.050557   0.000007
    57  H    0.135788  -0.004632
    58  H    0.094538   0.001300
    59  H    0.093052   0.001310
    60  H    0.134010   0.000215
    61  H    0.124904  -0.000006
    62  H    0.106139  -0.000039
    63  H    0.104286  -0.000036
    64  H    0.144809   0.000019
    65  H    0.098254  -0.000139
    66  H    0.152672  -0.000078
    67  H    0.107684   0.000079
    68  H    0.095684  -0.000010
    69  H    0.298579   0.000007
    70  H    0.129416  -0.003971
    71  H    0.077884   0.001222
    72  H    0.109252   0.000847
    73  H    0.161681   0.000209
    74  H    0.103827   0.000977
    75  H    0.301936  -0.000014
    76  H    0.098039   0.004006
    77  H    0.115815   0.000089
    78  H    0.104874   0.005468
    79  H    0.107272   0.005615
    80  H    0.067134   0.002107
    81  H    0.101233   0.005406
    82  H    0.104590   0.001224
    83  H    0.093704   0.004539
    84  H    0.096480   0.001912
    85  H    0.081114  -0.006303
    86  H    0.091663  -0.006055
    87  H    0.066551   0.002524
    88  H    0.067433   0.000302
    89  H    0.095134   0.001816
    90  H    0.102823   0.004567
    91  H    0.092359   0.004051
    92  H    0.079348  -0.000332
    93  H    0.064327  -0.000239
    94  H    0.106461   0.004213
    95  H    0.106798  -0.000164
    96  H    0.106993   0.004157
    97  H    0.057096  -0.003488
    98  H    0.054982  -0.003015
 Sum of Mulliken charges =  -1.00000   1.00000

 Dipole moment (field-independent basis, Debye):
    X=              0.4561    Y=             -2.7226    Z=              1.8706  Tot=              3.3346
 Quadrupole moment (field-independent basis, Debye-Ang):
   XX=           -528.7899   YY=           -269.8430   ZZ=           -271.1529
   XY=              8.7966   XZ=             38.6583   YZ=              3.2426

 Normal termination of Gaussian 16 at Sun Nov 24 00:14:18 2019.
