 Gaussian 16, Revision A.03,
 Gaussian 16:  ES64L-G16RevA.03 25-Dec-2016

 --------------------------------------------------------
 # wB97XD/Def2TZVP iop(3/107=0075000000,3/108=0075000000)
 --------------------------------------------------------

 -----
 TITLE
 -----
 Symbolic Z-matrix:
 Charge = -1 Multiplicity = 2

                         Standard orientation:
 ---------------------------------------------------------------------
 Center     Atomic      Atomic             Coordinates (Angstroms)
 Number     Number       Type             X           Y           Z
 ---------------------------------------------------------------------
      1          8           0      -13.948961   -2.278340    0.878873
      2          8           0       14.729613    0.973715    0.673373
      3          6           0      -11.793458    0.158115    1.297867
      4          6           0      -10.956528    0.198282   -0.018816
      5          6           0      -11.932050   -1.306990    1.753815
      6          6           0      -12.522109   -2.257207    0.712206
      7          6           0      -11.474387   -0.794726   -1.051945
      8          6           0       11.143643    0.134844    1.694433
      9          6           0      -11.095383    0.962617    2.404370
     10          6           0      -13.168972    0.797157    1.033745
     11          6           0       12.514731    0.840222    1.710720
     12          6           0      -12.144216   -1.889924   -0.696151
     13          6           0       13.459331    0.328938    0.634342
     14          6           0       10.624052   -0.022945    0.252187
     15          6           0       -9.483392   -0.055480    0.179098
     16          6           0       12.850521    0.600299   -0.726588
     17          6           0       11.392957    0.218044   -0.827814
     18          6           0       10.177098    0.993725    2.538189
     19          6           0       11.250699   -1.260024    2.349050
     20          6           0      -11.157392   -0.479209   -2.486379
     21          6           0       -8.511847    0.805132   -0.151427
     22          6           0        9.222860   -0.466998    0.139100
     23          6           0       10.900607    0.185454   -2.251954
     24          6           0       -7.077559    0.594290   -0.004269
     25          6           0        8.795965   -1.522655   -0.570970
     26          6           0       -6.611476   -0.715756    0.569797
     27          6           0        7.410238   -1.976624   -0.708568
     28          6           0       -6.239560    1.589357   -0.393367
     29          6           0        7.247918   -3.463036   -0.901454
     30          6           0        6.377997   -1.099260   -0.675425
     31          6           0       -4.803936    1.607976   -0.344978
     32          6           0        4.972218   -1.393134   -0.740828
     33          6           0       -4.063345    2.663666   -0.751327
     34          6           0       -2.611642    2.777335   -0.760128
     35          6           0        4.014825   -0.436206   -0.719601
     36          6           0        2.585146   -0.645323   -0.774470
     37          6           0       -2.089110    4.192619   -0.769295
     38          6           0       -1.808499    1.680551   -0.776030
     39          6           0        1.771862    0.447913   -0.739010
     40          6           0        2.072311   -2.057835   -0.869392
     41          6           0       -0.377608    1.640092   -0.739745
     42          6           0        0.341869    0.489594   -0.782500
     43          1           0      -11.061511    1.202793   -0.440528
     44          1           0      -12.547590   -1.363279    2.653025
     45          1           0      -10.944215   -1.680605    2.033233
     46          1           0      -12.145143   -3.267760    0.919989
     47          1           0      -10.132322    0.530840    2.677815
     48          1           0      -10.917162    1.991965    2.086942
     49          1           0      -11.718350    0.992228    3.300327
     50          1           0      -13.697837    0.309028    0.218134
     51          1           0      -13.799726    0.725853    1.920623
     52          1           0      -13.053523    1.855055    0.787165
     53          1           0       12.379544    1.913837    1.553849
     54          1           0       12.964560    0.718122    2.700877
     55          1           0      -12.470854   -2.582386   -1.468484
     56          1           0       13.599101   -0.752689    0.751007
     57          1           0       -9.225050   -1.025044    0.590359
     58          1           0       13.415964    0.072036   -1.498902
     59          1           0       12.964875    1.666589   -0.952602
     60          1           0        9.232726    0.484920    2.729728
     61          1           0        9.963149    1.944498    2.047350
     62          1           0       10.629457    1.210556    3.507743
     63          1           0       11.959110   -1.899053    1.821384
     64          1           0       10.284703   -1.765509    2.341031
     65          1           0       11.577093   -1.172229    3.387706
     66          1           0      -10.083928   -0.332475   -2.624708
     67          1           0      -11.646744    0.450999   -2.788427
     68          1           0      -11.486508   -1.271418   -3.157693
     69          1           0      -14.332262   -2.743619    0.133903
     70          1           0        8.491614    0.075657    0.728686
     71          1           0       -8.801471    1.764709   -0.571205
     72          1           0       11.293870   -0.686012   -2.783299
     73          1           0        9.817053    0.163501   -2.325718
     74          1           0       11.268924    1.065376   -2.786571
     75          1           0       15.129139    0.800174    1.526654
     76          1           0        9.543461   -2.138377   -1.063093
     77          1           0       -5.529767   -0.782101    0.640858
     78          1           0       -7.019861   -0.863294    1.572254
     79          1           0       -6.957588   -1.550369   -0.044357
     80          1           0       -6.700324    2.488257   -0.793472
     81          1           0        7.561154   -4.005540   -0.005426
     82          1           0        6.227589   -3.756592   -1.133419
     83          1           0        7.886522   -3.808171   -1.718429
     84          1           0        6.628459   -0.045619   -0.602003
     85          1           0       -4.294804    0.738561    0.052018
     86          1           0        4.671575   -2.431239   -0.801657
     87          1           0       -4.600432    3.549211   -1.081838
     88          1           0        4.336435    0.599306   -0.652629
     89          1           0       -1.012788    4.251711   -0.904556
     90          1           0       -2.340894    4.702626    0.164171
     91          1           0       -2.556254    4.760720   -1.577393
     92          1           0       -2.292978    0.711400   -0.836627
     93          1           0        2.260862    1.415617   -0.669712
     94          1           0        2.401361   -2.646509   -0.010040
     95          1           0        0.988097   -2.107541   -0.907830
     96          1           0        2.458778   -2.548993   -1.765310
     97          1           0        0.166707    2.574875   -0.666459
     98          1           0       -0.203481   -0.444920   -0.851350
 ---------------------------------------------------------------------

 SCF Done:  E(UwB97XD) =  -1708.83212904     A.U. after   20 cycles

 Alpha virt. eigenvalues --    0.46914   0.47025   0.47281   0.47441   0.47506
 Alpha virt. eigenvalues --    0.47649   0.48191   0.48285   0.48553   0.48920
 Alpha virt. eigenvalues --    0.49166   0.49226   0.49513   0.49680   0.49909

  Beta  occ. eigenvalues --  -19.13536 -19.13074 -10.21894 -10.21607 -10.18397
  Beta  occ. eigenvalues --  -10.17504 -10.17481 -10.16610 -10.16170 -10.16133
  Beta  occ. eigenvalues --  -10.16021 -10.15935 -10.15743 -10.15717 -10.15487
  Beta  occ. eigenvalues --  -10.15332 -10.15234 -10.14838 -10.14473 -10.14426
  Beta  occ. eigenvalues --  -10.14198 -10.14009 -10.13757 -10.13444 -10.13399
  Beta  occ. eigenvalues --  -10.13335 -10.13326 -10.13202 -10.13111 -10.12882
  Beta  occ. eigenvalues --  -10.12555 -10.12436 -10.12179 -10.12178 -10.12115
  Beta  occ. eigenvalues --  -10.12074 -10.11554 -10.11389 -10.11304 -10.11204
  Beta  occ. eigenvalues --  -10.11155 -10.11005  -1.00884  -1.00250  -0.82641
  Beta  occ. eigenvalues --   -0.82635  -0.77445  -0.77374  -0.76468  -0.76449
  Beta  occ. eigenvalues --   -0.76051  -0.75313  -0.73715  -0.73293  -0.71736
  Beta  occ. eigenvalues --   -0.70535  -0.69479  -0.68300  -0.67539  -0.66220
  Beta  occ. eigenvalues --   -0.66073  -0.65640  -0.65178  -0.64788  -0.64383
  Beta  occ. eigenvalues --   -0.63783  -0.62922  -0.62531  -0.59886  -0.58528
  Beta  occ. eigenvalues --   -0.58039  -0.55712  -0.54606  -0.53815  -0.53072
  Beta  occ. eigenvalues --   -0.52152  -0.50375  -0.49718  -0.49048  -0.48139
  Beta  occ. eigenvalues --   -0.47427  -0.46819  -0.46513  -0.45954  -0.45589
  Beta  occ. eigenvalues --   -0.44444  -0.44151  -0.43797  -0.43491  -0.42905
  Beta  occ. eigenvalues --   -0.42090  -0.41524  -0.41380  -0.40811  -0.40022
  Beta  occ. eigenvalues --   -0.39784  -0.39696  -0.39293  -0.38722  -0.38119
  Beta  occ. eigenvalues --   -0.38017  -0.37430  -0.37300  -0.36876  -0.36627
  Beta  occ. eigenvalues --   -0.36550  -0.36411  -0.36339  -0.36255  -0.35999
  Beta  occ. eigenvalues --   -0.35869  -0.35503  -0.35297  -0.35249  -0.35067
  Beta  occ. eigenvalues --   -0.34537  -0.33824  -0.33671  -0.33530  -0.33045
  Beta  occ. eigenvalues --   -0.33016  -0.32656  -0.32371  -0.32065  -0.31842
  Beta  occ. eigenvalues --   -0.31684  -0.31466  -0.31288  -0.30674  -0.30519
  Beta  occ. eigenvalues --   -0.30459  -0.29844  -0.29502  -0.28985  -0.28279
  Beta  occ. eigenvalues --   -0.28192  -0.28038  -0.27851  -0.27241  -0.27138
  Beta  occ. eigenvalues --   -0.26610  -0.26394  -0.26239  -0.25833  -0.25537
  Beta  occ. eigenvalues --   -0.24953  -0.24566  -0.24357  -0.23157  -0.22224
  Beta  occ. eigenvalues --   -0.21406  -0.20091  -0.18532  -0.15944  -0.13054
  Beta  occ. eigenvalues --   -0.08954
  Beta virt. eigenvalues --    0.06084   0.08515   0.10868   0.12234   0.14537
  Beta virt. eigenvalues --    0.14910   0.15481   0.16361   0.16687   0.17060
  Beta virt. eigenvalues --    0.17737   0.17778   0.18584   0.18810   0.18845

 Mulliken charges and spin densities:
               1          2
     1  O   -0.507431   0.000291
     2  O   -0.494108   0.000020
     3  C    0.068381   0.003678
     4  C    0.256010  -0.006976
     5  C   -0.269609   0.000235
     6  C    0.349277  -0.000334
     7  C   -0.009739   0.001999
     8  C    0.147312   0.003769
     9  C   -0.301503   0.001066
    10  C   -0.340027   0.000334
    11  C   -0.196593   0.000067
    12  C   -0.339495   0.006793
    13  C    0.160616   0.000339
    14  C    0.027044  -0.019306
    15  C   -0.457578   0.115248
    16  C   -0.112991  -0.001849
    17  C   -0.021824   0.028442
    18  C   -0.378226  -0.000358
    19  C   -0.367702   0.000110
    20  C   -0.340498   0.000606
    21  C   -0.101998  -0.037476
    22  C   -0.342160   0.092950
    23  C   -0.354638  -0.001638
    24  C    0.056476   0.132141
    25  C   -0.204143  -0.031744
    26  C   -0.348033  -0.006000
    27  C    0.075328   0.131307
    28  C   -0.100249  -0.041852
    29  C   -0.316311  -0.006082
    30  C   -0.147798  -0.044081
    31  C   -0.098490   0.137261
    32  C   -0.110845   0.131645
    33  C   -0.218270  -0.004781
    34  C    0.057042   0.123210
    35  C   -0.186852  -0.014040
    36  C    0.074124   0.102184
    37  C   -0.313290  -0.004280
    38  C   -0.138313   0.017142
    39  C   -0.115729   0.023877
    40  C   -0.358491  -0.003399
    41  C   -0.121145   0.078684
    42  C   -0.142976   0.068707
    43  H    0.042658   0.000115
    44  H    0.081271   0.000013
    45  H    0.102062   0.000326
    46  H    0.032463   0.000097
    47  H    0.129678  -0.000064
    48  H    0.099158   0.000013
    49  H    0.096222   0.000019
    50  H    0.126832  -0.000022
    51  H    0.092829   0.000294
    52  H    0.089935   0.000008
    53  H    0.085678  -0.000003
    54  H    0.071495   0.000067
    55  H    0.069670   0.000052
    56  H    0.041835  -0.000016
    57  H    0.142442  -0.005735
    58  H    0.082951   0.001473
    59  H    0.084140   0.001489
    60  H    0.127677   0.000281
    61  H    0.117802   0.000002
    62  H    0.099078  -0.000042
    63  H    0.097921  -0.000039
    64  H    0.140973   0.000017
    65  H    0.090530  -0.000134
    66  H    0.147219  -0.000071
    67  H    0.098958   0.000121
    68  H    0.086812  -0.000006
    69  H    0.299240   0.000007
    70  H    0.129220  -0.004753
    71  H    0.068775   0.001226
    72  H    0.099507   0.000974
    73  H    0.159140   0.000193
    74  H    0.095591   0.001129
    75  H    0.302196  -0.000016
    76  H    0.093669   0.003553
    77  H    0.106659   0.000023
    78  H    0.099074   0.005620
    79  H    0.100833   0.005638
    80  H    0.060419   0.001927
    81  H    0.092722   0.005397
    82  H    0.095788   0.001140
    83  H    0.085799   0.004519
    84  H    0.093169   0.001431
    85  H    0.080897  -0.007103
    86  H    0.099944  -0.006660
    87  H    0.062037   0.001227
    88  H    0.062053  -0.000066
    89  H    0.088804   0.001387
    90  H    0.095178   0.004461
    91  H    0.086050   0.003727
    92  H    0.076051  -0.001154
    93  H    0.059688  -0.000543
    94  H    0.101425   0.003927
    95  H    0.099703  -0.000310
    96  H    0.101978   0.003911
    97  H    0.056851  -0.003772
    98  H    0.054692  -0.003205
 Sum of Mulliken charges =  -1.00000   1.00000

 Dipole moment (field-independent basis, Debye):
    X=              0.3892    Y=             -2.4631    Z=              1.8246  Tot=              3.0899
 Quadrupole moment (field-independent basis, Debye-Ang):
   XX=           -538.1048   YY=           -267.2154   ZZ=           -269.5658
   XY=              9.2108   XZ=             38.5710   YZ=              3.0668

 Normal termination of Gaussian 16 at Mon Nov 25 01:37:25 2019.
