 Gaussian 16, Revision A.03,
 Gaussian 16:  ES64L-G16RevA.03 25-Dec-2016

 --------------------------------------------------------
 # wB97XD/Def2TZVP iop(3/107=0100000000,3/108=0100000000)
 --------------------------------------------------------

 -----
 TITLE
 -----
 Symbolic Z-matrix:
 Charge = -1 Multiplicity = 2

                         Standard orientation:
 ---------------------------------------------------------------------
 Center     Atomic      Atomic             Coordinates (Angstroms)
 Number     Number       Type             X           Y           Z
 ---------------------------------------------------------------------
      1          8           0      -13.918025   -2.303245    0.854883
      2          8           0       14.711909    0.951923    0.687871
      3          6           0      -11.781274    0.129595    1.296566
      4          6           0      -10.942059    0.185380   -0.014817
      5          6           0      -11.908191   -1.337669    1.743028
      6          6           0      -12.491957   -2.282802    0.695656
      7          6           0      -11.443969   -0.806753   -1.054180
      8          6           0       11.131410    0.102669    1.699473
      9          6           0      -11.094207    0.932821    2.408102
     10          6           0      -13.160077    0.756803    1.032161
     11          6           0       12.500022    0.808264    1.723008
     12          6           0      -12.107454   -1.908311   -0.708113
     13          6           0       13.443237    0.308309    0.642118
     14          6           0       10.610460   -0.035243    0.258033
     15          6           0       -9.468651   -0.053749    0.188848
     16          6           0       12.835242    0.595199   -0.714513
     17          6           0       11.378242    0.216612   -0.819245
     18          6           0       10.166182    0.946715    2.555722
     19          6           0       11.241162   -1.299567    2.332865
     20          6           0      -11.117574   -0.482173   -2.482855
     21          6           0       -8.505677    0.813912   -0.143081
     22          6           0        9.209276   -0.475547    0.140785
     23          6           0       10.885806    0.199102   -2.242179
     24          6           0       -7.070201    0.615053    0.011298
     25          6           0        8.781351   -1.516029   -0.588538
     26          6           0       -6.599351   -0.686136    0.597889
     27          6           0        7.393803   -1.962471   -0.731945
     28          6           0       -6.238549    1.610778   -0.382176
     29          6           0        7.225111   -3.444720   -0.939256
     30          6           0        6.367921   -1.081020   -0.690971
     31          6           0       -4.802151    1.636400   -0.327153
     32          6           0        4.960161   -1.369315   -0.761709
     33          6           0       -4.066051    2.689437   -0.741059
     34          6           0       -2.613241    2.803456   -0.743116
     35          6           0        4.008723   -0.409862   -0.730598
     36          6           0        2.577453   -0.615244   -0.790794
     37          6           0       -2.091458    4.217229   -0.728653
     38          6           0       -1.813706    1.707535   -0.773598
     39          6           0        1.767429    0.476534   -0.743519
     40          6           0        2.065018   -2.024974   -0.904060
     41          6           0       -0.381277    1.666614   -0.733422
     42          6           0        0.335861    0.518384   -0.790189
     43          1           0      -11.055680    1.191481   -0.432444
     44          1           0      -12.524032   -1.403671    2.641975
     45          1           0      -10.917144   -1.706214    2.019747
     46          1           0      -12.115664   -3.294387    0.900436
     47          1           0      -10.128991    0.505964    2.683434
     48          1           0      -10.921437    1.964825    2.094876
     49          1           0      -11.721850    0.954154    3.301401
     50          1           0      -13.679858    0.271462    0.208548
     51          1           0      -13.794640    0.669487    1.915306
     52          1           0      -13.052663    1.818560    0.797282
     53          1           0       12.363917    1.883763    1.576293
     54          1           0       12.950265    0.675981    2.712229
     55          1           0      -12.423453   -2.599942   -1.486026
     56          1           0       13.581658   -0.775190    0.747231
     57          1           0       -9.202306   -1.019074    0.606576
     58          1           0       13.399736    0.074813   -1.493297
     59          1           0       12.951183    1.664335   -0.927805
     60          1           0        9.223297    0.432647    2.742551
     61          1           0        9.949113    1.903651    2.077602
     62          1           0       10.621170    1.151304    3.527075
     63          1           0       11.952413   -1.928653    1.796336
     64          1           0       10.275925   -1.807195    2.315612
     65          1           0       11.565927   -1.225340    3.373442
     66          1           0      -10.043775   -0.325148   -2.609750
     67          1           0      -11.612176    0.445748   -2.784129
     68          1           0      -11.433922   -1.274266   -3.160810
     69          1           0      -14.298915   -2.758642    0.102274
     70          1           0        8.478594    0.056555    0.741533
     71          1           0       -8.802392    1.768880   -0.569493
     72          1           0       11.272982   -0.671354   -2.780073
     73          1           0        9.801720    0.185116   -2.315929
     74          1           0       11.261321    1.080563   -2.769587
     75          1           0       15.109749    0.773591    1.541252
     76          1           0        9.527022   -2.123074   -1.095154
     77          1           0       -5.517367   -0.744732    0.676044
     78          1           0       -7.013924   -0.828215    1.598884
     79          1           0       -6.937111   -1.527610   -0.011977
     80          1           0       -6.702113    2.504079   -0.792471
     81          1           0        7.537974   -3.996963   -0.048915
     82          1           0        6.202960   -3.731889   -1.172788
     83          1           0        7.861879   -3.783692   -1.760527
     84          1           0        6.622848   -0.028863   -0.605944
     85          1           0       -4.289858    0.773672    0.081650
     86          1           0        4.655474   -2.405980   -0.835199
     87          1           0       -4.603424    3.570878   -1.083351
     88          1           0        4.333322    0.624209   -0.650743
     89          1           0       -1.013795    4.278373   -0.854834
     90          1           0       -2.351414    4.714006    0.209840
     91          1           0       -2.553429    4.795960   -1.532514
     92          1           0       -2.298877    0.739395   -0.851227
     93          1           0        2.256213    1.443727   -0.660824
     94          1           0        2.393648   -2.624055   -0.051445
     95          1           0        0.980549   -2.074190   -0.944807
     96          1           0        2.453935   -2.504751   -1.805379
     97          1           0        0.162965    2.600681   -0.645344
     98          1           0       -0.209381   -0.415499   -0.873529
 ---------------------------------------------------------------------

 SCF Done:  E(UwB97XD) =  -1708.66379746     A.U. after   20 cycles

 Alpha virt. eigenvalues --    0.47352   0.47496   0.47752   0.47846   0.47904
 Alpha virt. eigenvalues --    0.48105   0.48645   0.48713   0.48904   0.49242
 Alpha virt. eigenvalues --    0.49624   0.49669   0.49927   0.50108   0.50374

  Beta  occ. eigenvalues --  -19.14794 -19.14318 -10.23057 -10.22788 -10.19550
  Beta  occ. eigenvalues --  -10.18716 -10.18624 -10.17791 -10.17405 -10.17326
  Beta  occ. eigenvalues --  -10.17214 -10.17100 -10.16951 -10.16895 -10.16698
  Beta  occ. eigenvalues --  -10.16518 -10.16427 -10.16034 -10.15653 -10.15596
  Beta  occ. eigenvalues --  -10.15463 -10.15263 -10.14916 -10.14656 -10.14600
  Beta  occ. eigenvalues --  -10.14580 -10.14488 -10.14358 -10.14328 -10.14098
  Beta  occ. eigenvalues --  -10.13613 -10.13487 -10.13329 -10.13272 -10.13152
  Beta  occ. eigenvalues --  -10.13059 -10.12616 -10.12484 -10.12377 -10.12232
  Beta  occ. eigenvalues --  -10.12181 -10.12002  -1.02234  -1.01586  -0.84061
  Beta  occ. eigenvalues --   -0.84059  -0.78797  -0.78725  -0.77831  -0.77821
  Beta  occ. eigenvalues --   -0.77298  -0.76576  -0.75049  -0.74626  -0.72986
  Beta  occ. eigenvalues --   -0.71830  -0.70771  -0.69582  -0.68776  -0.67518
  Beta  occ. eigenvalues --   -0.67366  -0.66954  -0.66465  -0.66117  -0.65679
  Beta  occ. eigenvalues --   -0.64929  -0.64196  -0.63779  -0.61119  -0.59814
  Beta  occ. eigenvalues --   -0.59332  -0.56918  -0.55881  -0.55103  -0.54363
  Beta  occ. eigenvalues --   -0.53369  -0.51609  -0.51020  -0.50334  -0.49297
  Beta  occ. eigenvalues --   -0.48688  -0.48052  -0.47698  -0.47233  -0.46858
  Beta  occ. eigenvalues --   -0.45713  -0.45449  -0.45027  -0.44789  -0.44170
  Beta  occ. eigenvalues --   -0.43326  -0.42798  -0.42634  -0.42069  -0.41228
  Beta  occ. eigenvalues --   -0.41026  -0.40950  -0.40555  -0.39945  -0.39330
  Beta  occ. eigenvalues --   -0.39239  -0.38660  -0.38501  -0.38118  -0.37854
  Beta  occ. eigenvalues --   -0.37772  -0.37639  -0.37569  -0.37460  -0.37201
  Beta  occ. eigenvalues --   -0.37051  -0.36670  -0.36416  -0.36369  -0.36253
  Beta  occ. eigenvalues --   -0.35714  -0.35003  -0.34870  -0.34692  -0.34259
  Beta  occ. eigenvalues --   -0.34184  -0.33833  -0.33569  -0.33235  -0.32950
  Beta  occ. eigenvalues --   -0.32857  -0.32646  -0.32458  -0.31839  -0.31708
  Beta  occ. eigenvalues --   -0.31647  -0.30986  -0.30658  -0.30141  -0.29468
  Beta  occ. eigenvalues --   -0.29367  -0.29213  -0.28997  -0.28408  -0.28301
  Beta  occ. eigenvalues --   -0.27752  -0.27492  -0.27377  -0.27016  -0.26539
  Beta  occ. eigenvalues --   -0.26121  -0.25759  -0.25534  -0.24358  -0.23423
  Beta  occ. eigenvalues --   -0.22582  -0.21259  -0.19675  -0.17020  -0.14082
  Beta  occ. eigenvalues --   -0.09848
  Beta virt. eigenvalues --    0.06740   0.09099   0.11489   0.12863   0.15035
  Beta virt. eigenvalues --    0.15172   0.15808   0.16559   0.17166   0.17346
  Beta virt. eigenvalues --    0.17867   0.17874   0.18831   0.18996   0.19110

 Mulliken charges and spin densities:
               1          2
     1  O   -0.498762   0.000275
     2  O   -0.484206   0.000025
     3  C    0.085668   0.003470
     4  C    0.243901  -0.006390
     5  C   -0.284415   0.000239
     6  C    0.328605  -0.000369
     7  C    0.000847   0.001507
     8  C    0.165509   0.003510
     9  C   -0.313740   0.000995
    10  C   -0.354654   0.000291
    11  C   -0.212296   0.000087
    12  C   -0.345631   0.006440
    13  C    0.141899   0.000264
    14  C    0.038138  -0.018728
    15  C   -0.441515   0.112109
    16  C   -0.124348  -0.001573
    17  C   -0.027210   0.027326
    18  C   -0.393791  -0.000269
    19  C   -0.384861   0.000102
    20  C   -0.361585   0.000684
    21  C   -0.122054  -0.036968
    22  C   -0.337975   0.089855
    23  C   -0.368436  -0.001564
    24  C    0.067700   0.132628
    25  C   -0.213629  -0.032611
    26  C   -0.358937  -0.005739
    27  C    0.084413   0.132345
    28  C   -0.106966  -0.045424
    29  C   -0.332962  -0.005940
    30  C   -0.153969  -0.047569
    31  C   -0.098918   0.139765
    32  C   -0.106047   0.135621
    33  C   -0.225275  -0.008974
    34  C    0.067185   0.128406
    35  C   -0.196338  -0.017612
    36  C    0.083991   0.107031
    37  C   -0.330192  -0.004077
    38  C   -0.147277   0.014131
    39  C   -0.124491   0.021449
    40  C   -0.369322  -0.003542
    41  C   -0.120812   0.080922
    42  C   -0.144936   0.071316
    43  H    0.049491   0.000129
    44  H    0.087225   0.000016
    45  H    0.105574   0.000332
    46  H    0.041496   0.000093
    47  H    0.130553   0.000000
    48  H    0.103171   0.000003
    49  H    0.100353   0.000030
    50  H    0.127115  -0.000011
    51  H    0.097475   0.000284
    52  H    0.093955   0.000009
    53  H    0.090322  -0.000004
    54  H    0.077334   0.000062
    55  H    0.076512   0.000089
    56  H    0.046804  -0.000003
    57  H    0.138982  -0.005131
    58  H    0.089551   0.001392
    59  H    0.089275   0.001406
    60  H    0.131371   0.000249
    61  H    0.122038  -0.000002
    62  H    0.103247  -0.000040
    63  H    0.101669  -0.000037
    64  H    0.143376   0.000020
    65  H    0.095037  -0.000139
    66  H    0.150537  -0.000075
    67  H    0.104036   0.000098
    68  H    0.091905  -0.000009
    69  H    0.298972   0.000007
    70  H    0.129258  -0.004330
    71  H    0.074008   0.001213
    72  H    0.105254   0.000915
    73  H    0.160760   0.000205
    74  H    0.100346   0.001053
    75  H    0.302151  -0.000015
    76  H    0.096438   0.003792
    77  H    0.111846   0.000049
    78  H    0.102540   0.005550
    79  H    0.104614   0.005635
    80  H    0.064197   0.002005
    81  H    0.097767   0.005384
    82  H    0.100830   0.001167
    83  H    0.090458   0.004532
    84  H    0.095113   0.001695
    85  H    0.080719  -0.006675
    86  H    0.095395  -0.006318
    87  H    0.064777   0.001846
    88  H    0.065266   0.000112
    89  H    0.092549   0.001599
    90  H    0.099828   0.004501
    91  H    0.089917   0.003871
    92  H    0.077893  -0.000737
    93  H    0.062578  -0.000388
    94  H    0.104568   0.004063
    95  H    0.103898  -0.000244
    96  H    0.105122   0.004028
    97  H    0.057169  -0.003612
    98  H    0.055061  -0.003104
 Sum of Mulliken charges =  -1.00000   1.00000

 Dipole moment (field-independent basis, Debye):
    X=              0.4406    Y=             -2.5770    Z=              1.8367  Tot=              3.1951
 Quadrupole moment (field-independent basis, Debye-Ang):
   XX=           -533.6967   YY=           -268.5736   ZZ=           -270.4044
   XY=              9.1125   XZ=             38.6516   YZ=              3.1802

 Normal termination of Gaussian 16 at Sat Nov 16 14:32:37 2019.
