 Gaussian 16, Revision A.03,
 Gaussian 16:  ES64L-G16RevA.03 25-Dec-2016

 --------------------------------------------------------
 # wB97XD/Def2TZVP iop(3/107=0118700000,3/108=0118700000)
 --------------------------------------------------------

 -----
 TITLE
 -----
 Symbolic Z-matrix:
 Charge = -1 Multiplicity = 2

                         Standard orientation:
 ---------------------------------------------------------------------
 Center     Atomic      Atomic             Coordinates (Angstroms)
 Number     Number       Type             X           Y           Z
 ---------------------------------------------------------------------
      1          8           0      -13.896519   -2.321940    0.841404
      2          8           0       14.699123    0.936700    0.708882
      3          6           0      -11.773341    0.110467    1.296729
      4          6           0      -10.932546    0.175952   -0.011102
      5          6           0      -11.892248   -1.357947    1.737777
      6          6           0      -12.471074   -2.300660    0.687015
      7          6           0      -11.423955   -0.816017   -1.054130
      8          6           0       11.122814    0.069104    1.707073
      9          6           0      -11.094037    0.913652    2.411363
     10          6           0      -13.154481    0.729326    1.031625
     11          6           0       12.489645    0.774939    1.741596
     12          6           0      -12.082702   -1.921682   -0.713974
     13          6           0       13.432004    0.293396    0.652923
     14          6           0       10.601106   -0.043353    0.265173
     15          6           0       -9.458898   -0.053268    0.196542
     16          6           0       12.823900    0.602747   -0.697732
     17          6           0       11.367553    0.226008   -0.807838
     18          6           0       10.158166    0.895801    2.578424
     19          6           0       11.234417   -1.342988    2.314645
     20          6           0      -11.092135   -0.485757   -2.479320
     21          6           0       -8.501739    0.818935   -0.136104
     22          6           0        9.200027   -0.481395    0.141223
     23          6           0       10.874780    0.230407   -2.229942
     24          6           0       -7.065187    0.628297    0.023204
     25          6           0        8.772914   -1.506924   -0.607608
     26          6           0       -6.591034   -0.667011    0.618051
     27          6           0        7.384313   -1.948633   -0.758229
     28          6           0       -6.238128    1.624474   -0.372999
     29          6           0        7.212587   -3.427439   -0.980721
     30          6           0        6.362383   -1.065338   -0.709646
     31          6           0       -4.800899    1.655416   -0.313569
     32          6           0        4.953160   -1.350286   -0.786185
     33          6           0       -4.068313    2.706902   -0.732070
     34          6           0       -2.614569    2.821585   -0.729238
     35          6           0        4.005353   -0.390004   -0.745424
     36          6           0        2.572814   -0.593072   -0.810780
     37          6           0       -2.093826    4.234329   -0.693752
     38          6           0       -1.817379    1.726814   -0.773436
     39          6           0        1.764808    0.497072   -0.751723
     40          6           0        2.061207   -2.000596   -0.942144
     41          6           0       -0.383607    1.685396   -0.730554
     42          6           0        0.331907    0.539243   -0.800862
     43          1           0      -11.051965    1.182786   -0.426495
     44          1           0      -12.508590   -1.430110    2.636285
     45          1           0      -10.899108   -1.722560    2.013395
     46          1           0      -12.094272   -3.312482    0.890228
     47          1           0      -10.127340    0.490619    2.688460
     48          1           0      -10.925231    1.947319    2.100514
     49          1           0      -11.724913    0.929708    3.302747
     50          1           0      -13.668592    0.244543    0.203821
     51          1           0      -13.791113    0.632735    1.912608
     52          1           0      -13.052747    1.793203    0.802819
     53          1           0       12.352507    1.852833    1.611806
     54          1           0       12.940527    0.626904    2.728637
     55          1           0      -12.391759   -2.613052   -1.495187
     56          1           0       13.570575   -0.791984    0.740064
     57          1           0       -9.187327   -1.015671    0.618602
     58          1           0       13.388118    0.095669   -1.485711
     59          1           0       12.939604    1.675690   -0.892376
     60          1           0        9.216372    0.376601    2.757743
     61          1           0        9.938815    1.860584    2.116860
     62          1           0       10.614751    1.084288    3.552534
     63          1           0       11.946915   -1.961366    1.766958
     64          1           0       10.269557   -1.851498    2.287783
     65          1           0       11.558739   -1.286444    3.356708
     66          1           0      -10.018335   -0.321875   -2.599313
     67          1           0      -11.590558    0.440425   -2.780148
     68          1           0      -11.400255   -1.277945   -3.161221
     69          1           0      -14.275394   -2.773293    0.085151
     70          1           0        8.468779    0.039255    0.751795
     71          1           0       -8.803109    1.770767   -0.566941
     72          1           0       11.258762   -0.634143   -2.779818
     73          1           0        9.790385    0.221148   -2.303543
     74          1           0       11.253911    1.117822   -2.744880
     75          1           0       15.096611    0.747052    1.560169
     76          1           0        9.518111   -2.103894   -1.127439
     77          1           0       -5.508958   -0.720003    0.701458
     78          1           0       -7.010140   -0.805922    1.617791
     79          1           0       -6.922534   -1.512984    0.010685
     80          1           0       -6.703709    2.513917   -0.789977
     81          1           0        7.521418   -3.988994   -0.094675
     82          1           0        6.190334   -3.709776   -1.220658
     83          1           0        7.851749   -3.759521   -1.803131
     84          1           0        6.619679   -0.014522   -0.612516
     85          1           0       -4.286085    0.797381    0.102734
     86          1           0        4.646456   -2.385709   -0.872221
     87          1           0       -4.606060    3.585469   -1.082037
     88          1           0        4.331441    0.642807   -0.652835
     89          1           0       -1.015425    4.297647   -0.814392
     90          1           0       -2.358760    4.718396    0.250094
     91          1           0       -2.553110    4.823168   -1.492031
     92          1           0       -2.302919    0.759830   -0.866024
     93          1           0        2.253207    1.463549   -0.656093
     94          1           0        2.389284   -2.609847   -0.096333
     95          1           0        0.976630   -2.049722   -0.985223
     96          1           0        2.452382   -2.468995   -1.848670
     97          1           0        0.160503    2.618482   -0.628868
     98          1           0       -0.213201   -0.393722   -0.897654
 ---------------------------------------------------------------------

 SCF Done:  E(UwB97XD) =  -1708.57424512     A.U. after   21 cycles

 Alpha virt. eigenvalues --    0.47667   0.47824   0.48066   0.48163   0.48220
 Alpha virt. eigenvalues --    0.48430   0.48982   0.49027   0.49181   0.49475
 Alpha virt. eigenvalues --    0.49913   0.50016   0.50219   0.50430   0.50689

  Beta  occ. eigenvalues --  -19.15721 -19.15239 -10.23932 -10.23669 -10.20415
  Beta  occ. eigenvalues --  -10.19617 -10.19482 -10.18674 -10.18322 -10.18214
  Beta  occ. eigenvalues --  -10.18102 -10.17974 -10.17847 -10.17775 -10.17597
  Beta  occ. eigenvalues --  -10.17403 -10.17318 -10.16926 -10.16538 -10.16471
  Beta  occ. eigenvalues --  -10.16396 -10.16196 -10.15779 -10.15587 -10.15508
  Beta  occ. eigenvalues --  -10.15465 -10.15357 -10.15232 -10.15212 -10.14991
  Beta  occ. eigenvalues --  -10.14394 -10.14259 -10.14179 -10.14108 -10.13868
  Beta  occ. eigenvalues --  -10.13773 -10.13386 -10.13293 -10.13158 -10.12994
  Beta  occ. eigenvalues --  -10.12907 -10.12723  -1.03236  -1.02584  -0.85120
  Beta  occ. eigenvalues --   -0.85115  -0.79801  -0.79732  -0.78850  -0.78842
  Beta  occ. eigenvalues --   -0.78211  -0.77507  -0.76039  -0.75617  -0.73910
  Beta  occ. eigenvalues --   -0.72792  -0.71730  -0.70532  -0.69686  -0.68488
  Beta  occ. eigenvalues --   -0.68334  -0.67933  -0.67429  -0.67105  -0.66649
  Beta  occ. eigenvalues --   -0.65769  -0.65144  -0.64700  -0.62025  -0.60768
  Beta  occ. eigenvalues --   -0.60286  -0.57805  -0.56822  -0.56055  -0.55319
  Beta  occ. eigenvalues --   -0.54257  -0.52514  -0.51975  -0.51281  -0.50138
  Beta  occ. eigenvalues --   -0.49616  -0.48956  -0.48555  -0.48167  -0.47782
  Beta  occ. eigenvalues --   -0.46643  -0.46396  -0.45938  -0.45727  -0.45085
  Beta  occ. eigenvalues --   -0.44226  -0.43721  -0.43540  -0.42983  -0.42100
  Beta  occ. eigenvalues --   -0.41928  -0.41862  -0.41473  -0.40833  -0.40215
  Beta  occ. eigenvalues --   -0.40127  -0.39553  -0.39368  -0.39018  -0.38743
  Beta  occ. eigenvalues --   -0.38658  -0.38530  -0.38465  -0.38333  -0.38072
  Beta  occ. eigenvalues --   -0.37904  -0.37512  -0.37225  -0.37168  -0.37116
  Beta  occ. eigenvalues --   -0.36558  -0.35858  -0.35736  -0.35527  -0.35134
  Beta  occ. eigenvalues --   -0.35030  -0.34686  -0.34430  -0.34076  -0.33768
  Beta  occ. eigenvalues --   -0.33692  -0.33475  -0.33298  -0.32671  -0.32565
  Beta  occ. eigenvalues --   -0.32497  -0.31799  -0.31483  -0.30961  -0.30325
  Beta  occ. eigenvalues --   -0.30208  -0.30051  -0.29811  -0.29245  -0.29122
  Beta  occ. eigenvalues --   -0.28563  -0.28258  -0.28190  -0.27856  -0.27230
  Beta  occ. eigenvalues --   -0.26944  -0.26617  -0.26387  -0.25205  -0.24267
  Beta  occ. eigenvalues --   -0.23413  -0.22072  -0.20468  -0.17752  -0.14780
  Beta  occ. eigenvalues --   -0.10454
  Beta virt. eigenvalues --    0.07198   0.09487   0.11900   0.13274   0.15120
  Beta virt. eigenvalues --    0.15485   0.16062   0.16671   0.17241   0.17730
  Beta virt. eigenvalues --    0.17916   0.17961   0.18931   0.19094   0.19220

 Mulliken charges and spin densities:
               1          2
     1  O   -0.493164   0.000261
     2  O   -0.477801   0.000028
     3  C    0.096023   0.003320
     4  C    0.235283  -0.006035
     5  C   -0.292774   0.000256
     6  C    0.315798  -0.000391
     7  C    0.007689   0.001173
     8  C    0.177060   0.003333
     9  C   -0.320510   0.000949
    10  C   -0.362342   0.000262
    11  C   -0.221494   0.000094
    12  C   -0.348715   0.006179
    13  C    0.130619   0.000216
    14  C    0.043910  -0.018249
    15  C   -0.430520   0.109927
    16  C   -0.131062  -0.001394
    17  C   -0.030385   0.026309
    18  C   -0.402588  -0.000204
    19  C   -0.394258   0.000100
    20  C   -0.373735   0.000731
    21  C   -0.133153  -0.037005
    22  C   -0.335634   0.087575
    23  C   -0.375716  -0.001486
    24  C    0.074282   0.133226
    25  C   -0.217216  -0.033409
    26  C   -0.364875  -0.005604
    27  C    0.089547   0.133478
    28  C   -0.110320  -0.048512
    29  C   -0.342302  -0.005936
    30  C   -0.158177  -0.050384
    31  C   -0.100315   0.141726
    32  C   -0.102751   0.139109
    33  C   -0.228535  -0.012588
    34  C    0.073151   0.132741
    35  C   -0.202201  -0.020549
    36  C    0.090127   0.111085
    37  C   -0.339702  -0.004067
    38  C   -0.153785   0.011720
    39  C   -0.130015   0.019650
    40  C   -0.375125  -0.003699
    41  C   -0.120121   0.082945
    42  C   -0.146258   0.073369
    43  H    0.053679   0.000139
    44  H    0.090701   0.000018
    45  H    0.107515   0.000323
    46  H    0.046798   0.000090
    47  H    0.130809   0.000031
    48  H    0.105344  -0.000003
    49  H    0.102612   0.000037
    50  H    0.126985  -0.000005
    51  H    0.099933   0.000275
    52  H    0.096083   0.000009
    53  H    0.092957  -0.000004
    54  H    0.080672   0.000058
    55  H    0.080449   0.000109
    56  H    0.049690   0.000005
    57  H    0.136524  -0.004750
    58  H    0.093421   0.001323
    59  H    0.092200   0.001335
    60  H    0.133406   0.000223
    61  H    0.124286  -0.000005
    62  H    0.105510  -0.000039
    63  H    0.103711  -0.000037
    64  H    0.144509   0.000020
    65  H    0.097544  -0.000139
    66  H    0.152232  -0.000077
    67  H    0.106872   0.000083
    68  H    0.094833  -0.000010
    69  H    0.298683   0.000007
    70  H    0.129386  -0.004052
    71  H    0.077000   0.001219
    72  H    0.108399   0.000865
    73  H    0.161509   0.000209
    74  H    0.103067   0.000995
    75  H    0.302003  -0.000015
    76  H    0.097710   0.003958
    77  H    0.114906   0.000078
    78  H    0.104372   0.005489
    79  H    0.106681   0.005624
    80  H    0.066441   0.002081
    81  H    0.100497   0.005406
    82  H    0.103754   0.001221
    83  H    0.092988   0.004528
    84  H    0.096211   0.001860
    85  H    0.080931  -0.006393
    86  H    0.092542  -0.006116
    87  H    0.066136   0.002346
    88  H    0.066963   0.000254
    89  H    0.094571   0.001779
    90  H    0.102201   0.004558
    91  H    0.091850   0.003990
    92  H    0.078973  -0.000437
    93  H    0.063966  -0.000274
    94  H    0.106071   0.004175
    95  H    0.106173  -0.000185
    96  H    0.106626   0.004125
    97  H    0.057151  -0.003515
    98  H    0.055024  -0.003039
 Sum of Mulliken charges =  -1.00000   1.00000

 Dipole moment (field-independent basis, Debye):
    X=              0.4626    Y=             -2.6810    Z=              1.8580  Tot=              3.2946
 Quadrupole moment (field-independent basis, Debye-Ang):
   XX=           -530.0493   YY=           -269.5385   ZZ=           -270.9716
   XY=              8.9011   XZ=             38.6702   YZ=              3.2325

 Normal termination of Gaussian 16 at Wed Nov 27 09:14:56 2019.
