 Gaussian 16, Revision A.03,
 Gaussian 16:  ES64L-G16RevA.03 25-Dec-2016

 --------------------------------------------------------
 # wB97XD/Def2TZVP iop(3/107=0050000000,3/108=0050000000)
 --------------------------------------------------------

 -----
 TITLE
 -----
 Symbolic Z-matrix:
 Charge = -1 Multiplicity = 2

                         Standard orientation:
 ---------------------------------------------------------------------
 Center     Atomic      Atomic             Coordinates (Angstroms)
 Number     Number       Type             X           Y           Z
 ---------------------------------------------------------------------
      1          8           0      -13.994705   -2.248309    0.876093
      2          8           0       14.749003    1.017084    0.649032
      3          6           0      -11.807791    0.179829    1.310949
      4          6           0      -10.976662    0.223820   -0.013127
      5          6           0      -11.965701   -1.290781    1.750252
      6          6           0      -12.567400   -2.225653    0.698365
      7          6           0      -11.519178   -0.748339   -1.056536
      8          6           0       11.165215    0.160884    1.687772
      9          6           0      -11.090429    0.960589    2.425817
     10          6           0      -13.176822    0.844911    1.063798
     11          6           0       12.536137    0.872130    1.697741
     12          6           0      -12.199349   -1.840299   -0.709070
     13          6           0       13.479920    0.364913    0.616129
     14          6           0       10.641275   -0.004558    0.245004
     15          6           0       -9.504189   -0.055518    0.169736
     16          6           0       12.862595    0.630782   -0.743935
     17          6           0       11.405293    0.239095   -0.838522
     18          6           0       10.197003    1.022229    2.532010
     19          6           0       11.278668   -1.232890    2.349558
     20          6           0      -11.216228   -0.416638   -2.492610
     21          6           0       -8.520765    0.797328   -0.150336
     22          6           0        9.240155   -0.456323    0.137344
     23          6           0       10.906584    0.202324   -2.262381
     24          6           0       -7.087584    0.566004   -0.019203
     25          6           0        8.817184   -1.529236   -0.550486
     26          6           0       -6.629673   -0.762438    0.523171
     27          6           0        7.433763   -1.995519   -0.680100
     28          6           0       -6.240742    1.561707   -0.394350
     29          6           0        7.282710   -3.487979   -0.849277
     30          6           0        6.393213   -1.124934   -0.660662
     31          6           0       -4.805103    1.568424   -0.357347
     32          6           0        4.989262   -1.427219   -0.720335
     33          6           0       -4.058345    2.628286   -0.748226
     34          6           0       -2.606998    2.739859   -0.766143
     35          6           0        4.024543   -0.474625   -0.712103
     36          6           0        2.595875   -0.688586   -0.760838
     37          6           0       -2.082987    4.156706   -0.792252
     38          6           0       -1.801062    1.641988   -0.773952
     39          6           0        1.779141    0.405662   -0.737541
     40          6           0        2.083243   -2.104454   -0.835412
     41          6           0       -0.371086    1.600481   -0.744447
     42          6           0        0.350034    0.447702   -0.775991
     43          1           0      -11.069085    1.234470   -0.420373
     44          1           0      -12.580181   -1.350234    2.649312
     45          1           0      -10.982874   -1.679290    2.024809
     46          1           0      -12.190986   -3.239597    0.889404
     47          1           0      -10.131621    0.513049    2.686700
     48          1           0      -10.901348    1.992017    2.123272
     49          1           0      -11.705962    0.985261    3.326718
     50          1           0      -13.720487    0.374550    0.248113
     51          1           0      -13.801515    0.776234    1.954758
     52          1           0      -13.047294    1.902898    0.826166
     53          1           0       12.396334    1.944739    1.542516
     54          1           0       12.990768    0.752115    2.685335
     55          1           0      -12.542938   -2.517277   -1.487346
     56          1           0       13.627482   -0.715034    0.732998
     57          1           0       -9.257960   -1.036410    0.559015
     58          1           0       13.427882    0.104255   -1.517080
     59          1           0       12.969313    1.696670   -0.973318
     60          1           0        9.254091    0.512812    2.727004
     61          1           0        9.980007    1.970866    2.039097
     62          1           0       10.649781    1.243541    3.500011
     63          1           0       11.983912   -1.873859    1.820803
     64          1           0       10.313976   -1.739890    2.351359
     65          1           0       11.612097   -1.140489    3.385244
     66          1           0      -10.143318   -0.283550   -2.645124
     67          1           0      -11.696776    0.523762   -2.776139
     68          1           0      -11.565530   -1.194578   -3.170104
     69          1           0      -14.382482   -2.717176    0.136049
     70          1           0        8.506941    0.096860    0.713521
     71          1           0       -8.799612    1.768872   -0.548127
     72          1           0       11.309856   -0.661782   -2.797839
     73          1           0        9.823575    0.165190   -2.331455
     74          1           0       11.258319    1.088844   -2.796972
     75          1           0       15.156797    0.838606    1.497057
     76          1           0        9.567825   -2.151892   -1.027692
     77          1           0       -5.548336   -0.842436    0.580102
     78          1           0       -7.027089   -0.926475    1.527214
     79          1           0       -6.991129   -1.580455   -0.103949
     80          1           0       -6.696574    2.472607   -0.771238
     81          1           0        7.602835   -4.014129    0.053969
     82          1           0        6.264272   -3.793354   -1.072605
     83          1           0        7.920392   -3.841576   -1.663172
     84          1           0        6.636899   -0.069176   -0.604156
     85          1           0       -4.300888    0.687211    0.017574
     86          1           0        4.694760   -2.467222   -0.765358
     87          1           0       -4.593868    3.521597   -1.058151
     88          1           0        4.341732    0.562746   -0.660841
     89          1           0       -1.008209    4.213967   -0.937534
     90          1           0       -2.325065    4.674887    0.139233
     91          1           0       -2.555926    4.718845   -1.600864
     92          1           0       -2.285579    0.672681   -0.819917
     93          1           0        2.268255    1.373786   -0.682676
     94          1           0        2.412371   -2.681118    0.031757
     95          1           0        0.999302   -2.155262   -0.871985
     96          1           0        2.467840   -2.608134   -1.724886
     97          1           0        0.173918    2.535296   -0.685432
     98          1           0       -0.195611   -0.487049   -0.830560
 ---------------------------------------------------------------------

 SCF Done:  E(UwB97XD) =  -1709.06971294     A.U. after   20 cycles

 Alpha virt. eigenvalues --    0.46461   0.46518   0.46768   0.47030   0.47086
 Alpha virt. eigenvalues --    0.47148   0.47698   0.47849   0.48201   0.48500
 Alpha virt. eigenvalues --    0.48649   0.48764   0.49057   0.49225   0.49364

  Beta  occ. eigenvalues --  -19.12286 -19.11823 -10.20746 -10.20456 -10.17277
  Beta  occ. eigenvalues --  -10.16361 -10.16287 -10.15435 -10.14967 -10.14959
  Beta  occ. eigenvalues --  -10.14855 -10.14782 -10.14563 -10.14551 -10.14269
  Beta  occ. eigenvalues --  -10.14171 -10.14067 -10.13672 -10.13307 -10.13276
  Beta  occ. eigenvalues --  -10.12954 -10.12752 -10.12621 -10.12291 -10.12171
  Beta  occ. eigenvalues --  -10.12156 -10.12082 -10.12055 -10.11881 -10.11672
  Beta  occ. eigenvalues --  -10.11481 -10.11374 -10.11151 -10.11060 -10.10994
  Beta  occ. eigenvalues --  -10.10961 -10.10459 -10.10261 -10.10206 -10.10150
  Beta  occ. eigenvalues --  -10.10066 -10.09957  -0.99543  -0.98914  -0.81220
  Beta  occ. eigenvalues --   -0.81212  -0.76096  -0.76009  -0.75107  -0.75087
  Beta  occ. eigenvalues --   -0.74770  -0.74022  -0.72385  -0.71952  -0.70464
  Beta  occ. eigenvalues --   -0.69232  -0.68191  -0.67012  -0.66287  -0.64945
  Beta  occ. eigenvalues --   -0.64785  -0.64348  -0.63899  -0.63480  -0.63089
  Beta  occ. eigenvalues --   -0.62607  -0.61637  -0.61280  -0.58638  -0.57240
  Beta  occ. eigenvalues --   -0.56751  -0.54484  -0.53332  -0.52532  -0.51774
  Beta  occ. eigenvalues --   -0.50914  -0.49120  -0.48419  -0.47753  -0.46948
  Beta  occ. eigenvalues --   -0.46146  -0.45580  -0.45281  -0.44652  -0.44298
  Beta  occ. eigenvalues --   -0.43154  -0.42853  -0.42558  -0.42158  -0.41620
  Beta  occ. eigenvalues --   -0.40821  -0.40226  -0.40092  -0.39544  -0.38782
  Beta  occ. eigenvalues --   -0.38516  -0.38436  -0.38024  -0.37464  -0.36886
  Beta  occ. eigenvalues --   -0.36771  -0.36185  -0.36061  -0.35618  -0.35383
  Beta  occ. eigenvalues --   -0.35310  -0.35154  -0.35076  -0.35023  -0.34765
  Beta  occ. eigenvalues --   -0.34647  -0.34302  -0.34141  -0.34083  -0.33862
  Beta  occ. eigenvalues --   -0.33322  -0.32636  -0.32459  -0.32332  -0.31825
  Beta  occ. eigenvalues --   -0.31812  -0.31446  -0.31152  -0.30851  -0.30686
  Beta  occ. eigenvalues --   -0.30473  -0.30244  -0.30079  -0.29456  -0.29312
  Beta  occ. eigenvalues --   -0.29245  -0.28654  -0.28300  -0.27776  -0.27052
  Beta  occ. eigenvalues --   -0.26971  -0.26834  -0.26652  -0.26025  -0.25922
  Beta  occ. eigenvalues --   -0.25401  -0.25219  -0.25046  -0.24604  -0.24442
  Beta  occ. eigenvalues --   -0.23724  -0.23352  -0.23154  -0.21892  -0.20960
  Beta  occ. eigenvalues --   -0.20166  -0.18853  -0.17336  -0.14777  -0.11916
  Beta  occ. eigenvalues --   -0.07947
  Beta virt. eigenvalues --    0.05371   0.07844   0.10166   0.11513   0.13764
  Beta virt. eigenvalues --    0.14611   0.15045   0.15954   0.16068   0.16816
  Beta virt. eigenvalues --    0.17488   0.17595   0.18004   0.18481   0.18513

 Mulliken charges and spin densities:
               1          2
     1  O   -0.517249   0.000302
     2  O   -0.505402   0.000013
     3  C    0.044779   0.003891
     4  C    0.269430  -0.007697
     5  C   -0.248334   0.000244
     6  C    0.375397  -0.000288
     7  C   -0.021632   0.002532
     8  C    0.127779   0.003989
     9  C   -0.283597   0.001146
    10  C   -0.318819   0.000381
    11  C   -0.174716   0.000042
    12  C   -0.329951   0.007159
    13  C    0.183353   0.000411
    14  C    0.011073  -0.019362
    15  C   -0.473752   0.119050
    16  C   -0.097002  -0.002075
    17  C   -0.015661   0.028304
    18  C   -0.357370  -0.000395
    19  C   -0.344514   0.000123
    20  C   -0.312783   0.000510
    21  C   -0.074398  -0.038995
    22  C   -0.348260   0.095294
    23  C   -0.333911  -0.001622
    24  C    0.042345   0.132917
    25  C   -0.186374  -0.031304
    26  C   -0.332577  -0.006385
    27  C    0.063459   0.130937
    28  C   -0.090680  -0.039511
    29  C   -0.293662  -0.006358
    30  C   -0.139676  -0.041418
    31  C   -0.098793   0.135950
    32  C   -0.115799   0.129085
    33  C   -0.208273  -0.001642
    34  C    0.044537   0.119009
    35  C   -0.174927  -0.011696
    36  C    0.062323   0.098908
    37  C   -0.290727  -0.004717
    38  C   -0.127900   0.020398
    39  C   -0.104594   0.025552
    40  C   -0.343023  -0.003377
    41  C   -0.120059   0.076468
    42  C   -0.140974   0.067070
    43  H    0.033430   0.000107
    44  H    0.073205   0.000011
    45  H    0.096656   0.000288
    46  H    0.020363   0.000101
    47  H    0.127544  -0.000152
    48  H    0.093446   0.000026
    49  H    0.090287   0.000011
    50  H    0.125611  -0.000035
    51  H    0.086071   0.000303
    52  H    0.084108   0.000006
    53  H    0.078928  -0.000001
    54  H    0.063401   0.000075
    55  H    0.059890   0.000001
    56  H    0.035036  -0.000033
    57  H    0.145001  -0.006485
    58  H    0.074103   0.001500
    59  H    0.077046   0.001495
    60  H    0.123009   0.000286
    61  H    0.111557   0.000004
    62  H    0.093067  -0.000044
    63  H    0.092419  -0.000040
    64  H    0.137181   0.000014
    65  H    0.084296  -0.000123
    66  H    0.142347  -0.000070
    67  H    0.091873   0.000145
    68  H    0.079930  -0.000001
    69  H    0.299151   0.000007
    70  H    0.128922  -0.005165
    71  H    0.061324   0.001284
    72  H    0.091305   0.000982
    73  H    0.156393   0.000166
    74  H    0.089172   0.001174
    75  H    0.301961  -0.000016
    76  H    0.088448   0.003319
    77  H    0.099745   0.000018
    78  H    0.094071   0.005686
    79  H    0.095297   0.005656
    80  H    0.055061   0.001902
    81  H    0.085610   0.005392
    82  H    0.089161   0.001046
    83  H    0.079266   0.004536
    84  H    0.089936   0.001135
    85  H    0.081040  -0.007640
    86  H    0.104729  -0.007089
    87  H    0.057483   0.000640
    88  H    0.057096  -0.000195
    89  H    0.083550   0.001152
    90  H    0.088325   0.004460
    91  H    0.080338   0.003585
    92  H    0.072712  -0.001609
    93  H    0.054896  -0.000672
    94  H    0.096441   0.003849
    95  H    0.093888  -0.000359
    96  H    0.097064   0.003814
    97  H    0.055418  -0.003936
    98  H    0.053305  -0.003350
 Sum of Mulliken charges =  -1.00000   1.00000

 Dipole moment (field-independent basis, Debye):
    X=              0.4139    Y=             -2.3468    Z=              1.8112  Tot=              2.9932
 Quadrupole moment (field-independent basis, Debye-Ang):
   XX=           -541.1457   YY=           -265.8870   ZZ=           -268.7135
   XY=              8.9249   XZ=             38.4578   YZ=              2.9474

 Normal termination of Gaussian 16 at Fri Nov 22 08:36:22 2019.
