 Gaussian 16, Revision A.03,
 Gaussian 16:  ES64L-G16RevA.03 25-Dec-2016

 --------------------------------------------------------
 # wB97XD/Def2TZVP iop(3/107=0112500000,3/108=0112500000)
 --------------------------------------------------------

 -----
 TITLE
 -----
 Symbolic Z-matrix:
 Charge = -1 Multiplicity = 2

                         Standard orientation:
 ---------------------------------------------------------------------
 Center     Atomic      Atomic             Coordinates (Angstroms)
 Number     Number       Type             X           Y           Z
 ---------------------------------------------------------------------
      1          8           0      -13.903076   -2.316309    0.844302
      2          8           0       14.702889    0.942117    0.700870
      3          6           0      -11.775780    0.116119    1.296691
      4          6           0      -10.935328    0.179187   -0.012126
      5          6           0      -11.897217   -1.352131    1.738786
      6          6           0      -12.477385   -2.295187    0.688599
      7          6           0      -11.429881   -0.812393   -1.054499
      8          6           0       11.125359    0.080855    1.704204
      9          6           0      -11.094154    0.918844    2.410771
     10          6           0      -13.156178    0.737671    1.031934
     11          6           0       12.492686    0.786796    1.734595
     12          6           0      -12.090087   -1.916977   -0.713050
     13          6           0       13.435311    0.298549    0.648740
     14          6           0       10.603857   -0.041001    0.262532
     15          6           0       -9.461776   -0.053200    0.194281
     16          6           0       12.827182    0.599608   -0.704077
     17          6           0       11.370688    0.221990   -0.812114
     18          6           0       10.160509    0.913751    2.570142
     19          6           0       11.236534   -1.327617    2.321203
     20          6           0      -11.099649   -0.483263   -2.480608
     21          6           0       -8.502777    0.817661   -0.138000
     22          6           0        9.202833   -0.480041    0.141160
     23          6           0       10.877978    0.218132   -2.234496
     24          6           0       -7.066607    0.624389    0.019675
     25          6           0        8.775333   -1.510594   -0.601141
     26          6           0       -6.593457   -0.672840    0.611750
     27          6           0        7.387021   -1.953807   -0.748879
     28          6           0       -6.238055    1.620471   -0.375602
     29          6           0        7.215997   -3.433862   -0.965307
     30          6           0        6.363954   -1.070881   -0.703246
     31          6           0       -4.801143    1.649659   -0.317649
     32          6           0        4.955193   -1.356784   -0.777443
     33          6           0       -4.067395    2.701631   -0.734753
     34          6           0       -2.613997    2.816021   -0.733655
     35          6           0        4.006310   -0.396612   -0.740198
     36          6           0        2.574209   -0.600345   -0.803518
     37          6           0       -2.092790    4.229080   -0.705361
     38          6           0       -1.816086    1.720783   -0.773243
     39          6           0        1.765613    0.490454   -0.748741
     40          6           0        2.062164   -2.008608   -0.928200
     41          6           0       -0.382805    1.679484   -0.731355
     42          6           0        0.333194    0.532563   -0.796921
     43          1           0      -11.052914    1.185978   -0.427777
     44          1           0      -12.513558   -1.422741    2.637301
     45          1           0      -10.904760   -1.718064    2.014747
     46          1           0      -12.100740   -3.307005    0.891922
     47          1           0      -10.127899    0.494532    2.687131
     48          1           0      -10.924176    1.952150    2.099662
     49          1           0      -11.724061    0.936078    3.302741
     50          1           0      -13.671959    0.253019    0.205188
     51          1           0      -13.792234    0.643612    1.913513
     52          1           0      -13.052650    1.800987    0.801668
     53          1           0       12.355759    1.863825    1.598491
     54          1           0       12.943406    0.644626    2.722462
     55          1           0      -12.401223   -2.608093   -1.493574
     56          1           0       13.573916   -0.786175    0.742497
     57          1           0       -9.191831   -1.016608    0.614791
     58          1           0       13.391528    0.087708   -1.488758
     59          1           0       12.942811    1.671232   -0.905516
     60          1           0        9.218470    0.396201    2.752489
     61          1           0        9.941690    1.875599    2.102418
     62          1           0       10.616716    1.108326    3.543153
     63          1           0       11.948679   -1.949801    1.777527
     64          1           0       10.271591   -1.835963    2.297853
     65          1           0       11.561029   -1.264510    3.362761
     66          1           0      -10.025835   -0.321435   -2.602602
     67          1           0      -11.596897    0.443576   -2.781202
     68          1           0      -11.410270   -1.275150   -3.161639
     69          1           0      -14.282347   -2.769778    0.089572
     70          1           0        8.471815    0.044269    0.748702
     71          1           0       -8.802723    1.770562   -0.567254
     72          1           0       11.262696   -0.648984   -2.779704
     73          1           0        9.793663    0.207592   -2.308081
     74          1           0       11.256187    1.103042   -2.754314
     75          1           0       15.100626    0.756595    1.552894
     76          1           0        9.520526   -2.110944   -1.116851
     77          1           0       -5.511394   -0.727628    0.693361
     78          1           0       -7.011023   -0.812814    1.611930
     79          1           0       -6.927029   -1.517335    0.003554
     80          1           0       -6.703049    2.511168   -0.790361
     81          1           0        7.525680   -3.991739   -0.077278
     82          1           0        6.193779   -3.717704   -1.203309
     83          1           0        7.854603   -3.769007   -1.786844
     84          1           0        6.620744   -0.019600   -0.610876
     85          1           0       -4.287104    0.790121    0.096247
     86          1           0        4.648971   -2.392637   -0.858747
     87          1           0       -4.605052    3.581137   -1.082203
     88          1           0        4.332091    0.636631   -0.652405
     89          1           0       -1.014620    4.291575   -0.827847
     90          1           0       -2.356036    4.717529    0.236662
     91          1           0       -2.552928    4.814474   -1.505602
     92          1           0       -2.301626    0.753431   -0.860750
     93          1           0        2.254283    1.457166   -0.657875
     94          1           0        2.390690   -2.614217   -0.080020
     95          1           0        0.977598   -2.057680   -0.970078
     96          1           0        2.452235   -2.481131   -1.832995
     97          1           0        0.161443    2.612901   -0.634483
     98          1           0       -0.212055   -0.400709   -0.888942
 ---------------------------------------------------------------------

 SCF Done:  E(UwB97XD) =  -1708.60090937     A.U. after   20 cycles

 Alpha virt. eigenvalues --    0.47565   0.47718   0.47966   0.48057   0.48113
 Alpha virt. eigenvalues --    0.48324   0.48870   0.48925   0.49089   0.49396
 Alpha virt. eigenvalues --    0.49818   0.49899   0.50125   0.50323   0.50586

  Beta  occ. eigenvalues --  -19.15415 -19.14935 -10.23642 -10.23378 -10.20129
  Beta  occ. eigenvalues --  -10.19317 -10.19197 -10.18380 -10.18020 -10.17921
  Beta  occ. eigenvalues --  -10.17809 -10.17683 -10.17551 -10.17484 -10.17298
  Beta  occ. eigenvalues --  -10.17111 -10.17024 -10.16632 -10.16244 -10.16180
  Beta  occ. eigenvalues --  -10.16089 -10.15886 -10.15494 -10.15281 -10.15200
  Beta  occ. eigenvalues --  -10.15177 -10.15068 -10.14932 -10.14930 -10.14696
  Beta  occ. eigenvalues --  -10.14136 -10.14004 -10.13897 -10.13833 -10.13633
  Beta  occ. eigenvalues --  -10.13538 -10.13133 -10.13025 -10.12900 -10.12742
  Beta  occ. eigenvalues --  -10.12669 -10.12486  -1.02904  -1.02253  -0.84771
  Beta  occ. eigenvalues --   -0.84765  -0.79470  -0.79398  -0.78513  -0.78504
  Beta  occ. eigenvalues --   -0.77910  -0.77199  -0.75712  -0.75289  -0.73605
  Beta  occ. eigenvalues --   -0.72473  -0.71413  -0.70218  -0.69385  -0.68167
  Beta  occ. eigenvalues --   -0.68012  -0.67609  -0.67109  -0.66779  -0.66327
  Beta  occ. eigenvalues --   -0.65492  -0.64829  -0.64396  -0.61726  -0.60452
  Beta  occ. eigenvalues --   -0.59972  -0.57513  -0.56512  -0.55741  -0.55002
  Beta  occ. eigenvalues --   -0.53965  -0.52216  -0.51662  -0.50969  -0.49861
  Beta  occ. eigenvalues --   -0.49309  -0.48658  -0.48274  -0.47860  -0.47477
  Beta  occ. eigenvalues --   -0.46337  -0.46086  -0.45638  -0.45419  -0.44785
  Beta  occ. eigenvalues --   -0.43929  -0.43418  -0.43243  -0.42683  -0.41814
  Beta  occ. eigenvalues --   -0.41632  -0.41564  -0.41172  -0.40542  -0.39924
  Beta  occ. eigenvalues --   -0.39835  -0.39260  -0.39083  -0.38723  -0.38451
  Beta  occ. eigenvalues --   -0.38368  -0.38236  -0.38169  -0.38046  -0.37786
  Beta  occ. eigenvalues --   -0.37624  -0.37236  -0.36959  -0.36907  -0.36833
  Beta  occ. eigenvalues --   -0.36282  -0.35578  -0.35453  -0.35253  -0.34848
  Beta  occ. eigenvalues --   -0.34752  -0.34405  -0.34148  -0.33800  -0.33497
  Beta  occ. eigenvalues --   -0.33421  -0.33206  -0.33022  -0.32398  -0.32285
  Beta  occ. eigenvalues --   -0.32219  -0.31534  -0.31213  -0.30693  -0.30043
  Beta  occ. eigenvalues --   -0.29933  -0.29778  -0.29546  -0.28970  -0.28855
  Beta  occ. eigenvalues --   -0.28298  -0.28009  -0.27924  -0.27582  -0.27007
  Beta  occ. eigenvalues --   -0.26676  -0.26337  -0.26108  -0.24930  -0.23993
  Beta  occ. eigenvalues --   -0.23141  -0.21809  -0.20210  -0.17516  -0.14554
  Beta  occ. eigenvalues --   -0.10257
  Beta virt. eigenvalues --    0.07049   0.09363   0.11769   0.13143   0.15097
  Beta virt. eigenvalues --    0.15391   0.15975   0.16636   0.17220   0.17612
  Beta virt. eigenvalues --    0.17900   0.17929   0.18901   0.19065   0.19186

 Mulliken charges and spin densities:
               1          2
     1  O   -0.494903   0.000266
     2  O   -0.479828   0.000027
     3  C    0.092728   0.003370
     4  C    0.238115  -0.006147
     5  C   -0.290168   0.000249
     6  C    0.319721  -0.000384
     7  C    0.005443   0.001280
     8  C    0.173314   0.003386
     9  C   -0.318429   0.000963
    10  C   -0.360054   0.000271
    11  C   -0.218625   0.000092
    12  C   -0.347594   0.006268
    13  C    0.134098   0.000231
    14  C    0.042331  -0.018399
    15  C   -0.434019   0.110664
    16  C   -0.128990  -0.001450
    17  C   -0.029341   0.026655
    18  C   -0.399879  -0.000225
    19  C   -0.391391   0.000099
    20  C   -0.370021   0.000716
    21  C   -0.129812  -0.036971
    22  C   -0.336536   0.088230
    23  C   -0.373625  -0.001514
    24  C    0.072254   0.133047
    25  C   -0.216154  -0.033109
    26  C   -0.363083  -0.005645
    27  C    0.087989   0.133061
    28  C   -0.109343  -0.047476
    29  C   -0.339460  -0.005933
    30  C   -0.156991  -0.049442
    31  C   -0.099772   0.141096
    32  C   -0.103763   0.137948
    33  C   -0.227615  -0.011359
    34  C    0.071326   0.131272
    35  C   -0.200371  -0.019586
    36  C    0.088216   0.109743
    37  C   -0.336808  -0.004057
    38  C   -0.151661   0.012539
    39  C   -0.128250   0.020209
    40  C   -0.373382  -0.003644
    41  C   -0.120351   0.082220
    42  C   -0.145834   0.072705
    43  H    0.052352   0.000136
    44  H    0.089615   0.000017
    45  H    0.106919   0.000327
    46  H    0.045174   0.000091
    47  H    0.130744   0.000023
    48  H    0.104685  -0.000001
    49  H    0.101920   0.000035
    50  H    0.127099  -0.000007
    51  H    0.099181   0.000278
    52  H    0.095440   0.000009
    53  H    0.092143  -0.000004
    54  H    0.079649   0.000059
    55  H    0.079191   0.000103
    56  H    0.048802   0.000002
    57  H    0.137300  -0.004871
    58  H    0.092236   0.001345
    59  H    0.091304   0.001359
    60  H    0.132773   0.000231
    61  H    0.123619  -0.000004
    62  H    0.104830  -0.000039
    63  H    0.103096  -0.000037
    64  H    0.144172   0.000020
    65  H    0.096782  -0.000139
    66  H    0.151732  -0.000077
    67  H    0.106006   0.000088
    68  H    0.093927  -0.000010
    69  H    0.298768   0.000007
    70  H    0.129392  -0.004136
    71  H    0.076074   0.001216
    72  H    0.107466   0.000882
    73  H    0.161304   0.000209
    74  H    0.102248   0.001014
    75  H    0.302061  -0.000015
    76  H    0.097351   0.003910
    77  H    0.113958   0.000067
    78  H    0.103821   0.005511
    79  H    0.106050   0.005630
    80  H    0.065733   0.002056
    81  H    0.099679   0.005401
    82  H    0.102862   0.001208
    83  H    0.092217   0.004527
    84  H    0.095924   0.001808
    85  H    0.080828  -0.006484
    86  H    0.093439  -0.006181
    87  H    0.065728   0.002179
    88  H    0.066449   0.000208
    89  H    0.093963   0.001717
    90  H    0.101501   0.004536
    91  H    0.091284   0.003949
    92  H    0.078634  -0.000535
    93  H    0.063561  -0.000310
    94  H    0.105630   0.004138
    95  H    0.105491  -0.000205
    96  H    0.106197   0.004094
    97  H    0.057165  -0.003543
    98  H    0.055052  -0.003060
 Sum of Mulliken charges =  -1.00000   1.00000

 Dipole moment (field-independent basis, Debye):
    X=              0.4609    Y=             -2.6477    Z=              1.8506  Tot=              3.2630
 Quadrupole moment (field-independent basis, Debye-Ang):
   XX=           -531.2470   YY=           -269.2216   ZZ=           -270.7896
   XY=              9.0007   XZ=             38.6520   YZ=              3.2141

 Normal termination of Gaussian 16 at Tue Nov 26 08:21:28 2019.
