 Gaussian 16, Revision A.03,
 Gaussian 16:  ES64L-G16RevA.03 25-Dec-2016

 --------------------------------------------------------
 # wB97XD/Def2TZVP iop(3/107=0106300000,3/108=0106300000)
 --------------------------------------------------------

 -----
 TITLE
 -----
 Symbolic Z-matrix:
 Charge = -1 Multiplicity = 2

                         Standard orientation:
 ---------------------------------------------------------------------
 Center     Atomic      Atomic             Coordinates (Angstroms)
 Number     Number       Type             X           Y           Z
 ---------------------------------------------------------------------
      1          8           0      -13.910242   -2.309315    0.851208
      2          8           0       14.707064    0.947122    0.694577
      3          6           0      -11.778309    0.123777    1.296527
      4          6           0      -10.938388    0.182165   -0.013541
      5          6           0      -11.902547   -1.343604    1.741930
      6          6           0      -12.484341   -2.288527    0.693830
      7          6           0      -11.436527   -0.810472   -1.053669
      8          6           0       11.127580    0.093921    1.701988
      9          6           0      -11.094071    0.927613    2.408744
     10          6           0      -13.157844    0.747976    1.031351
     11          6           0       12.495641    0.799492    1.728413
     12          6           0      -12.098374   -1.913291   -0.709110
     13          6           0       13.438829    0.303715    0.646087
     14          6           0       10.606868   -0.038038    0.260431
     15          6           0       -9.464937   -0.053329    0.191781
     16          6           0       12.831309    0.595918   -0.709236
     17          6           0       11.374595    0.217800   -0.815633
     18          6           0       10.162411    0.933863    2.561500
     19          6           0       11.237581   -1.310508    2.329330
     20          6           0      -11.108066   -0.484682   -2.481243
     21          6           0       -8.503999    0.815732   -0.140979
     22          6           0        9.205854   -0.477836    0.141260
     23          6           0       10.882561    0.205220   -2.238454
     24          6           0       -7.068195    0.619947    0.015432
     25          6           0        8.778225   -1.513889   -0.593917
     26          6           0       -6.596167   -0.678546    0.606280
     27          6           0        7.390371   -1.958748   -0.739581
     28          6           0       -6.238103    1.615422   -0.380013
     29          6           0        7.220440   -3.439933   -0.951110
     30          6           0        6.365844   -1.076585   -0.696599
     31          6           0       -4.801473    1.643020   -0.323386
     32          6           0        4.957633   -1.363741   -0.769082
     33          6           0       -4.066579    2.695062   -0.740101
     34          6           0       -2.613508    2.809220   -0.740520
     35          6           0        4.007449   -0.403919   -0.735331
     36          6           0        2.575816   -0.608529   -0.797229
     37          6           0       -2.091875    4.222585   -0.719669
     38          6           0       -1.814865    1.713554   -0.775090
     39          6           0        1.766447    0.482745   -0.746675
     40          6           0        2.063588   -2.017552   -0.915858
     41          6           0       -0.382046    1.672358   -0.733708
     42          6           0        0.334493    0.524737   -0.794428
     43          1           0      -11.053992    1.188305   -0.430982
     44          1           0      -12.518837   -1.411201    2.640596
     45          1           0      -10.910840   -1.710623    2.018772
     46          1           0      -12.107859   -3.300060    0.898710
     47          1           0      -10.128362    0.502229    2.685015
     48          1           0      -10.922645    1.960024    2.095756
     49          1           0      -11.722947    0.947629    3.301306
     50          1           0      -13.675508    0.262518    0.206365
     51          1           0      -13.793308    0.657812    1.913676
     52          1           0      -13.052323    1.810391    0.798181
     53          1           0       12.359348    1.875599    1.585394
     54          1           0       12.945737    0.663595    2.717341
     55          1           0      -12.411838   -2.605307   -1.487819
     56          1           0       13.577119   -0.780306    0.747086
     57          1           0       -9.196740   -1.017337    0.611732
     58          1           0       13.395970    0.078693   -1.490105
     59          1           0       12.947259    1.666043   -0.917956
     60          1           0        9.219826    0.418471    2.746689
     61          1           0        9.944726    1.892561    2.087001
     62          1           0       10.617792    1.134909    3.533504
     63          1           0       11.949446   -1.937057    1.790470
     64          1           0       10.272426   -1.818415    2.309342
     65          1           0       11.561743   -1.240316    3.370464
     66          1           0      -10.034227   -0.325333   -2.605638
     67          1           0      -11.603936    0.442495   -2.782909
     68          1           0      -11.421457   -1.277178   -3.160205
     69          1           0      -14.290347   -2.763146    0.097176
     70          1           0        8.474923    0.050749    0.745009
     71          1           0       -8.802430    1.769242   -0.569716
     72          1           0       11.268534   -0.664422   -2.778639
     73          1           0        9.798379    0.193113   -2.312542
     74          1           0       11.259869    1.087591   -2.763153
     75          1           0       15.104286    0.766784    1.547900
     76          1           0        9.523796   -2.118010   -1.104429
     77          1           0       -5.514171   -0.734830    0.686851
     78          1           0       -7.012793   -0.818749    1.606760
     79          1           0       -6.931253   -1.522219   -0.002139
     80          1           0       -6.702442    2.506884   -0.793670
     81          1           0        7.530038   -3.994755   -0.061173
     82          1           0        6.198568   -3.725229   -1.188515
     83          1           0        7.859428   -3.777516   -1.771286
     84          1           0        6.621675   -0.024813   -0.608210
     85          1           0       -4.288192    0.782484    0.089108
     86          1           0        4.652134   -2.400033   -0.846104
     87          1           0       -4.604141    3.575106   -1.086050
     88          1           0        4.332699    0.629764   -0.651825
     89          1           0       -1.014030    4.284292   -0.844709
     90          1           0       -2.352869    4.715423    0.220659
     91          1           0       -2.553394    4.804544   -1.521546
     92          1           0       -2.300349    0.745835   -0.857522
     93          1           0        2.255213    1.449718   -0.660086
     94          1           0        2.391968   -2.619639   -0.065183
     95          1           0        0.979079   -2.066666   -0.957402
     96          1           0        2.453287   -2.494031   -1.818672
     97          1           0        0.162295    2.606071   -0.641266
     98          1           0       -0.210844   -0.408817   -0.882023
 ---------------------------------------------------------------------

 SCF Done:  E(UwB97XD) =  -1708.63051884     A.U. after   20 cycles

 Alpha virt. eigenvalues --    0.47460   0.47609   0.47863   0.47951   0.48008
 Alpha virt. eigenvalues --    0.48214   0.48759   0.48819   0.48996   0.49319
 Alpha virt. eigenvalues --    0.49724   0.49787   0.50026   0.50217   0.50482

  Beta  occ. eigenvalues --  -19.15106 -19.14630 -10.23352 -10.23083 -10.19840
  Beta  occ. eigenvalues --  -10.19021 -10.18914 -10.18090 -10.17713 -10.17625
  Beta  occ. eigenvalues --  -10.17512 -10.17396 -10.17252 -10.17193 -10.17003
  Beta  occ. eigenvalues --  -10.16816 -10.16727 -10.16334 -10.15953 -10.15892
  Beta  occ. eigenvalues --  -10.15777 -10.15580 -10.15205 -10.14968 -10.14895
  Beta  occ. eigenvalues --  -10.14893 -10.14783 -10.14645 -10.14636 -10.14399
  Beta  occ. eigenvalues --  -10.13878 -10.13748 -10.13618 -10.13554 -10.13396
  Beta  occ. eigenvalues --  -10.13302 -10.12878 -10.12760 -10.12641 -10.12491
  Beta  occ. eigenvalues --  -10.12429 -10.12248  -1.02571  -1.01922  -0.84418
  Beta  occ. eigenvalues --   -0.84418  -0.79135  -0.79066  -0.78176  -0.78166
  Beta  occ. eigenvalues --   -0.77608  -0.76892  -0.75383  -0.74962  -0.73300
  Beta  occ. eigenvalues --   -0.72156  -0.71095  -0.69904  -0.69084  -0.67844
  Beta  occ. eigenvalues --   -0.67694  -0.67283  -0.66792  -0.66450  -0.66008
  Beta  occ. eigenvalues --   -0.65214  -0.64517  -0.64090  -0.61426  -0.60137
  Beta  occ. eigenvalues --   -0.59654  -0.57220  -0.56199  -0.55425  -0.54688
  Beta  occ. eigenvalues --   -0.53670  -0.51917  -0.51342  -0.50655  -0.49583
  Beta  occ. eigenvalues --   -0.49004  -0.48358  -0.47991  -0.47551  -0.47172
  Beta  occ. eigenvalues --   -0.46029  -0.45769  -0.45336  -0.45110  -0.44480
  Beta  occ. eigenvalues --   -0.43633  -0.43112  -0.42943  -0.42378  -0.41525
  Beta  occ. eigenvalues --   -0.41334  -0.41259  -0.40866  -0.40249  -0.39631
  Beta  occ. eigenvalues --   -0.39542  -0.38963  -0.38797  -0.38424  -0.38156
  Beta  occ. eigenvalues --   -0.38073  -0.37943  -0.37874  -0.37757  -0.37499
  Beta  occ. eigenvalues --   -0.37342  -0.36957  -0.36691  -0.36642  -0.36547
  Beta  occ. eigenvalues --   -0.36003  -0.35293  -0.35164  -0.34977  -0.34555
  Beta  occ. eigenvalues --   -0.34473  -0.34125  -0.33861  -0.33523  -0.33226
  Beta  occ. eigenvalues --   -0.33144  -0.32931  -0.32746  -0.32124  -0.31999
  Beta  occ. eigenvalues --   -0.31935  -0.31264  -0.30940  -0.30422  -0.29762
  Beta  occ. eigenvalues --   -0.29654  -0.29499  -0.29276  -0.28695  -0.28583
  Beta  occ. eigenvalues --   -0.28032  -0.27756  -0.27655  -0.27304  -0.26779
  Beta  occ. eigenvalues --   -0.26404  -0.26051  -0.25825  -0.24650  -0.23714
  Beta  occ. eigenvalues --   -0.22868  -0.21540  -0.19947  -0.17273  -0.14324
  Beta  occ. eigenvalues --   -0.10058
  Beta virt. eigenvalues --    0.06895   0.09232   0.11631   0.13006   0.15072
  Beta virt. eigenvalues --    0.15287   0.15891   0.16600   0.17197   0.17484
  Beta virt. eigenvalues --    0.17883   0.17902   0.18869   0.19031   0.19151

 Mulliken charges and spin densities:
               1          2
     1  O   -0.496816   0.000270
     2  O   -0.481954   0.000026
     3  C    0.089376   0.003418
     4  C    0.240891  -0.006261
     5  C   -0.287434   0.000244
     6  C    0.324102  -0.000377
     7  C    0.003339   0.001392
     8  C    0.169413   0.003453
     9  C   -0.316205   0.000978
    10  C   -0.357521   0.000281
    11  C   -0.215651   0.000090
    12  C   -0.346868   0.006346
    13  C    0.137891   0.000247
    14  C    0.040426  -0.018608
    15  C   -0.437671   0.111320
    16  C   -0.126759  -0.001515
    17  C   -0.028242   0.027072
    18  C   -0.396931  -0.000248
    19  C   -0.388252   0.000100
    20  C   -0.365996   0.000700
    21  C   -0.126055  -0.036938
    22  C   -0.337185   0.089158
    23  C   -0.371278  -0.001543
    24  C    0.070030   0.132776
    25  C   -0.215075  -0.032891
    26  C   -0.361126  -0.005686
    27  C    0.086283   0.132729
    28  C   -0.108144  -0.046434
    29  C   -0.336413  -0.005939
    30  C   -0.155525  -0.048510
    31  C   -0.099502   0.140369
    32  C   -0.104896   0.136756
    33  C   -0.226396  -0.010182
    34  C    0.069407   0.129866
    35  C   -0.198388  -0.018554
    36  C    0.086164   0.108322
    37  C   -0.333657  -0.004066
    38  C   -0.149719   0.013249
    39  C   -0.126411   0.020890
    40  C   -0.371471  -0.003587
    41  C   -0.120531   0.081644
    42  C   -0.145384   0.071929
    43  H    0.050966   0.000133
    44  H    0.088475   0.000017
    45  H    0.106278   0.000329
    46  H    0.043399   0.000092
    47  H    0.130662   0.000012
    48  H    0.103973   0.000001
    49  H    0.101186   0.000032
    50  H    0.127085  -0.000009
    51  H    0.098391   0.000281
    52  H    0.094748   0.000009
    53  H    0.091277  -0.000004
    54  H    0.078537   0.000060
    55  H    0.077939   0.000096
    56  H    0.047826  -0.000000
    57  H    0.138123  -0.004994
    58  H    0.090953   0.001372
    59  H    0.090315   0.001387
    60  H    0.132075   0.000241
    61  H    0.122875  -0.000003
    62  H    0.104079  -0.000040
    63  H    0.102420  -0.000037
    64  H    0.143801   0.000020
    65  H    0.095943  -0.000139
    66  H    0.151174  -0.000076
    67  H    0.105077   0.000093
    68  H    0.092970  -0.000009
    69  H    0.298883   0.000007
    70  H    0.129262  -0.004237
    71  H    0.075094   0.001214
    72  H    0.106428   0.000902
    73  H    0.161073   0.000207
    74  H    0.101333   0.001036
    75  H    0.302105  -0.000015
    76  H    0.096923   0.003853
    77  H    0.112962   0.000058
    78  H    0.103219   0.005525
    79  H    0.105379   0.005634
    80  H    0.065002   0.002030
    81  H    0.098782   0.005404
    82  H    0.101890   0.001204
    83  H    0.091373   0.004522
    84  H    0.095523   0.001753
    85  H    0.080822  -0.006574
    86  H    0.094419  -0.006248
    87  H    0.065277   0.002022
    88  H    0.065887   0.000158
    89  H    0.093296   0.001674
    90  H    0.100720   0.004523
    91  H    0.090634   0.003910
    92  H    0.078338  -0.000631
    93  H    0.063099  -0.000350
    94  H    0.105142   0.004098
    95  H    0.104735  -0.000225
    96  H    0.105702   0.004057
    97  H    0.057211  -0.003580
    98  H    0.055076  -0.003079
 Sum of Mulliken charges =  -1.00000   1.00000

 Dipole moment (field-independent basis, Debye):
    X=              0.4391    Y=             -2.6061    Z=              1.8457  Tot=              3.2235
 Quadrupole moment (field-independent basis, Debye-Ang):
   XX=           -532.5396   YY=           -268.9107   ZZ=           -270.6021
   XY=              9.0836   XZ=             38.6715   YZ=              3.2030

 Normal termination of Gaussian 16 at Thu Nov 28 11:05:47 2019.
