 Gaussian 16, Revision A.03,
 Gaussian 16:  ES64L-G16RevA.03 25-Dec-2016

 --------------------------------------------------------
 # wB97XD/Def2TZVP iop(3/107=0200000000,3/108=0200000000)
 --------------------------------------------------------

 -----
 TITLE
 -----
 Symbolic Z-matrix:
 Charge = -1 Multiplicity = 2

                         Standard orientation:
 ---------------------------------------------------------------------
 Center     Atomic      Atomic             Coordinates (Angstroms)
 Number     Number       Type             X           Y           Z
 ---------------------------------------------------------------------
      1          8           0      -13.822952   -2.402484    0.797856
      2          8           0       14.643942    0.873700    0.882570
      3          6           0      -11.745589    0.032512    1.300912
      4          6           0      -10.901871    0.132863    0.003889
      5          6           0      -11.838730   -1.440256    1.720103
      6          6           0      -12.401013   -2.372407    0.656166
      7          6           0      -11.362902   -0.853783   -1.053328
      8          6           0       11.102442   -0.204494    1.746483
      9          6           0      -11.090225    0.831207    2.427801
     10          6           0      -13.134074    0.626101    1.037414
     11          6           0       12.455090    0.505925    1.888068
     12          6           0      -12.004847   -1.972267   -0.735306
     13          6           0       13.390570    0.228441    0.728866
     14          6           0       10.567093   -0.074717    0.315738
     15          6           0       -9.427360   -0.066847    0.220954
     16          6           0       12.766283    0.749141   -0.543926
     17          6           0       11.315419    0.376282   -0.701855
     18          6           0       10.136854    0.439915    2.752518
     19          6           0       11.241761   -1.694259    2.098604
     20          6           0      -11.019701   -0.499287   -2.467525
     21          6           0       -8.490069    0.823563   -0.100565
     22          6           0        9.167089   -0.499149    0.131794
     23          6           0       10.808443    0.602623   -2.098540
     24          6           0       -7.049015    0.658228    0.072413
     25          6           0        8.754163   -1.411445   -0.749972
     26          6           0       -6.563351   -0.629416    0.669068
     27          6           0        7.365267   -1.835017   -0.960077
     28          6           0       -6.239448    1.664119   -0.310924
     29          6           0        7.198192   -3.284066   -1.321343
     30          6           0        6.351351   -0.959611   -0.840680
     31          6           0       -4.798560    1.715481   -0.234521
     32          6           0        4.938287   -1.233674   -0.963483
     33          6           0       -4.080999    2.773637   -0.639163
     34          6           0       -2.623876    2.894522   -0.612078
     35          6           0        3.998405   -0.282182   -0.843766
     36          6           0        2.561987   -0.476819   -0.946032
     37          6           0       -2.113481    4.298787   -0.447056
     38          6           0       -1.831665    1.813027   -0.744700
     39          6           0        1.757769    0.597182   -0.795801
     40          6           0        2.059028   -1.865249   -1.214155
     41          6           0       -0.392367    1.770132   -0.691238
     42          6           0        0.319696    0.641119   -0.856989
     43          1           0      -11.039851    1.142488   -0.400038
     44          1           0      -12.456181   -1.535353    2.616158
     45          1           0      -10.839587   -1.792392    1.991306
     46          1           0      -12.018641   -3.383851    0.849305
     47          1           0      -10.119902    0.419094    2.709564
     48          1           0      -10.933537    1.870488    2.128391
     49          1           0      -11.730793    0.827983    3.312599
     50          1           0      -13.632267    0.145834    0.197107
     51          1           0      -13.774764    0.498820    1.911854
     52          1           0      -13.050990    1.696167    0.829874
     53          1           0       12.300753    1.588469    1.939888
     54          1           0       12.918950    0.202163    2.832967
     55          1           0      -12.294542   -2.658761   -1.528433
     56          1           0       13.546257   -0.853980    0.632300
     57          1           0       -9.139260   -1.024704    0.643617
     58          1           0       13.328393    0.388656   -1.410231
     59          1           0       12.866070    1.841069   -0.555322
     60          1           0        9.206164   -0.120666    2.845962
     61          1           0        9.896171    1.465690    2.465310
     62          1           0       10.601898    0.466074    3.740652
     63          1           0       11.958930   -2.196354    1.447516
     64          1           0       10.284223   -2.206277    1.990384
     65          1           0       11.574585   -1.811807    3.133072
     66          1           0       -9.947459   -0.313912   -2.569553
     67          1           0      -11.531639    0.421741   -2.761101
     68          1           0      -11.304450   -1.288235   -3.163412
     69          1           0      -14.195850   -2.846329    0.034311
     70          1           0        8.428986   -0.068457    0.802041
     71          1           0       -8.805843    1.771043   -0.531488
     72          1           0       11.197812   -0.158515   -2.781267
     73          1           0        9.723466    0.590395   -2.164341
     74          1           0       11.172746    1.565890   -2.466800
     75          1           0       15.053811    0.554845    1.688140
     76          1           0        9.504218   -1.921975   -1.350069
     77          1           0       -5.481574   -0.666695    0.764872
     78          1           0       -6.993179   -0.775716    1.663215
     79          1           0       -6.876737   -1.477972    0.055786
     80          1           0       -6.712292    2.548527   -0.731053
     81          1           0        7.508207   -3.924332   -0.491012
     82          1           0        6.177241   -3.545812   -1.589233
     83          1           0        7.840985   -3.533849   -2.169665
     84          1           0        6.608629    0.076356   -0.637918
     85          1           0       -4.273542    0.864526    0.184478
     86          1           0        4.631479   -2.255655   -1.151934
     87          1           0       -4.620859    3.649780   -0.993381
     88          1           0        4.323589    0.737033   -0.649377
     89          1           0       -1.032845    4.376740   -0.537084
     90          1           0       -2.404636    4.700060    0.527236
     91          1           0       -2.559560    4.949171   -1.204141
     92          1           0       -2.315484    0.857510   -0.926722
     93          1           0        2.241039    1.552399   -0.605106
     94          1           0        2.380108   -2.548557   -0.424040
     95          1           0        0.975282   -1.913799   -1.276657
     96          1           0        2.465866   -2.245132   -2.154599
     97          1           0        0.148335    2.691422   -0.499986
     98          1           0       -0.222114   -0.280248   -1.043950
 ---------------------------------------------------------------------

 SCF Done:  E(UwB97XD) =  -1708.42244742     A.U. after   24 cycles

 Alpha virt. eigenvalues --    0.48924   0.49049   0.49367   0.49565   0.49635
 Alpha virt. eigenvalues --    0.49823   0.50307   0.50406   0.50514   0.50603
 Alpha virt. eigenvalues --    0.51127   0.51318   0.51459   0.51855   0.51977

  Beta  occ. eigenvalues --  -19.19512 -19.19049 -10.27674 -10.27392 -10.24051
  Beta  occ. eigenvalues --  -10.23403 -10.23145 -10.22415 -10.22132 -10.21920
  Beta  occ. eigenvalues --  -10.21816 -10.21704 -10.21566 -10.21494 -10.21362
  Beta  occ. eigenvalues --  -10.21105 -10.21043 -10.20654 -10.20285 -10.20226
  Beta  occ. eigenvalues --  -10.20183 -10.20132 -10.19442 -10.19422 -10.19390
  Beta  occ. eigenvalues --  -10.19155 -10.19101 -10.19018 -10.18750 -10.18638
  Beta  occ. eigenvalues --  -10.17761 -10.17667 -10.17511 -10.17453 -10.16775
  Beta  occ. eigenvalues --  -10.16713 -10.16709 -10.16474 -10.16335 -10.16168
  Beta  occ. eigenvalues --  -10.15796 -10.15644  -1.07446  -1.06838  -0.89607
  Beta  occ. eigenvalues --   -0.89582  -0.84060  -0.84025  -0.83176  -0.83153
  Beta  occ. eigenvalues --   -0.82017  -0.81430  -0.80179  -0.79798  -0.77805
  Beta  occ. eigenvalues --   -0.76834  -0.75748  -0.74507  -0.73465  -0.72569
  Beta  occ. eigenvalues --   -0.72442  -0.72030  -0.71517  -0.71214  -0.70763
  Beta  occ. eigenvalues --   -0.69270  -0.69124  -0.68508  -0.65735  -0.64734
  Beta  occ. eigenvalues --   -0.64187  -0.61452  -0.60651  -0.59915  -0.59238
  Beta  occ. eigenvalues --   -0.57823  -0.56184  -0.55800  -0.55116  -0.53505
  Beta  occ. eigenvalues --   -0.53385  -0.52562  -0.51985  -0.51859  -0.51391
  Beta  occ. eigenvalues --   -0.50372  -0.50125  -0.49670  -0.49353  -0.48682
  Beta  occ. eigenvalues --   -0.47817  -0.47327  -0.47065  -0.46590  -0.45581
  Beta  occ. eigenvalues --   -0.45426  -0.45392  -0.45063  -0.44315  -0.43724
  Beta  occ. eigenvalues --   -0.43611  -0.43044  -0.42738  -0.42483  -0.42195
  Beta  occ. eigenvalues --   -0.42113  -0.42040  -0.41993  -0.41746  -0.41449
  Beta  occ. eigenvalues --   -0.41214  -0.40763  -0.40505  -0.40400  -0.40205
  Beta  occ. eigenvalues --   -0.39783  -0.39182  -0.39081  -0.38750  -0.38494
  Beta  occ. eigenvalues --   -0.38344  -0.38009  -0.37723  -0.37309  -0.37087
  Beta  occ. eigenvalues --   -0.36886  -0.36544  -0.36439  -0.35849  -0.35822
  Beta  occ. eigenvalues --   -0.35755  -0.34840  -0.34605  -0.34017  -0.33607
  Beta  occ. eigenvalues --   -0.33421  -0.33222  -0.32842  -0.32426  -0.32123
  Beta  occ. eigenvalues --   -0.31593  -0.31314  -0.31100  -0.30867  -0.29939
  Beta  occ. eigenvalues --   -0.29894  -0.29700  -0.29663  -0.28219  -0.27317
  Beta  occ. eigenvalues --   -0.26471  -0.24903  -0.23277  -0.20280  -0.17221
  Beta  occ. eigenvalues --   -0.12529
  Beta virt. eigenvalues --    0.08951   0.10886   0.13294   0.14643   0.15333
  Beta virt. eigenvalues --    0.16163   0.16919   0.17297   0.17413   0.18017
  Beta virt. eigenvalues --    0.18225   0.18934   0.19359   0.19401   0.19641

 Mulliken charges and spin densities:
               1          2
     1  O   -0.477312   0.000202
     2  O   -0.459727   0.000029
     3  C    0.126485   0.002781
     4  C    0.200984  -0.005188
     5  C   -0.316880   0.000413
     6  C    0.279036  -0.000467
     7  C    0.024764   0.000092
     8  C    0.219687   0.002630
     9  C   -0.338926   0.000833
    10  C   -0.379057   0.000166
    11  C   -0.248150   0.000098
    12  C   -0.352408   0.005203
    13  C    0.099693   0.000091
    14  C    0.047801  -0.015866
    15  C   -0.396327   0.102549
    16  C   -0.149847  -0.000848
    17  C   -0.041304   0.020691
    18  C   -0.426801   0.000086
    19  C   -0.417373   0.000160
    20  C   -0.403244   0.000881
    21  C   -0.157190  -0.039929
    22  C   -0.331634   0.079812
    23  C   -0.386574  -0.001046
    24  C    0.089683   0.136778
    25  C   -0.216337  -0.037450
    26  C   -0.379790  -0.005491
    27  C    0.099942   0.141460
    28  C   -0.113985  -0.063982
    29  C   -0.362862  -0.006462
    30  C   -0.169843  -0.063781
    31  C   -0.112254   0.150489
    32  C   -0.096348   0.157444
    33  C   -0.230409  -0.032253
    34  C    0.084306   0.155017
    35  C   -0.217012  -0.035013
    36  C    0.104999   0.130391
    37  C   -0.361810  -0.005075
    38  C   -0.175957  -0.001210
    39  C   -0.146139   0.012830
    40  C   -0.389094  -0.004657
    41  C   -0.119095   0.095286
    42  C   -0.151763   0.081108
    43  H    0.068119   0.000169
    44  H    0.100966   0.000021
    45  H    0.113161   0.000245
    46  H    0.061417   0.000077
    47  H    0.130742   0.000034
    48  H    0.110597  -0.000010
    49  H    0.108244   0.000048
    50  H    0.125856   0.000008
    51  H    0.105633   0.000233
    52  H    0.100989   0.000011
    53  H    0.100868  -0.000005
    54  H    0.089910   0.000053
    55  H    0.092368   0.000145
    56  H    0.058760   0.000018
    57  H    0.130904  -0.003669
    58  H    0.103566   0.001008
    59  H    0.100671   0.000976
    60  H    0.139343   0.000116
    61  H    0.129183  -0.000025
    62  H    0.110639  -0.000039
    63  H    0.108150  -0.000035
    64  H    0.146508  -0.000010
    65  H    0.103705  -0.000129
    66  H    0.155323  -0.000080
    67  H    0.113666   0.000037
    68  H    0.102119  -0.000014
    69  H    0.297470   0.000006
    70  H    0.133090  -0.003201
    71  H    0.086099   0.001315
    72  H    0.114870   0.000617
    73  H    0.161739   0.000167
    74  H    0.109640   0.000755
    75  H    0.300987  -0.000011
    76  H    0.100445   0.004498
    77  H    0.122911   0.000230
    78  H    0.108458   0.005303
    79  H    0.111687   0.005496
    80  H    0.074079   0.002463
    81  H    0.105763   0.005503
    82  H    0.110815   0.001246
    83  H    0.098768   0.004696
    84  H    0.100226   0.002364
    85  H    0.084656  -0.005545
    86  H    0.085227  -0.005668
    87  H    0.069890   0.004579
    88  H    0.071429   0.000886
    89  H    0.098817   0.002356
    90  H    0.106154   0.005004
    91  H    0.094995   0.004699
    92  H    0.083195   0.000759
    93  H    0.066895   0.000187
    94  H    0.108304   0.004694
    95  H    0.110710   0.000111
    96  H    0.108511   0.004627
    97  H    0.056607  -0.003324
    98  H    0.054227  -0.002796
 Sum of Mulliken charges =  -1.00000   1.00000

 Dipole moment (field-independent basis, Debye):
    X=              0.3389    Y=             -3.2954    Z=              1.9326  Tot=              3.8353
 Quadrupole moment (field-independent basis, Debye-Ang):
   XX=           -512.8351   YY=           -272.7586   ZZ=           -272.6083
   XY=              5.8765   XZ=             38.1247   YZ=              3.1451

 Normal termination of Gaussian 16 at Mon Nov 18 12:09:55 2019.
