 Gaussian 16, Revision A.03,
 Gaussian 16:  ES64L-G16RevA.03 25-Dec-2016

 ------------------------------------------------------------
 # wB97XD/Def2TZVP iop(3/107=0125000000,3/108=0125000000) opt
 ------------------------------------------------------------

 -----
 TITLE
 -----
 Symbolic Z-matrix:
 Charge =  0 Multiplicity = 1

 SCF Done:  E(RwB97XD) =  -1708.50971366     A.U. after   15 cycles
 SCF Done:  E(RwB97XD) =  -1708.51059879     A.U. after   12 cycles
 SCF Done:  E(RwB97XD) =  -1708.51071126     A.U. after   11 cycles
 SCF Done:  E(RwB97XD) =  -1708.51074586     A.U. after   10 cycles
 SCF Done:  E(RwB97XD) =  -1708.51075715     A.U. after   10 cycles
 SCF Done:  E(RwB97XD) =  -1708.51076372     A.U. after   10 cycles
 SCF Done:  E(RwB97XD) =  -1708.51076633     A.U. after   10 cycles
 SCF Done:  E(RwB97XD) =  -1708.51076757     A.U. after    9 cycles
 SCF Done:  E(RwB97XD) =  -1708.51076789     A.U. after    7 cycles
 SCF Done:  E(RwB97XD) =  -1708.51076800     A.U. after    7 cycles
 SCF Done:  E(RwB97XD) =  -1708.51076807     A.U. after    6 cycles
 SCF Done:  E(RwB97XD) =  -1708.51076808     A.U. after    6 cycles
 SCF Done:  E(RwB97XD) =  -1708.51076808     A.U. after    5 cycles
 Optimization completed.
    -- Stationary point found.

                         Standard orientation:
 ---------------------------------------------------------------------
 Center     Atomic      Atomic             Coordinates (Angstroms)
 Number     Number       Type             X           Y           Z
 ---------------------------------------------------------------------
      1          8           0      -13.888890   -2.328241    0.841421
      2          8           0       14.694355    0.931197    0.721985
      3          6           0      -11.770380    0.105241    1.297014
      4          6           0      -10.929379    0.172002   -0.009993
      5          6           0      -11.886425   -1.362908    1.738486
      6          6           0      -12.463712   -2.306476    0.688110
      7          6           0      -11.417658   -0.821396   -1.052668
      8          6           0       11.119131    0.053834    1.711542
      9          6           0      -11.093442    0.910137    2.411329
     10          6           0      -13.152420    0.720845    1.031107
     11          6           0       12.485257    0.759823    1.752385
     12          6           0      -12.074637   -1.927940   -0.712651
     13          6           0       13.427941    0.287839    0.660218
     14          6           0       10.597826   -0.046014    0.269017
     15          6           0       -9.455594   -0.053677    0.198933
     16          6           0       12.820309    0.608317   -0.687744
     17          6           0       11.364258    0.232310   -0.801347
     18          6           0       10.154135    0.872008    2.589797
     19          6           0       11.231253   -1.363175    2.306444
     20          6           0      -11.084620   -0.491239   -2.477319
     21          6           0       -8.500441    0.819857   -0.134530
     22          6           0        9.196794   -0.482963    0.140942
     23          6           0       10.871985    0.248088   -2.223299
     24          6           0       -7.063480    0.632191    0.026513
     25          6           0        8.770547   -1.502035   -0.616491
     26          6           0       -6.588063   -0.660929    0.624512
     27          6           0        7.381779   -1.942121   -0.771381
     28          6           0       -6.238090    1.628512   -0.370823
     29          6           0        7.209687   -3.419274   -1.002655
     30          6           0        6.360862   -1.058689   -0.718775
     31          6           0       -4.800559    1.661535   -0.309816
     32          6           0        4.951237   -1.342635   -0.798675
     33          6           0       -4.069297    2.712689   -0.729577
     34          6           0       -2.615241    2.827834   -0.724772
     35          6           0        4.004420   -0.382391   -0.753216
     36          6           0        2.571504   -0.584756   -0.821337
     37          6           0       -2.095154    4.240265   -0.680964
     38          6           0       -1.818675    1.733658   -0.774538
     39          6           0        1.763998    0.504581   -0.756629
     40          6           0        2.060401   -1.991329   -0.961599
     41          6           0       -0.384431    1.692110   -0.730568
     42          6           0        0.330646    0.546859   -0.806934
     43          1           0      -11.050806    1.178456   -0.426055
     44          1           0      -12.502751   -1.435873    2.637052
     45          1           0      -10.892523   -1.725693    2.014108
     46          1           0      -12.086391   -3.317974    0.892128
     47          1           0      -10.126156    0.488906    2.689413
     48          1           0      -10.926144    1.943908    2.099721
     49          1           0      -11.725156    0.925697    3.302202
     50          1           0      -13.665004    0.234735    0.203046
     51          1           0      -13.789350    0.622765    1.911802
     52          1           0      -13.052730    1.784996    0.802355
     53          1           0       12.347635    1.838779    1.631353
     54          1           0       12.935954    0.603766    2.738376
     55          1           0      -12.381665   -2.620338   -1.493838
     56          1           0       13.566897   -0.798264    0.738315
     57          1           0       -9.182210   -1.014794    0.623025
     58          1           0       13.384863    0.108022   -1.479880
     59          1           0       12.935838    1.682985   -0.873103
     60          1           0        9.212681    0.350499    2.764551
     61          1           0        9.934131    1.840662    2.136553
     62          1           0       10.610708    1.052301    3.565538
     63          1           0       11.944319   -1.976359    1.753550
     64          1           0       10.266558   -1.871885    2.274668
     65          1           0       11.555133   -1.315529    3.349161
     66          1           0      -10.010909   -0.325159   -2.595680
     67          1           0      -11.584511    0.433871   -2.779147
     68          1           0      -11.390178   -1.284441   -3.159278
     69          1           0      -14.267214   -2.779825    0.084977
     70          1           0        8.464960    0.032789    0.755117
     71          1           0       -8.803424    1.770339   -0.567417
     72          1           0       11.255855   -0.612393   -2.779680
     73          1           0        9.787548    0.239805   -2.297358
     74          1           0       11.251832    1.139352   -2.731095
     75          1           0       15.091419    0.735456    1.572140
     76          1           0        9.516061   -2.094522   -1.141187
     77          1           0       -5.505969   -0.711909    0.709614
     78          1           0       -7.008572   -0.798514    1.623902
     79          1           0       -6.917421   -1.508622    0.018295
     80          1           0       -6.704443    2.516484   -0.790251
     81          1           0        7.518456   -3.986091   -0.119909
     82          1           0        6.187344   -3.699978   -1.244379
     83          1           0        7.848966   -3.746468   -1.826997
     84          1           0        6.618557   -0.008522   -0.614986
     85          1           0       -4.284759    0.805151    0.108904
     86          1           0        4.644110   -2.377459   -0.891207
     87          1           0       -4.607242    3.590266   -1.082007
     88          1           0        4.330768    0.649815   -0.654113
     89          1           0       -1.016320    4.304497   -0.797758
     90          1           0       -2.363578    4.719808    0.264232
     91          1           0       -2.552175    4.832571   -1.478065
     92          1           0       -2.304234    0.767181   -0.873196
     93          1           0        2.252116    1.470647   -0.654751
     94          1           0        2.387715   -2.605429   -0.118941
     95          1           0        0.975838   -2.040437   -1.006367
     96          1           0        2.453013   -2.454269   -1.870366
     97          1           0        0.159541    2.624699   -0.622886
     98          1           0       -0.214331   -0.385625   -0.909747
 ---------------------------------------------------------------------

 The electronic state is 1-A.
 Alpha  occ. eigenvalues --  -19.21114 -19.20916 -10.29956 -10.29482 -10.26893
 Alpha  occ. eigenvalues --  -10.26640 -10.26639 -10.26505 -10.26287 -10.26195
 Alpha  occ. eigenvalues --  -10.26099 -10.25953 -10.25710 -10.25607 -10.25549
 Alpha  occ. eigenvalues --  -10.25478 -10.25438 -10.25260 -10.25254 -10.25199
 Alpha  occ. eigenvalues --  -10.25197 -10.25106 -10.25067 -10.25054 -10.25007
 Alpha  occ. eigenvalues --  -10.24986 -10.24908 -10.24760 -10.24758 -10.24758
 Alpha  occ. eigenvalues --  -10.24663 -10.24658 -10.24349 -10.24308 -10.24145
 Alpha  occ. eigenvalues --  -10.24136 -10.23996 -10.23755 -10.23730 -10.23555
 Alpha  occ. eigenvalues --  -10.23031 -10.22438  -1.08692  -1.08316  -0.92144
 Alpha  occ. eigenvalues --   -0.91999  -0.90629  -0.90118  -0.89154  -0.88501
 Alpha  occ. eigenvalues --   -0.85886  -0.85485  -0.85359  -0.84171  -0.83407
 Alpha  occ. eigenvalues --   -0.81849  -0.81023  -0.79417  -0.78920  -0.77071
 Alpha  occ. eigenvalues --   -0.75682  -0.75197  -0.74853  -0.74801  -0.74506
 Alpha  occ. eigenvalues --   -0.74204  -0.74015  -0.73805  -0.72672  -0.69101
 Alpha  occ. eigenvalues --   -0.67816  -0.66819  -0.65534  -0.64015  -0.62759
 Alpha  occ. eigenvalues --   -0.62175  -0.61739  -0.61363  -0.59879  -0.59154
 Alpha  occ. eigenvalues --   -0.58800  -0.57929  -0.57717  -0.56937  -0.55577
 Alpha  occ. eigenvalues --   -0.54953  -0.54455  -0.54010  -0.53571  -0.53055
 Alpha  occ. eigenvalues --   -0.52496  -0.52301  -0.52046  -0.51455  -0.50626
 Alpha  occ. eigenvalues --   -0.49770  -0.49617  -0.48969  -0.48547  -0.48197
 Alpha  occ. eigenvalues --   -0.48129  -0.48027  -0.47828  -0.47803  -0.47688
 Alpha  occ. eigenvalues --   -0.47517  -0.47045  -0.46391  -0.46226  -0.45599
 Alpha  occ. eigenvalues --   -0.45527  -0.45267  -0.44969  -0.44869  -0.44664
 Alpha  occ. eigenvalues --   -0.44484  -0.44440  -0.43858  -0.43518  -0.43384
 Alpha  occ. eigenvalues --   -0.43255  -0.42866  -0.42679  -0.42250  -0.41956
 Alpha  occ. eigenvalues --   -0.41792  -0.41532  -0.41498  -0.40832  -0.40629
 Alpha  occ. eigenvalues --   -0.40445  -0.40340  -0.39882  -0.39813  -0.39497
 Alpha  occ. eigenvalues --   -0.39376  -0.39241  -0.38857  -0.38797  -0.38632
 Alpha  occ. eigenvalues --   -0.38096  -0.36947  -0.36822  -0.36565  -0.36171
 Alpha  occ. eigenvalues --   -0.35888  -0.34779  -0.33832  -0.32436  -0.32219
 Alpha  occ. eigenvalues --   -0.32092  -0.30059  -0.29426  -0.27602  -0.25176
 Alpha  occ. eigenvalues --   -0.21843
 Alpha virt. eigenvalues --   -0.03691   0.00022   0.03252   0.05784   0.07156
 Alpha virt. eigenvalues --    0.08965   0.09801   0.09848   0.10458   0.10661
 Alpha virt. eigenvalues --    0.11044   0.11298   0.11525   0.11566   0.11734

 Mulliken charges:
               1
     1  O   -0.484173
     2  O   -0.470151
     3  C    0.075277
     4  C    0.227126
     5  C   -0.294702
     6  C    0.300572
     7  C   -0.015776
     8  C    0.163598
     9  C   -0.322769
    10  C   -0.362744
    11  C   -0.228660
    12  C   -0.335344
    13  C    0.121924
    14  C    0.023361
    15  C   -0.388485
    16  C   -0.138346
    17  C   -0.021959
    18  C   -0.403902
    19  C   -0.393843
    20  C   -0.372413
    21  C   -0.137833
    22  C   -0.297425
    23  C   -0.375294
    24  C    0.104118
    25  C   -0.219760
    26  C   -0.363099
    27  C    0.122993
    28  C   -0.125606
    29  C   -0.340468
    30  C   -0.180657
    31  C   -0.055655
    32  C   -0.039767
    33  C   -0.213043
    34  C    0.091991
    35  C   -0.211636
    36  C    0.111711
    37  C   -0.338847
    38  C   -0.137396
    39  C   -0.117530
    40  C   -0.373648
    41  C   -0.095374
    42  C   -0.122441
    43  H    0.068175
    44  H    0.106136
    45  H    0.103040
    46  H    0.057737
    47  H    0.120918
    48  H    0.110441
    49  H    0.119127
    50  H    0.133301
    51  H    0.112971
    52  H    0.101537
    53  H    0.100723
    54  H    0.094300
    55  H    0.097255
    56  H    0.056921
    57  H    0.150188
    58  H    0.107959
    59  H    0.106244
    60  H    0.124805
    61  H    0.128240
    62  H    0.120206
    63  H    0.112323
    64  H    0.134421
    65  H    0.111531
    66  H    0.139188
    67  H    0.118066
    68  H    0.108282
    69  H    0.304332
    70  H    0.136889
    71  H    0.097795
    72  H    0.121219
    73  H    0.149070
    74  H    0.120010
    75  H    0.307618
    76  H    0.122138
    77  H    0.111943
    78  H    0.129961
    79  H    0.130680
    80  H    0.093601
    81  H    0.125119
    82  H    0.106096
    83  H    0.118836
    84  H    0.116796
    85  H    0.097217
    86  H    0.113291
    87  H    0.101796
    88  H    0.093283
    89  H    0.106713
    90  H    0.128437
    91  H    0.119602
    92  H    0.101667
    93  H    0.094361
    94  H    0.129777
    95  H    0.114237
    96  H    0.130834
    97  H    0.086599
    98  H    0.082124
 Sum of Mulliken charges =  -0.00000

 Dipole moment (field-independent basis, Debye):
    X=              0.2292    Y=             -1.4568    Z=             -0.1231  Tot=              1.4799
 Quadrupole moment (field-independent basis, Debye-Ang):
   XX=           -279.8367   YY=           -243.7256   ZZ=           -259.4461
   XY=             -9.0099   XZ=             33.0383   YZ=              2.8445

 Normal termination of Gaussian 16 at Sat Nov 23 14:19:32 2019.
