 Gaussian 16, Revision A.03,
 Gaussian 16:  ES64L-G16RevA.03 25-Dec-2016

 ------------------------------------------------------------
 # wB97XD/Def2TZVP iop(3/107=0000000000,3/108=0000000000) opt
 ------------------------------------------------------------

 -----
 TITLE
 -----
 Symbolic Z-matrix:
 Charge =  0 Multiplicity = 1

 SCF Done:  E(RwB97XD) =  -1708.38685124     A.U. after   14 cycles

 The electronic state is 1-A.
 Alpha  occ. eigenvalues --  -19.24490 -19.24297 -10.33270 -10.32783 -10.30098
 Alpha  occ. eigenvalues --  -10.29936 -10.29924 -10.29794 -10.29581 -10.29512
 Alpha  occ. eigenvalues --  -10.29309 -10.29211 -10.28966 -10.28933 -10.28870
 Alpha  occ. eigenvalues --  -10.28795 -10.28752 -10.28566 -10.28557 -10.28531
 Alpha  occ. eigenvalues --  -10.28502 -10.28443 -10.28405 -10.28330 -10.28319
 Alpha  occ. eigenvalues --  -10.28232 -10.28205 -10.28097 -10.28074 -10.28064
 Alpha  occ. eigenvalues --  -10.27999 -10.27977 -10.27657 -10.27569 -10.27434
 Alpha  occ. eigenvalues --  -10.27431 -10.27285 -10.27051 -10.27020 -10.26863
 Alpha  occ. eigenvalues --  -10.26348 -10.25724  -1.12461  -1.12115  -0.96110
 Alpha  occ. eigenvalues --   -0.95940  -0.94487  -0.93978  -0.93002  -0.92352
 Alpha  occ. eigenvalues --   -0.89690  -0.89312  -0.89202  -0.87950  -0.87179
 Alpha  occ. eigenvalues --   -0.85592  -0.84741  -0.83134  -0.82619  -0.80673
 Alpha  occ. eigenvalues --   -0.79332  -0.78832  -0.78505  -0.78440  -0.78127
 Alpha  occ. eigenvalues --   -0.77844  -0.77648  -0.77433  -0.76360  -0.72561
 Alpha  occ. eigenvalues --   -0.71286  -0.70330  -0.68963  -0.67415  -0.66205
 Alpha  occ. eigenvalues --   -0.65557  -0.65196  -0.64744  -0.63275  -0.62543
 Alpha  occ. eigenvalues --   -0.62164  -0.61337  -0.61102  -0.60245  -0.58878
 Alpha  occ. eigenvalues --   -0.58289  -0.57767  -0.57330  -0.56873  -0.56326
 Alpha  occ. eigenvalues --   -0.55770  -0.55644  -0.55317  -0.54728  -0.53889
 Alpha  occ. eigenvalues --   -0.52983  -0.52842  -0.52146  -0.51756  -0.51403
 Alpha  occ. eigenvalues --   -0.51308  -0.51203  -0.51018  -0.50941  -0.50840
 Alpha  occ. eigenvalues --   -0.50675  -0.50101  -0.49485  -0.49308  -0.48639
 Alpha  occ. eigenvalues --   -0.48566  -0.48324  -0.48002  -0.47904  -0.47709
 Alpha  occ. eigenvalues --   -0.47563  -0.47482  -0.46846  -0.46498  -0.46383
 Alpha  occ. eigenvalues --   -0.46225  -0.45828  -0.45632  -0.45226  -0.44886
 Alpha  occ. eigenvalues --   -0.44741  -0.44465  -0.44425  -0.43751  -0.43510
 Alpha  occ. eigenvalues --   -0.43359  -0.43270  -0.42934  -0.42774  -0.42355
 Alpha  occ. eigenvalues --   -0.42295  -0.42017  -0.41844  -0.41544  -0.41481
 Alpha  occ. eigenvalues --   -0.41087  -0.39730  -0.39670  -0.39351  -0.38981
 Alpha  occ. eigenvalues --   -0.38684  -0.37485  -0.36502  -0.35262  -0.35139
 Alpha  occ. eigenvalues --   -0.34843  -0.32702  -0.31877  -0.30002  -0.27491
 Alpha  occ. eigenvalues --   -0.24137
 Alpha virt. eigenvalues --   -0.02307   0.01371   0.04667   0.07212   0.08571
 Alpha virt. eigenvalues --    0.09984   0.10037   0.10566   0.11029   0.11303
 Alpha virt. eigenvalues --    0.11650   0.11734   0.11949   0.11989   0.12191

 Mulliken charges:
               1
     1  O   -0.470560
     2  O   -0.454321
     3  C    0.105280
     4  C    0.196616
     5  C   -0.316748
     6  C    0.268238
     7  C    0.000477
     8  C    0.204080
     9  C   -0.339786
    10  C   -0.378659
    11  C   -0.253624
    12  C   -0.339996
    13  C    0.094921
    14  C    0.028857
    15  C   -0.366405
    16  C   -0.155123
    17  C   -0.034540
    18  C   -0.425804
    19  C   -0.414767
    20  C   -0.399017
    21  C   -0.157646
    22  C   -0.300979
    23  C   -0.384364
    24  C    0.114851
    25  C   -0.218814
    26  C   -0.377109
    27  C    0.129712
    28  C   -0.131335
    29  C   -0.358077
    30  C   -0.193380
    31  C   -0.069843
    32  C   -0.035279
    33  C   -0.214856
    34  C    0.104636
    35  C   -0.223063
    36  C    0.125271
    37  C   -0.356879
    38  C   -0.161468
    39  C   -0.129116
    40  C   -0.387111
    41  C   -0.089354
    42  C   -0.126040
    43  H    0.080880
    44  H    0.114814
    45  H    0.107988
    46  H    0.070075
    47  H    0.120953
    48  H    0.114700
    49  H    0.123553
    50  H    0.132279
    51  H    0.117539
    52  H    0.105602
    53  H    0.107574
    54  H    0.102262
    55  H    0.107595
    56  H    0.064919
    57  H    0.145661
    58  H    0.116000
    59  H    0.112795
    60  H    0.129930
    61  H    0.131999
    62  H    0.124297
    63  H    0.116036
    64  H    0.135989
    65  H    0.116463
    66  H    0.141974
    67  H    0.123513
    68  H    0.114008
    69  H    0.302947
    70  H    0.140326
    71  H    0.105058
    72  H    0.126118
    73  H    0.148246
    74  H    0.124636
    75  H    0.306312
    76  H    0.124567
    77  H    0.117424
    78  H    0.133342
    79  H    0.134671
    80  H    0.100043
    81  H    0.129692
    82  H    0.110912
    83  H    0.124230
    84  H    0.121527
    85  H    0.102494
    86  H    0.109828
    87  H    0.107438
    88  H    0.099465
    89  H    0.110729
    90  H    0.133201
    91  H    0.124597
    92  H    0.110226
    93  H    0.100498
    94  H    0.133693
    95  H    0.119002
    96  H    0.134427
    97  H    0.090340
    98  H    0.085738
 Sum of Mulliken charges =  -0.00000

 Dipole moment (field-independent basis, Debye):
    X=              0.2091    Y=             -1.6042    Z=             -0.2807  Tot=              1.6419
 Quadrupole moment (field-independent basis, Debye-Ang):
   XX=           -282.3094   YY=           -245.9632   ZZ=           -260.6460
   XY=            -11.8839   XZ=             31.0673   YZ=              3.3218

 Optimization completed.
    -- Stationary point found.

                         Standard orientation:
 ---------------------------------------------------------------------
 Center     Atomic      Atomic             Coordinates (Angstroms)
 Number     Number       Type             X           Y           Z
 ---------------------------------------------------------------------
      1          8           0      -13.822952   -2.402484    0.797856
      2          8           0       14.643942    0.873700    0.882570
      3          6           0      -11.745589    0.032512    1.300912
      4          6           0      -10.901871    0.132863    0.003889
      5          6           0      -11.838730   -1.440256    1.720103
      6          6           0      -12.401013   -2.372407    0.656166
      7          6           0      -11.362902   -0.853783   -1.053328
      8          6           0       11.102442   -0.204494    1.746483
      9          6           0      -11.090225    0.831207    2.427801
     10          6           0      -13.134074    0.626101    1.037414
     11          6           0       12.455090    0.505925    1.888068
     12          6           0      -12.004847   -1.972267   -0.735306
     13          6           0       13.390570    0.228441    0.728866
     14          6           0       10.567093   -0.074717    0.315738
     15          6           0       -9.427360   -0.066847    0.220954
     16          6           0       12.766283    0.749141   -0.543926
     17          6           0       11.315419    0.376282   -0.701855
     18          6           0       10.136854    0.439915    2.752518
     19          6           0       11.241761   -1.694259    2.098604
     20          6           0      -11.019701   -0.499287   -2.467525
     21          6           0       -8.490069    0.823563   -0.100565
     22          6           0        9.167089   -0.499149    0.131794
     23          6           0       10.808443    0.602623   -2.098540
     24          6           0       -7.049015    0.658228    0.072413
     25          6           0        8.754163   -1.411445   -0.749972
     26          6           0       -6.563351   -0.629416    0.669068
     27          6           0        7.365267   -1.835017   -0.960077
     28          6           0       -6.239448    1.664119   -0.310924
     29          6           0        7.198192   -3.284066   -1.321343
     30          6           0        6.351351   -0.959611   -0.840680
     31          6           0       -4.798560    1.715481   -0.234521
     32          6           0        4.938287   -1.233674   -0.963483
     33          6           0       -4.080999    2.773637   -0.639163
     34          6           0       -2.623876    2.894522   -0.612078
     35          6           0        3.998405   -0.282182   -0.843766
     36          6           0        2.561987   -0.476819   -0.946032
     37          6           0       -2.113481    4.298787   -0.447056
     38          6           0       -1.831665    1.813027   -0.744700
     39          6           0        1.757769    0.597182   -0.795801
     40          6           0        2.059028   -1.865249   -1.214155
     41          6           0       -0.392367    1.770132   -0.691238
     42          6           0        0.319696    0.641119   -0.856989
     43          1           0      -11.039851    1.142488   -0.400038
     44          1           0      -12.456181   -1.535353    2.616158
     45          1           0      -10.839587   -1.792392    1.991306
     46          1           0      -12.018641   -3.383851    0.849305
     47          1           0      -10.119902    0.419094    2.709564
     48          1           0      -10.933537    1.870488    2.128391
     49          1           0      -11.730793    0.827983    3.312599
     50          1           0      -13.632267    0.145834    0.197107
     51          1           0      -13.774764    0.498820    1.911854
     52          1           0      -13.050990    1.696167    0.829874
     53          1           0       12.300753    1.588469    1.939888
     54          1           0       12.918950    0.202163    2.832967
     55          1           0      -12.294542   -2.658761   -1.528433
     56          1           0       13.546257   -0.853980    0.632300
     57          1           0       -9.139260   -1.024704    0.643617
     58          1           0       13.328393    0.388656   -1.410231
     59          1           0       12.866070    1.841069   -0.555322
     60          1           0        9.206164   -0.120666    2.845962
     61          1           0        9.896171    1.465690    2.465310
     62          1           0       10.601898    0.466074    3.740652
     63          1           0       11.958930   -2.196354    1.447516
     64          1           0       10.284223   -2.206277    1.990384
     65          1           0       11.574585   -1.811807    3.133072
     66          1           0       -9.947459   -0.313912   -2.569553
     67          1           0      -11.531639    0.421741   -2.761101
     68          1           0      -11.304450   -1.288235   -3.163412
     69          1           0      -14.195850   -2.846329    0.034311
     70          1           0        8.428986   -0.068457    0.802041
     71          1           0       -8.805843    1.771043   -0.531488
     72          1           0       11.197812   -0.158515   -2.781267
     73          1           0        9.723466    0.590395   -2.164341
     74          1           0       11.172746    1.565890   -2.466800
     75          1           0       15.053811    0.554845    1.688140
     76          1           0        9.504218   -1.921975   -1.350069
     77          1           0       -5.481574   -0.666695    0.764872
     78          1           0       -6.993179   -0.775716    1.663215
     79          1           0       -6.876737   -1.477972    0.055786
     80          1           0       -6.712292    2.548527   -0.731053
     81          1           0        7.508207   -3.924332   -0.491012
     82          1           0        6.177241   -3.545812   -1.589233
     83          1           0        7.840985   -3.533849   -2.169665
     84          1           0        6.608629    0.076356   -0.637918
     85          1           0       -4.273542    0.864526    0.184478
     86          1           0        4.631479   -2.255655   -1.151934
     87          1           0       -4.620859    3.649780   -0.993381
     88          1           0        4.323589    0.737033   -0.649377
     89          1           0       -1.032845    4.376740   -0.537084
     90          1           0       -2.404636    4.700060    0.527236
     91          1           0       -2.559560    4.949171   -1.204141
     92          1           0       -2.315484    0.857510   -0.926722
     93          1           0        2.241039    1.552399   -0.605106
     94          1           0        2.380108   -2.548557   -0.424040
     95          1           0        0.975282   -1.913799   -1.276657
     96          1           0        2.465866   -2.245132   -2.154599
     97          1           0        0.148335    2.691422   -0.499986
     98          1           0       -0.222114   -0.280248   -1.043950
 ---------------------------------------------------------------------

 Normal termination of Gaussian 16 at Mon Nov 18 20:55:49 2019.
