 Gaussian 16, Revision A.03,
 Gaussian 16:  ES64L-G16RevA.03 25-Dec-2016

 ------------------------------------------------------------
 # wB97XD/Def2TZVP iop(3/107=0106300000,3/108=0106300000) opt
 ------------------------------------------------------------

 -----
 TITLE
 -----
 Symbolic Z-matrix:
 Charge =  0 Multiplicity = 1

 SCF Done:  E(RwB97XD) =  -1708.59066204     A.U. after   15 cycles
 SCF Done:  E(RwB97XD) =  -1708.59068041     A.U. after   10 cycles
 SCF Done:  E(RwB97XD) =  -1708.59068323     A.U. after    9 cycles
 SCF Done:  E(RwB97XD) =  -1708.59068444     A.U. after    8 cycles
 SCF Done:  E(RwB97XD) =  -1708.59068476     A.U. after    8 cycles
 SCF Done:  E(RwB97XD) =  -1708.59068490     A.U. after    8 cycles
 SCF Done:  E(RwB97XD) =  -1708.59068494     A.U. after    6 cycles
 Optimization completed.
    -- Stationary point found.

                         Standard orientation:
 ---------------------------------------------------------------------
 Center     Atomic      Atomic             Coordinates (Angstroms)
 Number     Number       Type             X           Y           Z
 ---------------------------------------------------------------------
      1          8           0      -13.910242   -2.309315    0.851208
      2          8           0       14.707064    0.947122    0.694577
      3          6           0      -11.778309    0.123777    1.296527
      4          6           0      -10.938388    0.182165   -0.013541
      5          6           0      -11.902547   -1.343604    1.741930
      6          6           0      -12.484341   -2.288527    0.693830
      7          6           0      -11.436527   -0.810472   -1.053669
      8          6           0       11.127580    0.093921    1.701988
      9          6           0      -11.094071    0.927613    2.408744
     10          6           0      -13.157844    0.747976    1.031351
     11          6           0       12.495641    0.799492    1.728413
     12          6           0      -12.098374   -1.913291   -0.709110
     13          6           0       13.438829    0.303715    0.646087
     14          6           0       10.606868   -0.038038    0.260431
     15          6           0       -9.464937   -0.053329    0.191781
     16          6           0       12.831309    0.595918   -0.709236
     17          6           0       11.374595    0.217800   -0.815633
     18          6           0       10.162411    0.933863    2.561500
     19          6           0       11.237581   -1.310508    2.329330
     20          6           0      -11.108066   -0.484682   -2.481243
     21          6           0       -8.503999    0.815732   -0.140979
     22          6           0        9.205854   -0.477836    0.141260
     23          6           0       10.882561    0.205220   -2.238454
     24          6           0       -7.068195    0.619947    0.015432
     25          6           0        8.778225   -1.513889   -0.593917
     26          6           0       -6.596167   -0.678546    0.606280
     27          6           0        7.390371   -1.958748   -0.739581
     28          6           0       -6.238103    1.615422   -0.380013
     29          6           0        7.220440   -3.439933   -0.951110
     30          6           0        6.365844   -1.076585   -0.696599
     31          6           0       -4.801473    1.643020   -0.323386
     32          6           0        4.957633   -1.363741   -0.769082
     33          6           0       -4.066579    2.695062   -0.740101
     34          6           0       -2.613508    2.809220   -0.740520
     35          6           0        4.007449   -0.403919   -0.735331
     36          6           0        2.575816   -0.608529   -0.797229
     37          6           0       -2.091875    4.222585   -0.719669
     38          6           0       -1.814865    1.713554   -0.775090
     39          6           0        1.766447    0.482745   -0.746675
     40          6           0        2.063588   -2.017552   -0.915858
     41          6           0       -0.382046    1.672358   -0.733708
     42          6           0        0.334493    0.524737   -0.794428
     43          1           0      -11.053992    1.188305   -0.430982
     44          1           0      -12.518837   -1.411201    2.640596
     45          1           0      -10.910840   -1.710623    2.018772
     46          1           0      -12.107859   -3.300060    0.898710
     47          1           0      -10.128362    0.502229    2.685015
     48          1           0      -10.922645    1.960024    2.095756
     49          1           0      -11.722947    0.947629    3.301306
     50          1           0      -13.675508    0.262518    0.206365
     51          1           0      -13.793308    0.657812    1.913676
     52          1           0      -13.052323    1.810391    0.798181
     53          1           0       12.359348    1.875599    1.585394
     54          1           0       12.945737    0.663595    2.717341
     55          1           0      -12.411838   -2.605307   -1.487819
     56          1           0       13.577119   -0.780306    0.747086
     57          1           0       -9.196740   -1.017337    0.611732
     58          1           0       13.395970    0.078693   -1.490105
     59          1           0       12.947259    1.666043   -0.917956
     60          1           0        9.219826    0.418471    2.746689
     61          1           0        9.944726    1.892561    2.087001
     62          1           0       10.617792    1.134909    3.533504
     63          1           0       11.949446   -1.937057    1.790470
     64          1           0       10.272426   -1.818415    2.309342
     65          1           0       11.561743   -1.240316    3.370464
     66          1           0      -10.034227   -0.325333   -2.605638
     67          1           0      -11.603936    0.442495   -2.782909
     68          1           0      -11.421457   -1.277178   -3.160205
     69          1           0      -14.290347   -2.763146    0.097176
     70          1           0        8.474923    0.050749    0.745009
     71          1           0       -8.802430    1.769242   -0.569716
     72          1           0       11.268534   -0.664422   -2.778639
     73          1           0        9.798379    0.193113   -2.312542
     74          1           0       11.259869    1.087591   -2.763153
     75          1           0       15.104286    0.766784    1.547900
     76          1           0        9.523796   -2.118010   -1.104429
     77          1           0       -5.514171   -0.734830    0.686851
     78          1           0       -7.012793   -0.818749    1.606760
     79          1           0       -6.931253   -1.522219   -0.002139
     80          1           0       -6.702442    2.506884   -0.793670
     81          1           0        7.530038   -3.994755   -0.061173
     82          1           0        6.198568   -3.725229   -1.188515
     83          1           0        7.859428   -3.777516   -1.771286
     84          1           0        6.621675   -0.024813   -0.608210
     85          1           0       -4.288192    0.782484    0.089108
     86          1           0        4.652134   -2.400033   -0.846104
     87          1           0       -4.604141    3.575106   -1.086050
     88          1           0        4.332699    0.629764   -0.651825
     89          1           0       -1.014030    4.284292   -0.844709
     90          1           0       -2.352869    4.715423    0.220659
     91          1           0       -2.553394    4.804544   -1.521546
     92          1           0       -2.300349    0.745835   -0.857522
     93          1           0        2.255213    1.449718   -0.660086
     94          1           0        2.391968   -2.619639   -0.065183
     95          1           0        0.979079   -2.066666   -0.957402
     96          1           0        2.453287   -2.494031   -1.818672
     97          1           0        0.162295    2.606071   -0.641266
     98          1           0       -0.210844   -0.408817   -0.882023
 ---------------------------------------------------------------------

 The electronic state is 1-A.
 Alpha  occ. eigenvalues --  -19.20221 -19.20023 -10.29109 -10.28636 -10.26071
 Alpha  occ. eigenvalues --  -10.25791 -10.25785 -10.25657 -10.25439 -10.25333
 Alpha  occ. eigenvalues --  -10.25277 -10.25112 -10.24861 -10.24741 -10.24688
 Alpha  occ. eigenvalues --  -10.24615 -10.24579 -10.24403 -10.24391 -10.24343
 Alpha  occ. eigenvalues --  -10.24336 -10.24243 -10.24204 -10.24197 -10.24163
 Alpha  occ. eigenvalues --  -10.24132 -10.24049 -10.23906 -10.23903 -10.23897
 Alpha  occ. eigenvalues --  -10.23807 -10.23804 -10.23499 -10.23465 -10.23295
 Alpha  occ. eigenvalues --  -10.23277 -10.23145 -10.22904 -10.22882 -10.22702
 Alpha  occ. eigenvalues --  -10.22175 -10.21593  -1.07721  -1.07342  -0.91127
 Alpha  occ. eigenvalues --   -0.90991  -0.89645  -0.89134  -0.88170  -0.87516
 Alpha  occ. eigenvalues --   -0.84911  -0.84502  -0.84374  -0.83200  -0.82436
 Alpha  occ. eigenvalues --   -0.80885  -0.80064  -0.78460  -0.77969  -0.76142
 Alpha  occ. eigenvalues --   -0.74739  -0.74260  -0.73910  -0.73867  -0.73566
 Alpha  occ. eigenvalues --   -0.73263  -0.73073  -0.72870  -0.71710  -0.68192
 Alpha  occ. eigenvalues --   -0.66901  -0.65894  -0.64626  -0.63111  -0.61841
 Alpha  occ. eigenvalues --   -0.61273  -0.60816  -0.60462  -0.58972  -0.58247
 Alpha  occ. eigenvalues --   -0.57895  -0.57010  -0.56800  -0.56040  -0.54677
 Alpha  occ. eigenvalues --   -0.54038  -0.53552  -0.53100  -0.52666  -0.52154
 Alpha  occ. eigenvalues --   -0.51602  -0.51383  -0.51148  -0.50559  -0.49733
 Alpha  occ. eigenvalues --   -0.48882  -0.48727  -0.48095  -0.47663  -0.47317
 Alpha  occ. eigenvalues --   -0.47252  -0.47149  -0.46951  -0.46934  -0.46817
 Alpha  occ. eigenvalues --   -0.46647  -0.46196  -0.45535  -0.45371  -0.44751
 Alpha  occ. eigenvalues --   -0.44678  -0.44415  -0.44126  -0.44021  -0.43814
 Alpha  occ. eigenvalues --   -0.43629  -0.43598  -0.43022  -0.42689  -0.42550
 Alpha  occ. eigenvalues --   -0.42422  -0.42033  -0.41847  -0.41413  -0.41140
 Alpha  occ. eigenvalues --   -0.40967  -0.40711  -0.40669  -0.40011  -0.39811
 Alpha  occ. eigenvalues --   -0.39617  -0.39511  -0.39031  -0.38970  -0.38683
 Alpha  occ. eigenvalues --   -0.38557  -0.38443  -0.38027  -0.37996  -0.37815
 Alpha  occ. eigenvalues --   -0.37234  -0.36144  -0.36009  -0.35762  -0.35356
 Alpha  occ. eigenvalues --   -0.35075  -0.33976  -0.33029  -0.31616  -0.31397
 Alpha  occ. eigenvalues --   -0.31276  -0.29274  -0.28669  -0.26880  -0.24483
 Alpha  occ. eigenvalues --   -0.21169
 Alpha virt. eigenvalues --   -0.04095  -0.00382   0.02823   0.05343   0.06708
 Alpha virt. eigenvalues --    0.08512   0.09670   0.09764   0.10077   0.10555
 Alpha virt. eigenvalues --    0.10948   0.11167   0.11342   0.11428   0.11599

 Mulliken charges:
               1
     1  O   -0.489411
     2  O   -0.476184
     3  C    0.064733
     4  C    0.235309
     5  C   -0.286619
     6  C    0.312604
     7  C   -0.022360
     8  C    0.151803
     9  C   -0.316197
    10  C   -0.355453
    11  C   -0.219730
    12  C   -0.332172
    13  C    0.132381
    14  C    0.017685
    15  C   -0.395777
    16  C   -0.132187
    17  C   -0.017929
    18  C   -0.395569
    19  C   -0.384983
    20  C   -0.361123
    21  C   -0.128462
    22  C   -0.297543
    23  C   -0.368984
    24  C    0.099459
    25  C   -0.216549
    26  C   -0.357717
    27  C    0.119625
    28  C   -0.122350
    29  C   -0.332449
    30  C   -0.176556
    31  C   -0.053093
    32  C   -0.041999
    33  C   -0.210215
    34  C    0.086454
    35  C   -0.206677
    36  C    0.106321
    37  C   -0.330957
    38  C   -0.130512
    39  C   -0.112860
    40  C   -0.368334
    41  C   -0.096854
    42  C   -0.121448
    43  H    0.064115
    44  H    0.102938
    45  H    0.101222
    46  H    0.052926
    47  H    0.120589
    48  H    0.108499
    49  H    0.117126
    50  H    0.133414
    51  H    0.110807
    52  H    0.099641
    53  H    0.098294
    54  H    0.091222
    55  H    0.093564
    56  H    0.054184
    57  H    0.152034
    58  H    0.104606
    59  H    0.103730
    60  H    0.122887
    61  H    0.126343
    62  H    0.118242
    63  H    0.110481
    64  H    0.133351
    65  H    0.109356
    66  H    0.137647
    67  H    0.115565
    68  H    0.105725
    69  H    0.304668
    70  H    0.136663
    71  H    0.095047
    72  H    0.118606
    73  H    0.148498
    74  H    0.117806
    75  H    0.307875
    76  H    0.120919
    77  H    0.109481
    78  H    0.128290
    79  H    0.128821
    80  H    0.091415
    81  H    0.122736
    82  H    0.103771
    83  H    0.116477
    84  H    0.115433
    85  H    0.096287
    86  H    0.115168
    87  H    0.099736
    88  H    0.091157
    89  H    0.104735
    90  H    0.126057
    91  H    0.117326
    92  H    0.099351
    93  H    0.092218
    94  H    0.127965
    95  H    0.112027
    96  H    0.129035
    97  H    0.085656
    98  H    0.081143
 Sum of Mulliken charges =  -0.00000

 Dipole moment (field-independent basis, Debye):
    X=              0.2408    Y=             -1.4402    Z=             -0.1015  Tot=              1.4637
 Quadrupole moment (field-independent basis, Debye-Ang):
   XX=           -279.0425   YY=           -243.0397   ZZ=           -258.9421
   XY=             -8.6389   XZ=             33.2989   YZ=              2.7438

 Normal termination of Gaussian 16 at Thu Nov 28 06:33:01 2019.
