 Gaussian 16, Revision A.03,
 Gaussian 16:  ES64L-G16RevA.03 25-Dec-2016

 ------------------------------------------------------------
 # wB97XD/Def2TZVP iop(3/107=0118700000,3/108=0118700000) opt
 ------------------------------------------------------------

 -----
 TITLE
 -----
 Symbolic Z-matrix:
 Charge =  0 Multiplicity = 1

 SCF Done:  E(RwB97XD) =  -1708.53480458     A.U. after   15 cycles
 SCF Done:  E(RwB97XD) =  -1708.53480904     A.U. after    8 cycles
 SCF Done:  E(RwB97XD) =  -1708.53480963     A.U. after    8 cycles
 SCF Done:  E(RwB97XD) =  -1708.53480992     A.U. after    6 cycles
 SCF Done:  E(RwB97XD) =  -1708.53480997     A.U. after    6 cycles
 SCF Done:  E(RwB97XD) =  -1708.53480998     A.U. after    6 cycles
 SCF Done:  E(RwB97XD) =  -1708.53480999     A.U. after    6 cycles
 Optimization completed.
    -- Stationary point found.

                         Standard orientation:
 ---------------------------------------------------------------------
 Center     Atomic      Atomic             Coordinates (Angstroms)
 Number     Number       Type             X           Y           Z
 ---------------------------------------------------------------------
      1          8           0      -13.896519   -2.321940    0.841404
      2          8           0       14.699123    0.936700    0.708882
      3          6           0      -11.773341    0.110467    1.296729
      4          6           0      -10.932546    0.175952   -0.011102
      5          6           0      -11.892248   -1.357947    1.737777
      6          6           0      -12.471074   -2.300660    0.687015
      7          6           0      -11.423955   -0.816017   -1.054130
      8          6           0       11.122814    0.069104    1.707073
      9          6           0      -11.094037    0.913652    2.411363
     10          6           0      -13.154481    0.729326    1.031625
     11          6           0       12.489645    0.774939    1.741596
     12          6           0      -12.082702   -1.921682   -0.713974
     13          6           0       13.432004    0.293396    0.652923
     14          6           0       10.601106   -0.043353    0.265173
     15          6           0       -9.458898   -0.053268    0.196542
     16          6           0       12.823900    0.602747   -0.697732
     17          6           0       11.367553    0.226008   -0.807838
     18          6           0       10.158166    0.895801    2.578424
     19          6           0       11.234417   -1.342988    2.314645
     20          6           0      -11.092135   -0.485757   -2.479320
     21          6           0       -8.501739    0.818935   -0.136104
     22          6           0        9.200027   -0.481395    0.141223
     23          6           0       10.874780    0.230407   -2.229942
     24          6           0       -7.065187    0.628297    0.023204
     25          6           0        8.772914   -1.506924   -0.607608
     26          6           0       -6.591034   -0.667011    0.618051
     27          6           0        7.384313   -1.948633   -0.758229
     28          6           0       -6.238128    1.624474   -0.372999
     29          6           0        7.212587   -3.427439   -0.980721
     30          6           0        6.362383   -1.065338   -0.709646
     31          6           0       -4.800899    1.655416   -0.313569
     32          6           0        4.953160   -1.350286   -0.786185
     33          6           0       -4.068313    2.706902   -0.732070
     34          6           0       -2.614569    2.821585   -0.729238
     35          6           0        4.005353   -0.390004   -0.745424
     36          6           0        2.572814   -0.593072   -0.810780
     37          6           0       -2.093826    4.234329   -0.693752
     38          6           0       -1.817379    1.726814   -0.773436
     39          6           0        1.764808    0.497072   -0.751723
     40          6           0        2.061207   -2.000596   -0.942144
     41          6           0       -0.383607    1.685396   -0.730554
     42          6           0        0.331907    0.539243   -0.800862
     43          1           0      -11.051965    1.182786   -0.426495
     44          1           0      -12.508590   -1.430110    2.636285
     45          1           0      -10.899108   -1.722560    2.013395
     46          1           0      -12.094272   -3.312482    0.890228
     47          1           0      -10.127340    0.490619    2.688460
     48          1           0      -10.925231    1.947319    2.100514
     49          1           0      -11.724913    0.929708    3.302747
     50          1           0      -13.668592    0.244543    0.203821
     51          1           0      -13.791113    0.632735    1.912608
     52          1           0      -13.052747    1.793203    0.802819
     53          1           0       12.352507    1.852833    1.611806
     54          1           0       12.940527    0.626904    2.728637
     55          1           0      -12.391759   -2.613052   -1.495187
     56          1           0       13.570575   -0.791984    0.740064
     57          1           0       -9.187327   -1.015671    0.618602
     58          1           0       13.388118    0.095669   -1.485711
     59          1           0       12.939604    1.675690   -0.892376
     60          1           0        9.216372    0.376601    2.757743
     61          1           0        9.938815    1.860584    2.116860
     62          1           0       10.614751    1.084288    3.552534
     63          1           0       11.946915   -1.961366    1.766958
     64          1           0       10.269557   -1.851498    2.287783
     65          1           0       11.558739   -1.286444    3.356708
     66          1           0      -10.018335   -0.321875   -2.599313
     67          1           0      -11.590558    0.440425   -2.780148
     68          1           0      -11.400255   -1.277945   -3.161221
     69          1           0      -14.275394   -2.773293    0.085151
     70          1           0        8.468779    0.039255    0.751795
     71          1           0       -8.803109    1.770767   -0.566941
     72          1           0       11.258762   -0.634143   -2.779818
     73          1           0        9.790385    0.221148   -2.303543
     74          1           0       11.253911    1.117822   -2.744880
     75          1           0       15.096611    0.747052    1.560169
     76          1           0        9.518111   -2.103894   -1.127439
     77          1           0       -5.508958   -0.720003    0.701458
     78          1           0       -7.010140   -0.805922    1.617791
     79          1           0       -6.922534   -1.512984    0.010685
     80          1           0       -6.703709    2.513917   -0.789977
     81          1           0        7.521418   -3.988994   -0.094675
     82          1           0        6.190334   -3.709776   -1.220658
     83          1           0        7.851749   -3.759521   -1.803131
     84          1           0        6.619679   -0.014522   -0.612516
     85          1           0       -4.286085    0.797381    0.102734
     86          1           0        4.646456   -2.385709   -0.872221
     87          1           0       -4.606060    3.585469   -1.082037
     88          1           0        4.331441    0.642807   -0.652835
     89          1           0       -1.015425    4.297647   -0.814392
     90          1           0       -2.358760    4.718396    0.250094
     91          1           0       -2.553110    4.823168   -1.492031
     92          1           0       -2.302919    0.759830   -0.866024
     93          1           0        2.253207    1.463549   -0.656093
     94          1           0        2.389284   -2.609847   -0.096333
     95          1           0        0.976630   -2.049722   -0.985223
     96          1           0        2.452382   -2.468995   -1.848670
     97          1           0        0.160503    2.618482   -0.628868
     98          1           0       -0.213201   -0.393722   -0.897654
 ---------------------------------------------------------------------

 The electronic state is 1-A.
 Alpha  occ. eigenvalues --  -19.20815 -19.20617 -10.29671 -10.29198 -10.26616
 Alpha  occ. eigenvalues --  -10.26355 -10.26352 -10.26220 -10.26003 -10.25906
 Alpha  occ. eigenvalues --  -10.25823 -10.25671 -10.25425 -10.25317 -10.25260
 Alpha  occ. eigenvalues --  -10.25189 -10.25150 -10.24973 -10.24965 -10.24912
 Alpha  occ. eigenvalues --  -10.24909 -10.24816 -10.24775 -10.24769 -10.24723
 Alpha  occ. eigenvalues --  -10.24701 -10.24620 -10.24473 -10.24471 -10.24469
 Alpha  occ. eigenvalues --  -10.24376 -10.24371 -10.24063 -10.24026 -10.23859
 Alpha  occ. eigenvalues --  -10.23849 -10.23710 -10.23469 -10.23446 -10.23269
 Alpha  occ. eigenvalues --  -10.22744 -10.22154  -1.08367  -1.07989  -0.91802
 Alpha  occ. eigenvalues --   -0.91660  -0.90298  -0.89787  -0.88823  -0.88170
 Alpha  occ. eigenvalues --   -0.85558  -0.85155  -0.85028  -0.83845  -0.83081
 Alpha  occ. eigenvalues --   -0.81525  -0.80701  -0.79095  -0.78600  -0.76759
 Alpha  occ. eigenvalues --   -0.75365  -0.74882  -0.74536  -0.74487  -0.74190
 Alpha  occ. eigenvalues --   -0.73888  -0.73699  -0.73491  -0.72349  -0.68797
 Alpha  occ. eigenvalues --   -0.67509  -0.66509  -0.65230  -0.63712  -0.62451
 Alpha  occ. eigenvalues --   -0.61873  -0.61430  -0.61061  -0.59576  -0.58850
 Alpha  occ. eigenvalues --   -0.58497  -0.57622  -0.57411  -0.56637  -0.55277
 Alpha  occ. eigenvalues --   -0.54647  -0.54154  -0.53706  -0.53269  -0.52755
 Alpha  occ. eigenvalues --   -0.52198  -0.51995  -0.51747  -0.51156  -0.50328
 Alpha  occ. eigenvalues --   -0.49474  -0.49320  -0.48678  -0.48252  -0.47903
 Alpha  occ. eigenvalues --   -0.47837  -0.47735  -0.47536  -0.47514  -0.47398
 Alpha  occ. eigenvalues --   -0.47227  -0.46762  -0.46106  -0.45941  -0.45317
 Alpha  occ. eigenvalues --   -0.45245  -0.44984  -0.44688  -0.44587  -0.44381
 Alpha  occ. eigenvalues --   -0.44199  -0.44160  -0.43579  -0.43242  -0.43107
 Alpha  occ. eigenvalues --   -0.42979  -0.42589  -0.42403  -0.41972  -0.41684
 Alpha  occ. eigenvalues --   -0.41518  -0.41259  -0.41224  -0.40559  -0.40358
 Alpha  occ. eigenvalues --   -0.40170  -0.40065  -0.39599  -0.39534  -0.39227
 Alpha  occ. eigenvalues --   -0.39104  -0.38977  -0.38576  -0.38537  -0.38361
 Alpha  occ. eigenvalues --   -0.37809  -0.36681  -0.36552  -0.36299  -0.35901
 Alpha  occ. eigenvalues --   -0.35618  -0.34514  -0.33567  -0.32165  -0.31946
 Alpha  occ. eigenvalues --   -0.31822  -0.29800  -0.29178  -0.27365  -0.24948
 Alpha  occ. eigenvalues --   -0.21620
 Alpha virt. eigenvalues --   -0.03825  -0.00109   0.03113   0.05639   0.07010
 Alpha virt. eigenvalues --    0.08819   0.09767   0.09817   0.10329   0.10626
 Alpha virt. eigenvalues --    0.11014   0.11258   0.11474   0.11517   0.11690

 Mulliken charges:
               1
     1  O   -0.485845
     2  O   -0.472087
     3  C    0.071837
     4  C    0.229875
     5  C   -0.292134
     6  C    0.304409
     7  C   -0.017890
     8  C    0.159762
     9  C   -0.320701
    10  C   -0.360515
    11  C   -0.225830
    12  C   -0.334377
    13  C    0.125237
    14  C    0.021725
    15  C   -0.390831
    16  C   -0.136418
    17  C   -0.020654
    18  C   -0.401292
    19  C   -0.391102
    20  C   -0.368897
    21  C   -0.134994
    22  C   -0.297585
    23  C   -0.373432
    24  C    0.102682
    25  C   -0.218788
    26  C   -0.361427
    27  C    0.121966
    28  C   -0.124662
    29  C   -0.337976
    30  C   -0.179436
    31  C   -0.054607
    32  C   -0.040445
    33  C   -0.212267
    34  C    0.090237
    35  C   -0.210094
    36  C    0.109999
    37  C   -0.336426
    38  C   -0.134961
    39  C   -0.116060
    40  C   -0.372002
    41  C   -0.095950
    42  C   -0.122096
    43  H    0.066883
    44  H    0.105132
    45  H    0.102463
    46  H    0.056225
    47  H    0.120823
    48  H    0.109853
    49  H    0.118514
    50  H    0.133360
    51  H    0.112315
    52  H    0.100961
    53  H    0.099959
    54  H    0.093340
    55  H    0.096092
    56  H    0.056051
    57  H    0.150789
    58  H    0.106916
    59  H    0.105464
    60  H    0.124206
    61  H    0.127665
    62  H    0.119607
    63  H    0.111755
    64  H    0.134107
    65  H    0.110863
    66  H    0.138731
    67  H    0.117293
    68  H    0.107488
    69  H    0.304449
    70  H    0.136841
    71  H    0.096941
    72  H    0.120429
    73  H    0.148921
    74  H    0.119343
    75  H    0.307714
    76  H    0.121776
    77  H    0.111168
    78  H    0.129461
    79  H    0.130109
    80  H    0.092904
    81  H    0.124395
    82  H    0.105384
    83  H    0.118104
    84  H    0.116396
    85  H    0.096829
    86  H    0.113873
    87  H    0.101122
    88  H    0.092613
    89  H    0.106121
    90  H    0.127723
    91  H    0.118894
    92  H    0.100844
    93  H    0.093688
    94  H    0.129218
    95  H    0.113551
    96  H    0.130298
    97  H    0.086290
    98  H    0.081797
 Sum of Mulliken charges =  -0.00000

 Dipole moment (field-independent basis, Debye):
    X=              0.2337    Y=             -1.4492    Z=             -0.1148  Tot=              1.4724
 Quadrupole moment (field-independent basis, Debye-Ang):
   XX=           -279.5540   YY=           -243.4993   ZZ=           -259.2910
   XY=             -8.8824   XZ=             33.1470   YZ=              2.8100

 Normal termination of Gaussian 16 at Wed Nov 27 04:31:30 2019.
