 Gaussian 16, Revision A.03,
 Gaussian 16:  ES64L-G16RevA.03 25-Dec-2016

 ------------------------------------------------------------
 # wB97XD/Def2TZVP iop(3/107=0100000000,3/108=0100000000) opt
 ------------------------------------------------------------

 -----
 TITLE
 -----
 Symbolic Z-matrix:
 Charge =  0 Multiplicity = 1

 SCF Done:  E(RwB97XD) =  -1708.62268965     A.U. after   14 cycles
 SCF Done:  E(RwB97XD) =  -1708.62361383     A.U. after   11 cycles
 SCF Done:  E(RwB97XD) =  -1708.62373931     A.U. after   11 cycles
 SCF Done:  E(RwB97XD) =  -1708.62378298     A.U. after   11 cycles
 SCF Done:  E(RwB97XD) =  -1708.62379731     A.U. after   10 cycles
 SCF Done:  E(RwB97XD) =  -1708.62380790     A.U. after   11 cycles
 SCF Done:  E(RwB97XD) =  -1708.62380995     A.U. after    9 cycles
 SCF Done:  E(RwB97XD) =  -1708.62381068     A.U. after   10 cycles
 SCF Done:  E(RwB97XD) =  -1708.62381086     A.U. after    7 cycles
 SCF Done:  E(RwB97XD) =  -1708.62381092     A.U. after    6 cycles
 Optimization completed.
    -- Stationary point found.

                         Standard orientation:
 ---------------------------------------------------------------------
 Center     Atomic      Atomic             Coordinates (Angstroms)
 Number     Number       Type             X           Y           Z
 ---------------------------------------------------------------------
      1          8           0      -13.918025   -2.303245    0.854883
      2          8           0       14.711909    0.951923    0.687871
      3          6           0      -11.781274    0.129595    1.296566
      4          6           0      -10.942059    0.185380   -0.014817
      5          6           0      -11.908191   -1.337669    1.743028
      6          6           0      -12.491957   -2.282802    0.695656
      7          6           0      -11.443969   -0.806753   -1.054180
      8          6           0       11.131410    0.102669    1.699473
      9          6           0      -11.094207    0.932821    2.408102
     10          6           0      -13.160077    0.756803    1.032161
     11          6           0       12.500022    0.808264    1.723008
     12          6           0      -12.107454   -1.908311   -0.708113
     13          6           0       13.443237    0.308309    0.642118
     14          6           0       10.610460   -0.035243    0.258033
     15          6           0       -9.468651   -0.053749    0.188848
     16          6           0       12.835242    0.595199   -0.714513
     17          6           0       11.378242    0.216612   -0.819245
     18          6           0       10.166182    0.946715    2.555722
     19          6           0       11.241162   -1.299567    2.332865
     20          6           0      -11.117574   -0.482173   -2.482855
     21          6           0       -8.505677    0.813912   -0.143081
     22          6           0        9.209276   -0.475547    0.140785
     23          6           0       10.885806    0.199102   -2.242179
     24          6           0       -7.070201    0.615053    0.011298
     25          6           0        8.781351   -1.516029   -0.588538
     26          6           0       -6.599351   -0.686136    0.597889
     27          6           0        7.393803   -1.962471   -0.731945
     28          6           0       -6.238549    1.610778   -0.382176
     29          6           0        7.225111   -3.444720   -0.939256
     30          6           0        6.367921   -1.081020   -0.690971
     31          6           0       -4.802151    1.636400   -0.327153
     32          6           0        4.960161   -1.369315   -0.761709
     33          6           0       -4.066051    2.689437   -0.741059
     34          6           0       -2.613241    2.803456   -0.743116
     35          6           0        4.008723   -0.409862   -0.730598
     36          6           0        2.577453   -0.615244   -0.790794
     37          6           0       -2.091458    4.217229   -0.728653
     38          6           0       -1.813706    1.707535   -0.773598
     39          6           0        1.767429    0.476534   -0.743519
     40          6           0        2.065018   -2.024974   -0.904060
     41          6           0       -0.381277    1.666614   -0.733422
     42          6           0        0.335861    0.518384   -0.790189
     43          1           0      -11.055680    1.191481   -0.432444
     44          1           0      -12.524032   -1.403671    2.641975
     45          1           0      -10.917144   -1.706214    2.019747
     46          1           0      -12.115664   -3.294387    0.900436
     47          1           0      -10.128991    0.505964    2.683434
     48          1           0      -10.921437    1.964825    2.094876
     49          1           0      -11.721850    0.954154    3.301401
     50          1           0      -13.679858    0.271462    0.208548
     51          1           0      -13.794640    0.669487    1.915306
     52          1           0      -13.052663    1.818560    0.797282
     53          1           0       12.363917    1.883763    1.576293
     54          1           0       12.950265    0.675981    2.712229
     55          1           0      -12.423453   -2.599942   -1.486026
     56          1           0       13.581658   -0.775190    0.747231
     57          1           0       -9.202306   -1.019074    0.606576
     58          1           0       13.399736    0.074813   -1.493297
     59          1           0       12.951183    1.664335   -0.927805
     60          1           0        9.223297    0.432647    2.742551
     61          1           0        9.949113    1.903651    2.077602
     62          1           0       10.621170    1.151304    3.527075
     63          1           0       11.952413   -1.928653    1.796336
     64          1           0       10.275925   -1.807195    2.315612
     65          1           0       11.565927   -1.225340    3.373442
     66          1           0      -10.043775   -0.325148   -2.609750
     67          1           0      -11.612176    0.445748   -2.784129
     68          1           0      -11.433922   -1.274266   -3.160810
     69          1           0      -14.298915   -2.758642    0.102274
     70          1           0        8.478594    0.056555    0.741533
     71          1           0       -8.802392    1.768880   -0.569493
     72          1           0       11.272982   -0.671354   -2.780073
     73          1           0        9.801720    0.185116   -2.315929
     74          1           0       11.261321    1.080563   -2.769587
     75          1           0       15.109749    0.773591    1.541252
     76          1           0        9.527022   -2.123074   -1.095154
     77          1           0       -5.517367   -0.744732    0.676044
     78          1           0       -7.013924   -0.828215    1.598884
     79          1           0       -6.937111   -1.527610   -0.011977
     80          1           0       -6.702113    2.504079   -0.792471
     81          1           0        7.537974   -3.996963   -0.048915
     82          1           0        6.202960   -3.731889   -1.172788
     83          1           0        7.861879   -3.783692   -1.760527
     84          1           0        6.622848   -0.028863   -0.605944
     85          1           0       -4.289858    0.773672    0.081650
     86          1           0        4.655474   -2.405980   -0.835199
     87          1           0       -4.603424    3.570878   -1.083351
     88          1           0        4.333322    0.624209   -0.650743
     89          1           0       -1.013795    4.278373   -0.854834
     90          1           0       -2.351414    4.714006    0.209840
     91          1           0       -2.553429    4.795960   -1.532514
     92          1           0       -2.298877    0.739395   -0.851227
     93          1           0        2.256213    1.443727   -0.660824
     94          1           0        2.393648   -2.624055   -0.051445
     95          1           0        0.980549   -2.074190   -0.944807
     96          1           0        2.453935   -2.504751   -1.805379
     97          1           0        0.162965    2.600681   -0.645344
     98          1           0       -0.209381   -0.415499   -0.873529
 ---------------------------------------------------------------------

 The electronic state is 1-A.
 Alpha  occ. eigenvalues --  -19.19916 -19.19719 -10.28823 -10.28350 -10.25793
 Alpha  occ. eigenvalues --  -10.25502 -10.25496 -10.25370 -10.25152 -10.25040
 Alpha  occ. eigenvalues --  -10.24999 -10.24827 -10.24571 -10.24447 -10.24395
 Alpha  occ. eigenvalues --  -10.24322 -10.24287 -10.24111 -10.24097 -10.24053
 Alpha  occ. eigenvalues --  -10.24044 -10.23950 -10.23915 -10.23902 -10.23878
 Alpha  occ. eigenvalues --  -10.23841 -10.23758 -10.23617 -10.23613 -10.23605
 Alpha  occ. eigenvalues --  -10.23519 -10.23515 -10.23211 -10.23179 -10.23006
 Alpha  occ. eigenvalues --  -10.22985 -10.22857 -10.22615 -10.22593 -10.22412
 Alpha  occ. eigenvalues --  -10.21885 -10.21305  -1.07393  -1.07014  -0.90781
 Alpha  occ. eigenvalues --   -0.90648  -0.89311  -0.88799  -0.87836  -0.87182
 Alpha  occ. eigenvalues --   -0.84579  -0.84168  -0.84039  -0.82870  -0.82106
 Alpha  occ. eigenvalues --   -0.80557  -0.79739  -0.78135  -0.77647  -0.75827
 Alpha  occ. eigenvalues --   -0.74419  -0.73943  -0.73590  -0.73550  -0.73246
 Alpha  occ. eigenvalues --   -0.72944  -0.72752  -0.72553  -0.71384  -0.67882
 Alpha  occ. eigenvalues --   -0.66588  -0.65578  -0.64317  -0.62802  -0.61527
 Alpha  occ. eigenvalues --   -0.60964  -0.60501  -0.60155  -0.58662  -0.57937
 Alpha  occ. eigenvalues --   -0.57586  -0.56696  -0.56487  -0.55733  -0.54369
 Alpha  occ. eigenvalues --   -0.53722  -0.53242  -0.52787  -0.52354  -0.51845
 Alpha  occ. eigenvalues --   -0.51296  -0.51066  -0.50838  -0.50251  -0.49426
 Alpha  occ. eigenvalues --   -0.48576  -0.48420  -0.47794  -0.47358  -0.47014
 Alpha  occ. eigenvalues --   -0.46950  -0.46847  -0.46650  -0.46635  -0.46517
 Alpha  occ. eigenvalues --   -0.46348  -0.45903  -0.45240  -0.45076  -0.44458
 Alpha  occ. eigenvalues --   -0.44384  -0.44121  -0.43834  -0.43727  -0.43520
 Alpha  occ. eigenvalues --   -0.43336  -0.43306  -0.42734  -0.42403  -0.42263
 Alpha  occ. eigenvalues --   -0.42134  -0.41744  -0.41559  -0.41123  -0.40858
 Alpha  occ. eigenvalues --   -0.40681  -0.40428  -0.40382  -0.39726  -0.39527
 Alpha  occ. eigenvalues --   -0.39330  -0.39224  -0.38739  -0.38677  -0.38399
 Alpha  occ. eigenvalues --   -0.38274  -0.38163  -0.37752  -0.37704  -0.37531
 Alpha  occ. eigenvalues --   -0.36935  -0.35864  -0.35726  -0.35483  -0.35071
 Alpha  occ. eigenvalues --   -0.34790  -0.33695  -0.32746  -0.31329  -0.31113
 Alpha  occ. eigenvalues --   -0.30990  -0.28998  -0.28399  -0.26626  -0.24239
 Alpha  occ. eigenvalues --   -0.20933
 Alpha virt. eigenvalues --   -0.04236  -0.00526   0.02671   0.05186   0.06548
 Alpha virt. eigenvalues --    0.08345   0.09599   0.09737   0.09956   0.10515
 Alpha virt. eigenvalues --    0.10908   0.11108   0.11265   0.11380   0.11548

 Mulliken charges:
               1
     1  O   -0.491315
     2  O   -0.478411
     3  C    0.060787
     4  C    0.238226
     5  C   -0.283490
     6  C    0.317044
     7  C   -0.024908
     8  C    0.147745
     9  C   -0.313622
    10  C   -0.352464
    11  C   -0.216231
    12  C   -0.330744
    13  C    0.136325
    14  C    0.015164
    15  C   -0.398395
    16  C   -0.129813
    17  C   -0.016626
    18  C   -0.392396
    19  C   -0.381531
    20  C   -0.356705
    21  C   -0.124797
    22  C   -0.297548
    23  C   -0.366141
    24  C    0.097737
    25  C   -0.215047
    26  C   -0.355571
    27  C    0.118284
    28  C   -0.121134
    29  C   -0.329209
    30  C   -0.174897
    31  C   -0.052076
    32  C   -0.042813
    33  C   -0.209157
    34  C    0.084254
    35  C   -0.204849
    36  C    0.104365
    37  C   -0.327833
    38  C   -0.127810
    39  C   -0.111176
    40  C   -0.366211
    41  C   -0.097401
    42  C   -0.121056
    43  H    0.062603
    44  H    0.101702
    45  H    0.100504
    46  H    0.051075
    47  H    0.120422
    48  H    0.107705
    49  H    0.116311
    50  H    0.133419
    51  H    0.109908
    52  H    0.098856
    53  H    0.097336
    54  H    0.090014
    55  H    0.092125
    56  H    0.053151
    57  H    0.152681
    58  H    0.103269
    59  H    0.102745
    60  H    0.122183
    61  H    0.125551
    62  H    0.117434
    63  H    0.109734
    64  H    0.132889
    65  H    0.108490
    66  H    0.136992
    67  H    0.114562
    68  H    0.104713
    69  H    0.304767
    70  H    0.136608
    71  H    0.093958
    72  H    0.117501
    73  H    0.148163
    74  H    0.116904
    75  H    0.307946
    76  H    0.120379
    77  H    0.108496
    78  H    0.127606
    79  H    0.128067
    80  H    0.090583
    81  H    0.121750
    82  H    0.102801
    83  H    0.115553
    84  H    0.114870
    85  H    0.095955
    86  H    0.115841
    87  H    0.098965
    88  H    0.090343
    89  H    0.103922
    90  H    0.125081
    91  H    0.116434
    92  H    0.098458
    93  H    0.091398
    94  H    0.127239
    95  H    0.111150
    96  H    0.128293
    97  H    0.085273
    98  H    0.080774
 Sum of Mulliken charges =  -0.00000

 Dipole moment (field-independent basis, Debye):
    X=              0.2449    Y=             -1.4408    Z=             -0.0968  Tot=              1.4646
 Quadrupole moment (field-independent basis, Debye-Ang):
   XX=           -278.7435   YY=           -242.7916   ZZ=           -258.7599
   XY=             -8.5651   XZ=             33.3442   YZ=              2.7135

 Normal termination of Gaussian 16 at Sat Nov 16 10:06:55 2019.
