 Gaussian 16, Revision A.03,
 Gaussian 16:  ES64L-G16RevA.03 25-Dec-2016

 ------------------------------------------------------------
 # wB97XD/Def2TZVP iop(3/107=0050000000,3/108=0050000000) opt
 ------------------------------------------------------------

 -----
 TITLE
 -----
 Symbolic Z-matrix:
 Charge =  0 Multiplicity = 1

 SCF Done:  E(RwB97XD) =  -1709.02772734     A.U. after   14 cycles
 SCF Done:  E(RwB97XD) =  -1709.02907423     A.U. after   12 cycles
 SCF Done:  E(RwB97XD) =  -1709.02924320     A.U. after   11 cycles
 SCF Done:  E(RwB97XD) =  -1709.02929929     A.U. after   11 cycles
 SCF Done:  E(RwB97XD) =  -1709.02931667     A.U. after   10 cycles
 SCF Done:  E(RwB97XD) =  -1709.02932504     A.U. after   10 cycles
 SCF Done:  E(RwB97XD) =  -1709.02932937     A.U. after   10 cycles
 SCF Done:  E(RwB97XD) =  -1709.02933152     A.U. after   10 cycles
 SCF Done:  E(RwB97XD) =  -1709.02933224     A.U. after    9 cycles
 SCF Done:  E(RwB97XD) =  -1709.02933244     A.U. after    7 cycles
 SCF Done:  E(RwB97XD) =  -1709.02933267     A.U. after    7 cycles
 SCF Done:  E(RwB97XD) =  -1709.02933272     A.U. after    6 cycles
 Optimization completed.
    -- Stationary point found.

                         Standard orientation:
 ---------------------------------------------------------------------
 Center     Atomic      Atomic             Coordinates (Angstroms)
 Number     Number       Type             X           Y           Z
 ---------------------------------------------------------------------
      1          8           0      -13.994705   -2.248309    0.876093
      2          8           0       14.749003    1.017084    0.649032
      3          6           0      -11.807791    0.179829    1.310949
      4          6           0      -10.976662    0.223820   -0.013127
      5          6           0      -11.965701   -1.290781    1.750252
      6          6           0      -12.567400   -2.225653    0.698365
      7          6           0      -11.519178   -0.748339   -1.056536
      8          6           0       11.165215    0.160884    1.687772
      9          6           0      -11.090429    0.960589    2.425817
     10          6           0      -13.176822    0.844911    1.063798
     11          6           0       12.536137    0.872130    1.697741
     12          6           0      -12.199349   -1.840299   -0.709070
     13          6           0       13.479920    0.364913    0.616129
     14          6           0       10.641275   -0.004558    0.245004
     15          6           0       -9.504189   -0.055518    0.169736
     16          6           0       12.862595    0.630782   -0.743935
     17          6           0       11.405293    0.239095   -0.838522
     18          6           0       10.197003    1.022229    2.532010
     19          6           0       11.278668   -1.232890    2.349558
     20          6           0      -11.216228   -0.416638   -2.492610
     21          6           0       -8.520765    0.797328   -0.150336
     22          6           0        9.240155   -0.456323    0.137344
     23          6           0       10.906584    0.202324   -2.262381
     24          6           0       -7.087584    0.566004   -0.019203
     25          6           0        8.817184   -1.529236   -0.550486
     26          6           0       -6.629673   -0.762438    0.523171
     27          6           0        7.433763   -1.995519   -0.680100
     28          6           0       -6.240742    1.561707   -0.394350
     29          6           0        7.282710   -3.487979   -0.849277
     30          6           0        6.393213   -1.124934   -0.660662
     31          6           0       -4.805103    1.568424   -0.357347
     32          6           0        4.989262   -1.427219   -0.720335
     33          6           0       -4.058345    2.628286   -0.748226
     34          6           0       -2.606998    2.739859   -0.766143
     35          6           0        4.024543   -0.474625   -0.712103
     36          6           0        2.595875   -0.688586   -0.760838
     37          6           0       -2.082987    4.156706   -0.792252
     38          6           0       -1.801062    1.641988   -0.773952
     39          6           0        1.779141    0.405662   -0.737541
     40          6           0        2.083243   -2.104454   -0.835412
     41          6           0       -0.371086    1.600481   -0.744447
     42          6           0        0.350034    0.447702   -0.775991
     43          1           0      -11.069085    1.234470   -0.420373
     44          1           0      -12.580181   -1.350234    2.649312
     45          1           0      -10.982874   -1.679290    2.024809
     46          1           0      -12.190986   -3.239597    0.889404
     47          1           0      -10.131621    0.513049    2.686700
     48          1           0      -10.901348    1.992017    2.123272
     49          1           0      -11.705962    0.985261    3.326718
     50          1           0      -13.720487    0.374550    0.248113
     51          1           0      -13.801515    0.776234    1.954758
     52          1           0      -13.047294    1.902898    0.826166
     53          1           0       12.396334    1.944739    1.542516
     54          1           0       12.990768    0.752115    2.685335
     55          1           0      -12.542938   -2.517277   -1.487346
     56          1           0       13.627482   -0.715034    0.732998
     57          1           0       -9.257960   -1.036410    0.559015
     58          1           0       13.427882    0.104255   -1.517080
     59          1           0       12.969313    1.696670   -0.973318
     60          1           0        9.254091    0.512812    2.727004
     61          1           0        9.980007    1.970866    2.039097
     62          1           0       10.649781    1.243541    3.500011
     63          1           0       11.983912   -1.873859    1.820803
     64          1           0       10.313976   -1.739890    2.351359
     65          1           0       11.612097   -1.140489    3.385244
     66          1           0      -10.143318   -0.283550   -2.645124
     67          1           0      -11.696776    0.523762   -2.776139
     68          1           0      -11.565530   -1.194578   -3.170104
     69          1           0      -14.382482   -2.717176    0.136049
     70          1           0        8.506941    0.096860    0.713521
     71          1           0       -8.799612    1.768872   -0.548127
     72          1           0       11.309856   -0.661782   -2.797839
     73          1           0        9.823575    0.165190   -2.331455
     74          1           0       11.258319    1.088844   -2.796972
     75          1           0       15.156797    0.838606    1.497057
     76          1           0        9.567825   -2.151892   -1.027692
     77          1           0       -5.548336   -0.842436    0.580102
     78          1           0       -7.027089   -0.926475    1.527214
     79          1           0       -6.991129   -1.580455   -0.103949
     80          1           0       -6.696574    2.472607   -0.771238
     81          1           0        7.602835   -4.014129    0.053969
     82          1           0        6.264272   -3.793354   -1.072605
     83          1           0        7.920392   -3.841576   -1.663172
     84          1           0        6.636899   -0.069176   -0.604156
     85          1           0       -4.300888    0.687211    0.017574
     86          1           0        4.694760   -2.467222   -0.765358
     87          1           0       -4.593868    3.521597   -1.058151
     88          1           0        4.341732    0.562746   -0.660841
     89          1           0       -1.008209    4.213967   -0.937534
     90          1           0       -2.325065    4.674887    0.139233
     91          1           0       -2.555926    4.718845   -1.600864
     92          1           0       -2.285579    0.672681   -0.819917
     93          1           0        2.268255    1.373786   -0.682676
     94          1           0        2.412371   -2.681118    0.031757
     95          1           0        0.999302   -2.155262   -0.871985
     96          1           0        2.467840   -2.608134   -1.724886
     97          1           0        0.173918    2.535296   -0.685432
     98          1           0       -0.195611   -0.487049   -0.830560
 ---------------------------------------------------------------------

 The electronic state is 1-A.
 Alpha  occ. eigenvalues --  -19.17455 -19.17267 -10.26567 -10.26077 -10.23602
 Alpha  occ. eigenvalues --  -10.23204 -10.23183 -10.23086 -10.22863 -10.22809
 Alpha  occ. eigenvalues --  -10.22683 -10.22553 -10.22240 -10.22088 -10.22058
 Alpha  occ. eigenvalues --  -10.21972 -10.21954 -10.21773 -10.21736 -10.21726
 Alpha  occ. eigenvalues --  -10.21708 -10.21615 -10.21605 -10.21599 -10.21528
 Alpha  occ. eigenvalues --  -10.21502 -10.21417 -10.21317 -10.21304 -10.21299
 Alpha  occ. eigenvalues --  -10.21240 -10.21230 -10.20932 -10.20895 -10.20702
 Alpha  occ. eigenvalues --  -10.20632 -10.20565 -10.20326 -10.20305 -10.20118
 Alpha  occ. eigenvalues --  -10.19588 -10.19040  -1.04748  -1.04384  -0.88005
 Alpha  occ. eigenvalues --   -0.87898  -0.86646  -0.86130  -0.85170  -0.84512
 Alpha  occ. eigenvalues --   -0.81939  -0.81494  -0.81367  -0.80239  -0.79474
 Alpha  occ. eigenvalues --   -0.77944  -0.77146  -0.75555  -0.75087  -0.73313
 Alpha  occ. eigenvalues --   -0.71873  -0.71423  -0.71052  -0.71031  -0.70693
 Alpha  occ. eigenvalues --   -0.70403  -0.70196  -0.70040  -0.68791  -0.65392
 Alpha  occ. eigenvalues --   -0.64072  -0.63054  -0.61826  -0.60317  -0.59007
 Alpha  occ. eigenvalues --   -0.58479  -0.57964  -0.57683  -0.56165  -0.55437
 Alpha  occ. eigenvalues --   -0.55082  -0.54142  -0.53944  -0.53245  -0.51855
 Alpha  occ. eigenvalues --   -0.51142  -0.50714  -0.50228  -0.49807  -0.49313
 Alpha  occ. eigenvalues --   -0.48801  -0.48482  -0.48302  -0.47735  -0.46925
 Alpha  occ. eigenvalues --   -0.46066  -0.45907  -0.45336  -0.44866  -0.44535
 Alpha  occ. eigenvalues --   -0.44472  -0.44379  -0.44194  -0.44181  -0.44067
 Alpha  occ. eigenvalues --   -0.43905  -0.43491  -0.42833  -0.42657  -0.42045
 Alpha  occ. eigenvalues --   -0.41951  -0.41697  -0.41435  -0.41303  -0.41090
 Alpha  occ. eigenvalues --   -0.40951  -0.40867  -0.40359  -0.40055  -0.39903
 Alpha  occ. eigenvalues --   -0.39747  -0.39353  -0.39167  -0.38727  -0.38533
 Alpha  occ. eigenvalues --   -0.38321  -0.38093  -0.37981  -0.37368  -0.37157
 Alpha  occ. eigenvalues --   -0.36937  -0.36839  -0.36361  -0.36234  -0.36033
 Alpha  occ. eigenvalues --   -0.35939  -0.35813  -0.35456  -0.35265  -0.35169
 Alpha  occ. eigenvalues --   -0.34455  -0.33518  -0.33358  -0.33131  -0.32683
 Alpha  occ. eigenvalues --   -0.32401  -0.31321  -0.30337  -0.28916  -0.28764
 Alpha  occ. eigenvalues --   -0.28583  -0.26644  -0.26047  -0.24396  -0.22084
 Alpha  occ. eigenvalues --   -0.18895
 Alpha virt. eigenvalues --   -0.05531  -0.01880   0.01256   0.03767   0.05092
 Alpha virt. eigenvalues --    0.06819   0.08344   0.09288   0.09367   0.10021
 Alpha virt. eigenvalues --    0.10044   0.10442   0.10632   0.10720   0.10930

 Mulliken charges:
               1
     1  O   -0.509484
     2  O   -0.499400
     3  C    0.018398
     4  C    0.262757
     5  C   -0.246289
     6  C    0.363159
     7  C   -0.047451
     8  C    0.108938
     9  C   -0.282532
    10  C   -0.315831
    11  C   -0.177407
    12  C   -0.313744
    13  C    0.177209
    14  C   -0.013362
    15  C   -0.418269
    16  C   -0.103127
    17  C   -0.002927
    18  C   -0.355775
    19  C   -0.340792
    20  C   -0.308349
    21  C   -0.081745
    22  C   -0.301107
    23  C   -0.331784
    24  C    0.079444
    25  C   -0.187848
    26  C   -0.330175
    27  C    0.103487
    28  C   -0.106123
    29  C   -0.293045
    30  C   -0.160840
    31  C   -0.048000
    32  C   -0.048156
    33  C   -0.193407
    34  C    0.063725
    35  C   -0.186058
    36  C    0.086237
    37  C   -0.292399
    38  C   -0.107405
    39  C   -0.093578
    40  C   -0.340805
    41  C   -0.097799
    42  C   -0.117132
    43  H    0.045822
    44  H    0.087659
    45  H    0.091362
    46  H    0.030307
    47  H    0.116723
    48  H    0.097919
    49  H    0.106269
    50  H    0.131601
    51  H    0.098550
    52  H    0.089012
    53  H    0.085762
    54  H    0.075867
    55  H    0.075271
    56  H    0.041160
    57  H    0.156004
    58  H    0.088217
    59  H    0.090709
    60  H    0.113772
    61  H    0.115325
    62  H    0.107366
    63  H    0.100497
    64  H    0.126134
    65  H    0.098014
    66  H    0.128558
    67  H    0.102673
    68  H    0.093165
    69  H    0.304960
    70  H    0.135414
    71  H    0.080964
    72  H    0.104070
    73  H    0.143135
    74  H    0.106293
    75  H    0.307918
    76  H    0.111735
    77  H    0.097357
    78  H    0.119076
    79  H    0.118830
    80  H    0.081062
    81  H    0.110078
    82  H    0.092072
    83  H    0.104616
    84  H    0.108202
    85  H    0.094383
    86  H    0.122551
    87  H    0.089643
    88  H    0.080853
    89  H    0.094647
    90  H    0.113312
    91  H    0.105893
    92  H    0.090042
    93  H    0.081635
    94  H    0.118176
    95  H    0.101058
    96  H    0.119253
    97  H    0.081161
    98  H    0.076684
 Sum of Mulliken charges =  -0.00000

 Dipole moment (field-independent basis, Debye):
    X=              0.2712    Y=             -1.4652    Z=             -0.0568  Tot=              1.4911
 Quadrupole moment (field-independent basis, Debye-Ang):
   XX=           -276.6140   YY=           -240.8587   ZZ=           -257.1823
   XY=             -8.4548   XZ=             33.6069   YZ=              2.4556

 Normal termination of Gaussian 16 at Thu Nov 21 23:46:59 2019.
