 Gaussian 16, Revision A.03,
 Gaussian 16:  ES64L-G16RevA.03 25-Dec-2016

 ------------------------------------------------------------
 # wB97XD/Def2TZVP iop(3/107=0150000000,3/108=0150000000) opt
 ------------------------------------------------------------

 -----
 TITLE
 -----
 Symbolic Z-matrix:
 Charge =  0 Multiplicity = 1

 SCF Done:  E(RwB97XD) =  -1708.43985412     A.U. after   15 cycles
 SCF Done:  E(RwB97XD) =  -1708.44006429     A.U. after   11 cycles
 SCF Done:  E(RwB97XD) =  -1708.44009096     A.U. after   11 cycles
 SCF Done:  E(RwB97XD) =  -1708.44009843     A.U. after   10 cycles
 SCF Done:  E(RwB97XD) =  -1708.44010058     A.U. after   10 cycles
 SCF Done:  E(RwB97XD) =  -1708.44010149     A.U. after   10 cycles
 SCF Done:  E(RwB97XD) =  -1708.44010188     A.U. after    8 cycles
 SCF Done:  E(RwB97XD) =  -1708.44010203     A.U. after    7 cycles
 SCF Done:  E(RwB97XD) =  -1708.44010209     A.U. after    7 cycles
 SCF Done:  E(RwB97XD) =  -1708.44010212     A.U. after    6 cycles
 SCF Done:  E(RwB97XD) =  -1708.44010213     A.U. after    6 cycles
 Optimization completed.
    -- Stationary point found.

                         Standard orientation:
 ---------------------------------------------------------------------
 Center     Atomic      Atomic             Coordinates (Angstroms)
 Number     Number       Type             X           Y           Z
 ---------------------------------------------------------------------
      1          8           0      -13.856582   -2.362559    0.839041
      2          8           0       14.669821    0.910536    0.807527
      3          6           0      -11.758820    0.077578    1.298830
      4          6           0      -10.917110    0.152014   -0.005042
      5          6           0      -11.862284   -1.390329    1.739839
      6          6           0      -12.432534   -2.336344    0.689506
      7          6           0      -11.393087   -0.845423   -1.047928
      8          6           0       11.108936   -0.068718    1.736661
      9          6           0      -11.091783    0.888143    2.413172
     10          6           0      -13.145080    0.679530    1.030774
     11          6           0       12.467885    0.643283    1.826955
     12          6           0      -12.041811   -1.956515   -0.709997
     13          6           0       13.410281    0.262504    0.700803
     14          6           0       10.583329   -0.060346    0.293903
     15          6           0       -9.442629   -0.060076    0.207973
     16          6           0       12.796584    0.677560   -0.617230
     17          6           0       11.343351    0.301229   -0.754152
     18          6           0       10.140857    0.668736    2.678097
     19          6           0       11.235097   -1.525481    2.218328
     20          6           0      -11.056882   -0.512887   -2.470390
     21          6           0       -8.495666    0.820788   -0.123740
     22          6           0        9.183544   -0.493003    0.136888
     23          6           0       10.846375    0.417290   -2.169027
     24          6           0       -7.057002    0.644566    0.043115
     25          6           0        8.763960   -1.461141   -0.685369
     26          6           0       -6.575744   -0.644445    0.643375
     27          6           0        7.375529   -1.893628   -0.868903
     28          6           0       -6.238857    1.645498   -0.349945
     29          6           0        7.205570   -3.357365   -1.170457
     30          6           0        6.356987   -1.013656   -0.779760
     31          6           0       -4.800222    1.687588   -0.281799
     32          6           0        4.946241   -1.293490   -0.880733
     33          6           0       -4.074937    2.742681   -0.694723
     34          6           0       -2.619789    2.860739   -0.679944
     35          6           0        4.001763   -0.336632   -0.797704
     36          6           0        2.567692   -0.536032   -0.882555
     37          6           0       -2.103274    4.270814   -0.583965
     38          6           0       -1.824701    1.770812   -0.765359
     39          6           0        1.760968    0.547403   -0.776932
     40          6           0        2.060189   -1.935405   -1.084756
     41          6           0       -0.388634    1.729107   -0.716194
     42          6           0        0.325927    0.589990   -0.833077
     43          1           0      -11.046735    1.157519   -0.421765
     44          1           0      -12.478410   -1.468335    2.638429
     45          1           0      -10.865188   -1.745323    2.014991
     46          1           0      -12.051596   -3.346268    0.894786
     47          1           0      -10.121821    0.474603    2.694263
     48          1           0      -10.931621    1.922930    2.100352
     49          1           0      -11.726527    0.899592    3.302157
     50          1           0      -13.651783    0.187975    0.202049
     51          1           0      -13.782422    0.575010    1.910687
     52          1           0      -13.054484    1.744751    0.802317
     53          1           0       12.320770    1.727301    1.786852
     54          1           0       12.923278    0.417598    2.797495
     55          1           0      -12.340765   -2.651786   -1.492006
     56          1           0       13.558746   -0.825334    0.697265
     57          1           0       -9.161866   -1.018083    0.635036
     58          1           0       13.362018    0.241575   -1.446068
     59          1           0       12.904001    1.764047   -0.721655
     60          1           0        9.204659    0.126116    2.813553
     61          1           0        9.910674    1.667942    2.302326
     62          1           0       10.599585    0.776262    3.663719
     63          1           0       11.951811   -2.087436    1.617469
     64          1           0       10.274324   -2.038308    2.149088
     65          1           0       11.561633   -1.555945    3.261060
     66          1           0       -9.983944   -0.337247   -2.583314
     67          1           0      -11.563616    0.407977   -2.774094
     68          1           0      -11.352497   -1.309060   -3.153510
     69          1           0      -14.232367   -2.813915    0.081076
     70          1           0        8.447971   -0.020042    0.780807
     71          1           0       -8.805156    1.768276   -0.559149
     72          1           0       11.233640   -0.398705   -2.786830
     73          1           0        9.761590    0.407546   -2.240364
     74          1           0       11.219722    1.345304   -2.611823
     75          1           0       15.071381    0.656540    1.640099
     76          1           0        9.512154   -2.014501   -1.248292
     77          1           0       -5.493520   -0.688456    0.732444
     78          1           0       -6.999497   -0.783678    1.641309
     79          1           0       -6.898119   -1.494429    0.036446
     80          1           0       -6.708833    2.530855   -0.771356
     81          1           0        7.512939   -3.964743   -0.314542
     82          1           0        6.184074   -3.627325   -1.428288
     83          1           0        7.847955   -3.643982   -2.007550
     84          1           0        6.614480    0.030402   -0.624256
     85          1           0       -4.279909    0.833865    0.137448
     86          1           0        4.639371   -2.323202   -1.021330
     87          1           0       -4.614151    3.619723   -1.047393
     88          1           0        4.327457    0.690362   -0.651133
     89          1           0       -1.023670    4.341020   -0.691807
     90          1           0       -2.379250    4.716539    0.375565
     91          1           0       -2.557134    4.889178   -1.363072
     92          1           0       -2.309525    0.808182   -0.901122
     93          1           0        2.246906    1.509369   -0.632511
     94          1           0        2.385161   -2.583879   -0.267165
     95          1           0        0.975823   -1.984535   -1.137187
     96          1           0        2.458842   -2.358434   -2.010354
     97          1           0        0.153646    2.657716   -0.570069
     98          1           0       -0.217439   -0.338557   -0.974842
 ---------------------------------------------------------------------

 The electronic state is 1-A.
 Alpha  occ. eigenvalues --  -19.22276 -19.22081 -10.31078 -10.30599 -10.27976
 Alpha  occ. eigenvalues --  -10.27761 -10.27756 -10.27622 -10.27405 -10.27327
 Alpha  occ. eigenvalues --  -10.27186 -10.27061 -10.26818 -10.26741 -10.26680
 Alpha  occ. eigenvalues --  -10.26609 -10.26567 -10.26385 -10.26383 -10.26332
 Alpha  occ. eigenvalues --  -10.26323 -10.26242 -10.26207 -10.26169 -10.26131
 Alpha  occ. eigenvalues --  -10.26088 -10.26035 -10.25894 -10.25885 -10.25883
 Alpha  occ. eigenvalues --  -10.25796 -10.25785 -10.25474 -10.25416 -10.25264
 Alpha  occ. eigenvalues --  -10.25262 -10.25115 -10.24872 -10.24845 -10.24679
 Alpha  occ. eigenvalues --  -10.24158 -10.23553  -1.09969  -1.09604  -0.93486
 Alpha  occ. eigenvalues --   -0.93329  -0.91932  -0.91422  -0.90455  -0.89804
 Alpha  occ. eigenvalues --   -0.87174  -0.86781  -0.86662  -0.85452  -0.84687
 Alpha  occ. eigenvalues --   -0.83121  -0.82286  -0.80681  -0.80176  -0.78296
 Alpha  occ. eigenvalues --   -0.76926  -0.76434  -0.76098  -0.76035  -0.75740
 Alpha  occ. eigenvalues --   -0.75444  -0.75257  -0.75039  -0.73935  -0.70291
 Alpha  occ. eigenvalues --   -0.69011  -0.68029  -0.66718  -0.65187  -0.63951
 Alpha  occ. eigenvalues --   -0.63348  -0.62939  -0.62533  -0.61059  -0.60332
 Alpha  occ. eigenvalues --   -0.59972  -0.59117  -0.58900  -0.58094  -0.56735
 Alpha  occ. eigenvalues --   -0.56123  -0.55619  -0.55177  -0.54733  -0.54208
 Alpha  occ. eigenvalues --   -0.53645  -0.53481  -0.53201  -0.52610  -0.51780
 Alpha  occ. eigenvalues --   -0.50907  -0.50756  -0.50090  -0.49685  -0.49327
 Alpha  occ. eigenvalues --   -0.49253  -0.49151  -0.48954  -0.48912  -0.48803
 Alpha  occ. eigenvalues --   -0.48632  -0.48129  -0.47485  -0.47318  -0.46677
 Alpha  occ. eigenvalues --   -0.46606  -0.46354  -0.46047  -0.45946  -0.45746
 Alpha  occ. eigenvalues --   -0.45578  -0.45518  -0.44919  -0.44574  -0.44447
 Alpha  occ. eigenvalues --   -0.44312  -0.43920  -0.43733  -0.43312  -0.42996
 Alpha  occ. eigenvalues --   -0.42839  -0.42576  -0.42544  -0.41872  -0.41658
 Alpha  occ. eigenvalues --   -0.41492  -0.41390  -0.40967  -0.40872  -0.40524
 Alpha  occ. eigenvalues --   -0.40422  -0.40241  -0.39927  -0.39777  -0.39660
 Alpha  occ. eigenvalues --   -0.39177  -0.37952  -0.37849  -0.37568  -0.37190
 Alpha  occ. eigenvalues --   -0.36903  -0.35765  -0.34806  -0.33451  -0.33260
 Alpha  occ. eigenvalues --   -0.33104  -0.31029  -0.30336  -0.28489  -0.26035
 Alpha  occ. eigenvalues --   -0.22687
 Alpha virt. eigenvalues --   -0.03186   0.00521   0.03777   0.06317   0.07688
 Alpha virt. eigenvalues --    0.09464   0.09890   0.10007   0.10784   0.10917
 Alpha virt. eigenvalues --    0.11169   0.11435   0.11676   0.11734   0.11901

 Mulliken charges:
               1
     1  O   -0.478376
     2  O   -0.463453
     3  C    0.087680
     4  C    0.216727
     5  C   -0.303577
     6  C    0.287167
     7  C   -0.008647
     8  C    0.179330
     9  C   -0.329860
    10  C   -0.369692
    11  C   -0.238003
    12  C   -0.338350
    13  C    0.110303
    14  C    0.027856
    15  C   -0.380183
    16  C   -0.144816
    17  C   -0.027998
    18  C   -0.412985
    19  C   -0.403231
    20  C   -0.383864
    21  C   -0.146879
    22  C   -0.299644
    23  C   -0.379522
    24  C    0.108809
    25  C   -0.220435
    26  C   -0.368602
    27  C    0.126630
    28  C   -0.128363
    29  C   -0.348196
    30  C   -0.186762
    31  C   -0.061052
    32  C   -0.037296
    33  C   -0.214432
    34  C    0.098028
    35  C   -0.216775
    36  C    0.117564
    37  C   -0.346605
    38  C   -0.147701
    39  C   -0.122501
    40  C   -0.379020
    41  C   -0.092846
    42  C   -0.123727
    43  H    0.072832
    44  H    0.109562
    45  H    0.105052
    46  H    0.062847
    47  H    0.121207
    48  H    0.112250
    49  H    0.121060
    50  H    0.132905
    51  H    0.115011
    52  H    0.103313
    53  H    0.103270
    54  H    0.097493
    55  H    0.101315
    56  H    0.060034
    57  H    0.148171
    58  H    0.111346
    59  H    0.108862
    60  H    0.127058
    61  H    0.129908
    62  H    0.122035
    63  H    0.114081
    64  H    0.135245
    65  H    0.113696
    66  H    0.140509
    67  H    0.120538
    68  H    0.110847
    69  H    0.303856
    70  H    0.138298
    71  H    0.100633
    72  H    0.123463
    73  H    0.149003
    74  H    0.122081
    75  H    0.307196
    76  H    0.123037
    77  H    0.114473
    78  H    0.131496
    79  H    0.132474
    80  H    0.096083
    81  H    0.127296
    82  H    0.108321
    83  H    0.121239
    84  H    0.118697
    85  H    0.099154
    86  H    0.111642
    87  H    0.104027
    88  H    0.095659
    89  H    0.108594
    90  H    0.130678
    91  H    0.121828
    92  H    0.105091
    93  H    0.096713
    94  H    0.131577
    95  H    0.116409
    96  H    0.132450
    97  H    0.088011
    98  H    0.083376
 Sum of Mulliken charges =  -0.00000

 Dipole moment (field-independent basis, Debye):
    X=              0.2206    Y=             -1.5301    Z=             -0.1974  Tot=              1.5585
 Quadrupole moment (field-independent basis, Debye-Ang):
   XX=           -280.6965   YY=           -244.7049   ZZ=           -259.9057
   XY=            -10.3076   XZ=             32.0815   YZ=              3.0728

 Normal termination of Gaussian 16 at Wed Nov 20 09:03:13 2019.
