 Gaussian 16, Revision A.03,
 Gaussian 16:  ES64L-G16RevA.03 25-Dec-2016

 ------------------------------------------------------------
 # wB97XD/Def2TZVP iop(3/107=0075000000,3/108=0075000000) opt
 ------------------------------------------------------------

 -----
 TITLE
 -----
 Symbolic Z-matrix:
 Charge =  0 Multiplicity = 1

 SCF Done:  E(RwB97XD) =  -1708.79131131     A.U. after   15 cycles
 SCF Done:  E(RwB97XD) =  -1708.79164068     A.U. after   11 cycles
 SCF Done:  E(RwB97XD) =  -1708.79168988     A.U. after   10 cycles
 SCF Done:  E(RwB97XD) =  -1708.79170789     A.U. after   10 cycles
 SCF Done:  E(RwB97XD) =  -1708.79171225     A.U. after   10 cycles
 SCF Done:  E(RwB97XD) =  -1708.79171419     A.U. after   10 cycles
 SCF Done:  E(RwB97XD) =  -1708.79171495     A.U. after    7 cycles
 SCF Done:  E(RwB97XD) =  -1708.79171523     A.U. after    7 cycles
 SCF Done:  E(RwB97XD) =  -1708.79171529     A.U. after    5 cycles
 Optimization completed.
    -- Stationary point found.

                         Standard orientation:
 ---------------------------------------------------------------------
 Center     Atomic      Atomic             Coordinates (Angstroms)
 Number     Number       Type             X           Y           Z
 ---------------------------------------------------------------------
      1          8           0      -13.948961   -2.278340    0.878873
      2          8           0       14.729613    0.973715    0.673373
      3          6           0      -11.793458    0.158115    1.297867
      4          6           0      -10.956528    0.198282   -0.018816
      5          6           0      -11.932050   -1.306990    1.753815
      6          6           0      -12.522109   -2.257207    0.712206
      7          6           0      -11.474387   -0.794726   -1.051945
      8          6           0       11.143643    0.134844    1.694433
      9          6           0      -11.095383    0.962617    2.404370
     10          6           0      -13.168972    0.797157    1.033745
     11          6           0       12.514731    0.840222    1.710720
     12          6           0      -12.144216   -1.889924   -0.696151
     13          6           0       13.459331    0.328938    0.634342
     14          6           0       10.624052   -0.022945    0.252187
     15          6           0       -9.483392   -0.055480    0.179098
     16          6           0       12.850521    0.600299   -0.726588
     17          6           0       11.392957    0.218044   -0.827814
     18          6           0       10.177098    0.993725    2.538189
     19          6           0       11.250699   -1.260024    2.349050
     20          6           0      -11.157392   -0.479209   -2.486379
     21          6           0       -8.511847    0.805132   -0.151427
     22          6           0        9.222860   -0.466998    0.139100
     23          6           0       10.900607    0.185454   -2.251954
     24          6           0       -7.077559    0.594290   -0.004269
     25          6           0        8.795965   -1.522655   -0.570970
     26          6           0       -6.611476   -0.715756    0.569797
     27          6           0        7.410238   -1.976624   -0.708568
     28          6           0       -6.239560    1.589357   -0.393367
     29          6           0        7.247918   -3.463036   -0.901454
     30          6           0        6.377997   -1.099260   -0.675425
     31          6           0       -4.803936    1.607976   -0.344978
     32          6           0        4.972218   -1.393134   -0.740828
     33          6           0       -4.063345    2.663666   -0.751327
     34          6           0       -2.611642    2.777335   -0.760128
     35          6           0        4.014825   -0.436206   -0.719601
     36          6           0        2.585146   -0.645323   -0.774470
     37          6           0       -2.089110    4.192619   -0.769295
     38          6           0       -1.808499    1.680551   -0.776030
     39          6           0        1.771862    0.447913   -0.739010
     40          6           0        2.072311   -2.057835   -0.869392
     41          6           0       -0.377608    1.640092   -0.739745
     42          6           0        0.341869    0.489594   -0.782500
     43          1           0      -11.061511    1.202793   -0.440528
     44          1           0      -12.547590   -1.363279    2.653025
     45          1           0      -10.944215   -1.680605    2.033233
     46          1           0      -12.145143   -3.267760    0.919989
     47          1           0      -10.132322    0.530840    2.677815
     48          1           0      -10.917162    1.991965    2.086942
     49          1           0      -11.718350    0.992228    3.300327
     50          1           0      -13.697837    0.309028    0.218134
     51          1           0      -13.799726    0.725853    1.920623
     52          1           0      -13.053523    1.855055    0.787165
     53          1           0       12.379544    1.913837    1.553849
     54          1           0       12.964560    0.718122    2.700877
     55          1           0      -12.470854   -2.582386   -1.468484
     56          1           0       13.599101   -0.752689    0.751007
     57          1           0       -9.225050   -1.025044    0.590359
     58          1           0       13.415964    0.072036   -1.498902
     59          1           0       12.964875    1.666589   -0.952602
     60          1           0        9.232726    0.484920    2.729728
     61          1           0        9.963149    1.944498    2.047350
     62          1           0       10.629457    1.210556    3.507743
     63          1           0       11.959110   -1.899053    1.821384
     64          1           0       10.284703   -1.765509    2.341031
     65          1           0       11.577093   -1.172229    3.387706
     66          1           0      -10.083928   -0.332475   -2.624708
     67          1           0      -11.646744    0.450999   -2.788427
     68          1           0      -11.486508   -1.271418   -3.157693
     69          1           0      -14.332262   -2.743619    0.133903
     70          1           0        8.491614    0.075657    0.728686
     71          1           0       -8.801471    1.764709   -0.571205
     72          1           0       11.293870   -0.686012   -2.783299
     73          1           0        9.817053    0.163501   -2.325718
     74          1           0       11.268924    1.065376   -2.786571
     75          1           0       15.129139    0.800174    1.526654
     76          1           0        9.543461   -2.138377   -1.063093
     77          1           0       -5.529767   -0.782101    0.640858
     78          1           0       -7.019861   -0.863294    1.572254
     79          1           0       -6.957588   -1.550369   -0.044357
     80          1           0       -6.700324    2.488257   -0.793472
     81          1           0        7.561154   -4.005540   -0.005426
     82          1           0        6.227589   -3.756592   -1.133419
     83          1           0        7.886522   -3.808171   -1.718429
     84          1           0        6.628459   -0.045619   -0.602003
     85          1           0       -4.294804    0.738561    0.052018
     86          1           0        4.671575   -2.431239   -0.801657
     87          1           0       -4.600432    3.549211   -1.081838
     88          1           0        4.336435    0.599306   -0.652629
     89          1           0       -1.012788    4.251711   -0.904556
     90          1           0       -2.340894    4.702626    0.164171
     91          1           0       -2.556254    4.760720   -1.577393
     92          1           0       -2.292978    0.711400   -0.836627
     93          1           0        2.260862    1.415617   -0.669712
     94          1           0        2.401361   -2.646509   -0.010040
     95          1           0        0.988097   -2.107541   -0.907830
     96          1           0        2.458778   -2.548993   -1.765310
     97          1           0        0.166707    2.574875   -0.666459
     98          1           0       -0.203481   -0.444920   -0.851350
 ---------------------------------------------------------------------

 The electronic state is 1-A.
 Alpha  occ. eigenvalues --  -19.18692 -19.18498 -10.27689 -10.27211 -10.24692
 Alpha  occ. eigenvalues --  -10.24351 -10.24339 -10.24227 -10.24006 -10.23895
 Alpha  occ. eigenvalues --  -10.23866 -10.23689 -10.23412 -10.23268 -10.23227
 Alpha  occ. eigenvalues --  -10.23148 -10.23122 -10.22945 -10.22916 -10.22895
 Alpha  occ. eigenvalues --  -10.22877 -10.22782 -10.22761 -10.22740 -10.22719
 Alpha  occ. eigenvalues --  -10.22674 -10.22590 -10.22461 -10.22460 -10.22446
 Alpha  occ. eigenvalues --  -10.22372 -10.22367 -10.22068 -10.22037 -10.21855
 Alpha  occ. eigenvalues --  -10.21813 -10.21707 -10.21469 -10.21448 -10.21262
 Alpha  occ. eigenvalues --  -10.20730 -10.20165  -1.06077  -1.05701  -0.89401
 Alpha  occ. eigenvalues --   -0.89281  -0.87982  -0.87469  -0.86507  -0.85850
 Alpha  occ. eigenvalues --   -0.83262  -0.82837  -0.82706  -0.81557  -0.80794
 Alpha  occ. eigenvalues --   -0.79252  -0.78444  -0.76845  -0.76366  -0.74571
 Alpha  occ. eigenvalues --   -0.73146  -0.72681  -0.72319  -0.72292  -0.71974
 Alpha  occ. eigenvalues --   -0.71675  -0.71476  -0.71294  -0.70085  -0.66641
 Alpha  occ. eigenvalues --   -0.65337  -0.64319  -0.63076  -0.61567  -0.60274
 Alpha  occ. eigenvalues --   -0.59727  -0.59238  -0.58924  -0.57418  -0.56692
 Alpha  occ. eigenvalues --   -0.56341  -0.55428  -0.55223  -0.54498  -0.53123
 Alpha  occ. eigenvalues --   -0.52450  -0.51989  -0.51522  -0.51094  -0.50591
 Alpha  occ. eigenvalues --   -0.50060  -0.49787  -0.49586  -0.49006  -0.48185
 Alpha  occ. eigenvalues --   -0.47336  -0.47179  -0.46576  -0.46126  -0.45789
 Alpha  occ. eigenvalues --   -0.45727  -0.45626  -0.45433  -0.45420  -0.45303
 Alpha  occ. eigenvalues --   -0.45138  -0.44712  -0.44047  -0.43880  -0.43269
 Alpha  occ. eigenvalues --   -0.43187  -0.42925  -0.42652  -0.42533  -0.42324
 Alpha  occ. eigenvalues --   -0.42153  -0.42111  -0.41561  -0.41242  -0.41095
 Alpha  occ. eigenvalues --   -0.40957  -0.40568  -0.40382  -0.39943  -0.39712
 Alpha  occ. eigenvalues --   -0.39519  -0.39276  -0.39204  -0.38565  -0.38362
 Alpha  occ. eigenvalues --   -0.38156  -0.38051  -0.37561  -0.37474  -0.37240
 Alpha  occ. eigenvalues --   -0.37122  -0.37015  -0.36630  -0.36502  -0.36372
 Alpha  occ. eigenvalues --   -0.35714  -0.34714  -0.34567  -0.34333  -0.33903
 Alpha  occ. eigenvalues --   -0.33622  -0.32535  -0.31575  -0.30147  -0.29955
 Alpha  occ. eigenvalues --   -0.29817  -0.27853  -0.27268  -0.25550  -0.23207
 Alpha  occ. eigenvalues --   -0.19952
 Alpha virt. eigenvalues --   -0.04840  -0.01155   0.02004   0.04514   0.05858
 Alpha virt. eigenvalues --    0.07630   0.09086   0.09594   0.09629   0.10323
 Alpha virt. eigenvalues --    0.10627   0.10788   0.10986   0.11129   0.11293

 Mulliken charges:
               1
     1  O   -0.499820
     2  O   -0.488198
     3  C    0.042654
     4  C    0.249915
     5  C   -0.268175
     6  C    0.337432
     7  C   -0.035582
     8  C    0.128940
     9  C   -0.300895
    10  C   -0.337406
    11  C   -0.199927
    12  C   -0.323900
    13  C    0.154756
    14  C    0.003124
    15  C   -0.408928
    16  C   -0.118733
    17  C   -0.010022
    18  C   -0.376735
    19  C   -0.364154
    20  C   -0.335714
    21  C   -0.106567
    22  C   -0.298249
    23  C   -0.352385
    24  C    0.089470
    25  C   -0.205461
    26  C   -0.345035
    27  C    0.111789
    28  C   -0.114678
    29  C   -0.313840
    30  C   -0.168518
    31  C   -0.049953
    32  C   -0.045860
    33  C   -0.202549
    34  C    0.074746
    35  C   -0.196359
    36  C    0.095727
    37  C   -0.312636
    38  C   -0.118338
    39  C   -0.103314
    40  C   -0.355674
    41  C   -0.098366
    42  C   -0.119390
    43  H    0.055490
    44  H    0.095755
    45  H    0.096907
    46  H    0.042224
    47  H    0.119255
    48  H    0.103689
    49  H    0.112202
    50  H    0.133000
    51  H    0.105297
    52  H    0.094846
    53  H    0.092658
    54  H    0.084128
    55  H    0.085175
    56  H    0.048120
    57  H    0.155011
    58  H    0.096937
    59  H    0.097819
    60  H    0.118500
    61  H    0.121479
    62  H    0.113359
    63  H    0.106002
    64  H    0.130271
    65  H    0.104152
    66  H    0.133586
    67  H    0.109615
    68  H    0.099817
    69  H    0.305044
    70  H    0.136251
    71  H    0.088608
    72  H    0.112044
    73  H    0.146374
    74  H    0.112508
    75  H    0.308094
    76  H    0.117341
    77  H    0.103814
    78  H    0.124091
    79  H    0.124290
    80  H    0.086612
    81  H    0.116902
    82  H    0.098282
    83  H    0.110961
    84  H    0.112236
    85  H    0.095181
    86  H    0.119108
    87  H    0.095144
    88  H    0.086417
    89  H    0.099983
    90  H    0.120190
    91  H    0.111989
    92  H    0.094926
    93  H    0.087379
    94  H    0.123532
    95  H    0.106874
    96  H    0.124563
    97  H    0.083667
    98  H    0.079106
 Sum of Mulliken charges =  -0.00000

 Dipole moment (field-independent basis, Debye):
    X=              0.2605    Y=             -1.4485    Z=             -0.0761  Tot=              1.4738
 Quadrupole moment (field-independent basis, Debye-Ang):
   XX=           -277.7309   YY=           -241.8007   ZZ=           -257.9529
   XY=             -8.3004   XZ=             33.4809   YZ=              2.5718

 Normal termination of Gaussian 16 at Sun Nov 24 21:09:21 2019.
