 Gaussian 16, Revision A.03,
 Gaussian 16:  ES64L-G16RevA.03 25-Dec-2016

 --------------------------------------------------------
 # wB97XD/Def2TZVP iop(3/107=0150000000,3/108=0150000000)
 --------------------------------------------------------

 -----
 TITLE
 -----
 Symbolic Z-matrix:
 Charge =  1 Multiplicity = 2

                         Standard orientation:
 ---------------------------------------------------------------------
 Center     Atomic      Atomic             Coordinates (Angstroms)
 Number     Number       Type             X           Y           Z
 ---------------------------------------------------------------------
      1          8           0      -13.856582   -2.362559    0.839041
      2          8           0       14.669821    0.910536    0.807527
      3          6           0      -11.758820    0.077578    1.298830
      4          6           0      -10.917110    0.152014   -0.005042
      5          6           0      -11.862284   -1.390329    1.739839
      6          6           0      -12.432534   -2.336344    0.689506
      7          6           0      -11.393087   -0.845423   -1.047928
      8          6           0       11.108936   -0.068718    1.736661
      9          6           0      -11.091783    0.888143    2.413172
     10          6           0      -13.145080    0.679530    1.030774
     11          6           0       12.467885    0.643283    1.826955
     12          6           0      -12.041811   -1.956515   -0.709997
     13          6           0       13.410281    0.262504    0.700803
     14          6           0       10.583329   -0.060346    0.293903
     15          6           0       -9.442629   -0.060076    0.207973
     16          6           0       12.796584    0.677560   -0.617230
     17          6           0       11.343351    0.301229   -0.754152
     18          6           0       10.140857    0.668736    2.678097
     19          6           0       11.235097   -1.525481    2.218328
     20          6           0      -11.056882   -0.512887   -2.470390
     21          6           0       -8.495666    0.820788   -0.123740
     22          6           0        9.183544   -0.493003    0.136888
     23          6           0       10.846375    0.417290   -2.169027
     24          6           0       -7.057002    0.644566    0.043115
     25          6           0        8.763960   -1.461141   -0.685369
     26          6           0       -6.575744   -0.644445    0.643375
     27          6           0        7.375529   -1.893628   -0.868903
     28          6           0       -6.238857    1.645498   -0.349945
     29          6           0        7.205570   -3.357365   -1.170457
     30          6           0        6.356987   -1.013656   -0.779760
     31          6           0       -4.800222    1.687588   -0.281799
     32          6           0        4.946241   -1.293490   -0.880733
     33          6           0       -4.074937    2.742681   -0.694723
     34          6           0       -2.619789    2.860739   -0.679944
     35          6           0        4.001763   -0.336632   -0.797704
     36          6           0        2.567692   -0.536032   -0.882555
     37          6           0       -2.103274    4.270814   -0.583965
     38          6           0       -1.824701    1.770812   -0.765359
     39          6           0        1.760968    0.547403   -0.776932
     40          6           0        2.060189   -1.935405   -1.084756
     41          6           0       -0.388634    1.729107   -0.716194
     42          6           0        0.325927    0.589990   -0.833077
     43          1           0      -11.046735    1.157519   -0.421765
     44          1           0      -12.478410   -1.468335    2.638429
     45          1           0      -10.865188   -1.745323    2.014991
     46          1           0      -12.051596   -3.346268    0.894786
     47          1           0      -10.121821    0.474603    2.694263
     48          1           0      -10.931621    1.922930    2.100352
     49          1           0      -11.726527    0.899592    3.302157
     50          1           0      -13.651783    0.187975    0.202049
     51          1           0      -13.782422    0.575010    1.910687
     52          1           0      -13.054484    1.744751    0.802317
     53          1           0       12.320770    1.727301    1.786852
     54          1           0       12.923278    0.417598    2.797495
     55          1           0      -12.340765   -2.651786   -1.492006
     56          1           0       13.558746   -0.825334    0.697265
     57          1           0       -9.161866   -1.018083    0.635036
     58          1           0       13.362018    0.241575   -1.446068
     59          1           0       12.904001    1.764047   -0.721655
     60          1           0        9.204659    0.126116    2.813553
     61          1           0        9.910674    1.667942    2.302326
     62          1           0       10.599585    0.776262    3.663719
     63          1           0       11.951811   -2.087436    1.617469
     64          1           0       10.274324   -2.038308    2.149088
     65          1           0       11.561633   -1.555945    3.261060
     66          1           0       -9.983944   -0.337247   -2.583314
     67          1           0      -11.563616    0.407977   -2.774094
     68          1           0      -11.352497   -1.309060   -3.153510
     69          1           0      -14.232367   -2.813915    0.081076
     70          1           0        8.447971   -0.020042    0.780807
     71          1           0       -8.805156    1.768276   -0.559149
     72          1           0       11.233640   -0.398705   -2.786830
     73          1           0        9.761590    0.407546   -2.240364
     74          1           0       11.219722    1.345304   -2.611823
     75          1           0       15.071381    0.656540    1.640099
     76          1           0        9.512154   -2.014501   -1.248292
     77          1           0       -5.493520   -0.688456    0.732444
     78          1           0       -6.999497   -0.783678    1.641309
     79          1           0       -6.898119   -1.494429    0.036446
     80          1           0       -6.708833    2.530855   -0.771356
     81          1           0        7.512939   -3.964743   -0.314542
     82          1           0        6.184074   -3.627325   -1.428288
     83          1           0        7.847955   -3.643982   -2.007550
     84          1           0        6.614480    0.030402   -0.624256
     85          1           0       -4.279909    0.833865    0.137448
     86          1           0        4.639371   -2.323202   -1.021330
     87          1           0       -4.614151    3.619723   -1.047393
     88          1           0        4.327457    0.690362   -0.651133
     89          1           0       -1.023670    4.341020   -0.691807
     90          1           0       -2.379250    4.716539    0.375565
     91          1           0       -2.557134    4.889178   -1.363072
     92          1           0       -2.309525    0.808182   -0.901122
     93          1           0        2.246906    1.509369   -0.632511
     94          1           0        2.385161   -2.583879   -0.267165
     95          1           0        0.975823   -1.984535   -1.137187
     96          1           0        2.458842   -2.358434   -2.010354
     97          1           0        0.153646    2.657716   -0.570069
     98          1           0       -0.217439   -0.338557   -0.974842
 ---------------------------------------------------------------------

 SCF Done:  E(UwB97XD) =  -1708.21931107     A.U. after   24 cycles

 Alpha virt. eigenvalues --    0.31139   0.31510   0.31766   0.31882   0.32196
 Alpha virt. eigenvalues --    0.32459   0.32709   0.32896   0.33191   0.33350
 Alpha virt. eigenvalues --    0.33652   0.33932   0.34166   0.34269   0.34342

  Beta  occ. eigenvalues --  -19.27587 -19.27191 -10.40549 -10.40453 -10.39543
  Beta  occ. eigenvalues --  -10.39279 -10.38912 -10.38814 -10.38672 -10.38267
  Beta  occ. eigenvalues --  -10.38129 -10.38042 -10.37754 -10.37127 -10.36520
  Beta  occ. eigenvalues --  -10.36403 -10.36383 -10.36373 -10.35944 -10.35760
  Beta  occ. eigenvalues --  -10.35528 -10.35090 -10.34930 -10.34928 -10.34506
  Beta  occ. eigenvalues --  -10.34460 -10.34324 -10.34260 -10.33699 -10.33362
  Beta  occ. eigenvalues --  -10.33283 -10.33181 -10.31722 -10.31630 -10.31262
  Beta  occ. eigenvalues --  -10.31193 -10.31159 -10.31154 -10.30902 -10.30744
  Beta  occ. eigenvalues --  -10.30048 -10.28952  -1.15321  -1.14738  -1.03610
  Beta  occ. eigenvalues --   -1.02514  -1.01137  -1.00574  -0.99736  -0.99151
  Beta  occ. eigenvalues --   -0.97952  -0.95197  -0.93968  -0.93350  -0.92518
  Beta  occ. eigenvalues --   -0.91862  -0.90913  -0.89395  -0.87675  -0.87375
  Beta  occ. eigenvalues --   -0.86995  -0.86264  -0.85148  -0.83284  -0.82830
  Beta  occ. eigenvalues --   -0.82308  -0.81676  -0.81456  -0.80810  -0.80075
  Beta  occ. eigenvalues --   -0.78001  -0.76115  -0.74129  -0.73988  -0.72577
  Beta  occ. eigenvalues --   -0.72126  -0.71871  -0.70970  -0.70344  -0.69024
  Beta  occ. eigenvalues --   -0.68742  -0.68378  -0.67085  -0.65528  -0.65368
  Beta  occ. eigenvalues --   -0.64752  -0.64281  -0.63383  -0.62709  -0.62538
  Beta  occ. eigenvalues --   -0.61797  -0.61210  -0.60881  -0.60297  -0.59615
  Beta  occ. eigenvalues --   -0.59376  -0.59243  -0.58967  -0.58722  -0.58673
  Beta  occ. eigenvalues --   -0.57770  -0.57595  -0.57513  -0.57078  -0.56815
  Beta  occ. eigenvalues --   -0.55771  -0.55744  -0.55407  -0.55257  -0.55147
  Beta  occ. eigenvalues --   -0.54819  -0.54292  -0.54041  -0.53757  -0.53449
  Beta  occ. eigenvalues --   -0.53312  -0.53085  -0.52988  -0.52437  -0.52204
  Beta  occ. eigenvalues --   -0.52178  -0.52123  -0.51980  -0.51687  -0.51316
  Beta  occ. eigenvalues --   -0.51084  -0.50638  -0.50348  -0.50141  -0.49997
  Beta  occ. eigenvalues --   -0.49907  -0.49256  -0.49106  -0.49040  -0.48922
  Beta  occ. eigenvalues --   -0.47967  -0.47897  -0.47389  -0.47002  -0.46551
  Beta  occ. eigenvalues --   -0.46183  -0.45808  -0.44905  -0.44146  -0.43715
  Beta  occ. eigenvalues --   -0.43628  -0.43146  -0.42365  -0.41504  -0.38961
  Beta  occ. eigenvalues --   -0.38678  -0.38470  -0.36908  -0.36089  -0.34019
  Beta virt. eigenvalues --   -0.21325  -0.13104  -0.08701  -0.05237  -0.02024
  Beta virt. eigenvalues --   -0.00021   0.01209   0.01224   0.01969   0.02322
  Beta virt. eigenvalues --    0.02798   0.03166   0.03437   0.03533   0.03652

 Mulliken charges and spin densities:
               1          2
     1  O   -0.471534   0.000171
     2  O   -0.457095   0.000044
     3  C    0.068462   0.003494
     4  C    0.211466  -0.004886
     5  C   -0.302349   0.000663
     6  C    0.277186  -0.000271
     7  C   -0.031481   0.001708
     8  C    0.160328   0.002820
     9  C   -0.330486   0.000909
    10  C   -0.368413   0.000069
    11  C   -0.242992   0.000025
    12  C   -0.326625   0.002722
    13  C    0.104135   0.000249
    14  C    0.008763  -0.016916
    15  C   -0.347485   0.094569
    16  C   -0.150182  -0.001370
    17  C   -0.019531   0.027795
    18  C   -0.410893  -0.000240
    19  C   -0.399122   0.001034
    20  C   -0.379126   0.001098
    21  C   -0.152038  -0.039258
    22  C   -0.260767   0.096027
    23  C   -0.376029  -0.000792
    24  C    0.144899   0.124730
    25  C   -0.226347  -0.042734
    26  C   -0.367502  -0.005296
    27  C    0.162048   0.155838
    28  C   -0.159343  -0.055927
    29  C   -0.345621  -0.007326
    30  C   -0.202219  -0.039394
    31  C   -0.007233   0.131772
    32  C    0.014124   0.155129
    33  C   -0.213741  -0.048894
    34  C    0.127752   0.138650
    35  C   -0.214090  -0.037449
    36  C    0.142249   0.117847
    37  C   -0.346468  -0.007377
    38  C   -0.140702   0.019644
    39  C   -0.106839   0.039500
    40  C   -0.383786  -0.006099
    41  C   -0.065219   0.087173
    42  C   -0.095690   0.063798
    43  H    0.084744   0.000057
    44  H    0.122470   0.000095
    45  H    0.099831  -0.000063
    46  H    0.071119   0.000034
    47  H    0.111550  -0.000115
    48  H    0.116364   0.000037
    49  H    0.135200  -0.000032
    50  H    0.138895   0.000007
    51  H    0.126197   0.000323
    52  H    0.107725   0.000006
    53  H    0.111010   0.000004
    54  H    0.110819   0.000090
    55  H    0.115158   0.000267
    56  H    0.067011   0.000003
    57  H    0.161092  -0.002982
    58  H    0.125467   0.001534
    59  H    0.122825   0.001433
    60  H    0.117165   0.000043
    61  H    0.133711   0.000022
    62  H    0.136673  -0.000054
    63  H    0.122695  -0.000012
    64  H    0.124073  -0.000139
    65  H    0.127656  -0.000186
    66  H    0.127360  -0.000045
    67  H    0.129922  -0.000051
    68  H    0.122151  -0.000010
    69  H    0.308956  -0.000005
    70  H    0.147741  -0.003049
    71  H    0.117890   0.001309
    72  H    0.136711   0.001201
    73  H    0.134895  -0.000077
    74  H    0.139215   0.001480
    75  H    0.313086  -0.000013
    76  H    0.148266   0.003891
    77  H    0.110433   0.000140
    78  H    0.154572   0.005501
    79  H    0.153975   0.005700
    80  H    0.119052   0.001307
    81  H    0.154106   0.008262
    82  H    0.110915  -0.000033
    83  H    0.148277   0.006122
    84  H    0.142445   0.001013
    85  H    0.114234  -0.003791
    86  H    0.137030  -0.004707
    87  H    0.134655   0.002762
    88  H    0.122524   0.001149
    89  H    0.117267  -0.000385
    90  H    0.159685   0.008014
    91  H    0.151352   0.005974
    92  H    0.130908  -0.000578
    93  H    0.128746  -0.001912
    94  H    0.157012   0.006344
    95  H    0.128757   0.000226
    96  H    0.158259   0.006263
    97  H    0.118724  -0.003209
    98  H    0.110961  -0.002415
 Sum of Mulliken charges =   1.00000   1.00000

 Dipole moment (field-independent basis, Debye):
    X=              2.7568    Y=             -0.4304    Z=             -2.3417  Tot=              3.6427
 Quadrupole moment (field-independent basis, Debye-Ang):
   XX=            -36.0491   YY=           -219.5193   ZZ=           -248.3599
   XY=            -28.1224   XZ=             25.3563   YZ=              3.2343

 Normal termination of Gaussian 16 at Wed Nov 20 19:40:54 2019.
