 Gaussian 16, Revision A.03,
 Gaussian 16:  ES64L-G16RevA.03 25-Dec-2016

 --------------------------------------------------------
 # wB97XD/Def2TZVP iop(3/107=0200000000,3/108=0200000000)
 --------------------------------------------------------

 -----
 TITLE
 -----
 Symbolic Z-matrix:
 Charge =  1 Multiplicity = 2

                         Standard orientation:
 ---------------------------------------------------------------------
 Center     Atomic      Atomic             Coordinates (Angstroms)
 Number     Number       Type             X           Y           Z
 ---------------------------------------------------------------------
      1          8           0      -13.822952   -2.402484    0.797856
      2          8           0       14.643942    0.873700    0.882570
      3          6           0      -11.745589    0.032512    1.300912
      4          6           0      -10.901871    0.132863    0.003889
      5          6           0      -11.838730   -1.440256    1.720103
      6          6           0      -12.401013   -2.372407    0.656166
      7          6           0      -11.362902   -0.853783   -1.053328
      8          6           0       11.102442   -0.204494    1.746483
      9          6           0      -11.090225    0.831207    2.427801
     10          6           0      -13.134074    0.626101    1.037414
     11          6           0       12.455090    0.505925    1.888068
     12          6           0      -12.004847   -1.972267   -0.735306
     13          6           0       13.390570    0.228441    0.728866
     14          6           0       10.567093   -0.074717    0.315738
     15          6           0       -9.427360   -0.066847    0.220954
     16          6           0       12.766283    0.749141   -0.543926
     17          6           0       11.315419    0.376282   -0.701855
     18          6           0       10.136854    0.439915    2.752518
     19          6           0       11.241761   -1.694259    2.098604
     20          6           0      -11.019701   -0.499287   -2.467525
     21          6           0       -8.490069    0.823563   -0.100565
     22          6           0        9.167089   -0.499149    0.131794
     23          6           0       10.808443    0.602623   -2.098540
     24          6           0       -7.049015    0.658228    0.072413
     25          6           0        8.754163   -1.411445   -0.749972
     26          6           0       -6.563351   -0.629416    0.669068
     27          6           0        7.365267   -1.835017   -0.960077
     28          6           0       -6.239448    1.664119   -0.310924
     29          6           0        7.198192   -3.284066   -1.321343
     30          6           0        6.351351   -0.959611   -0.840680
     31          6           0       -4.798560    1.715481   -0.234521
     32          6           0        4.938287   -1.233674   -0.963483
     33          6           0       -4.080999    2.773637   -0.639163
     34          6           0       -2.623876    2.894522   -0.612078
     35          6           0        3.998405   -0.282182   -0.843766
     36          6           0        2.561987   -0.476819   -0.946032
     37          6           0       -2.113481    4.298787   -0.447056
     38          6           0       -1.831665    1.813027   -0.744700
     39          6           0        1.757769    0.597182   -0.795801
     40          6           0        2.059028   -1.865249   -1.214155
     41          6           0       -0.392367    1.770132   -0.691238
     42          6           0        0.319696    0.641119   -0.856989
     43          1           0      -11.039851    1.142488   -0.400038
     44          1           0      -12.456181   -1.535353    2.616158
     45          1           0      -10.839587   -1.792392    1.991306
     46          1           0      -12.018641   -3.383851    0.849305
     47          1           0      -10.119902    0.419094    2.709564
     48          1           0      -10.933537    1.870488    2.128391
     49          1           0      -11.730793    0.827983    3.312599
     50          1           0      -13.632267    0.145834    0.197107
     51          1           0      -13.774764    0.498820    1.911854
     52          1           0      -13.050990    1.696167    0.829874
     53          1           0       12.300753    1.588469    1.939888
     54          1           0       12.918950    0.202163    2.832967
     55          1           0      -12.294542   -2.658761   -1.528433
     56          1           0       13.546257   -0.853980    0.632300
     57          1           0       -9.139260   -1.024704    0.643617
     58          1           0       13.328393    0.388656   -1.410231
     59          1           0       12.866070    1.841069   -0.555322
     60          1           0        9.206164   -0.120666    2.845962
     61          1           0        9.896171    1.465690    2.465310
     62          1           0       10.601898    0.466074    3.740652
     63          1           0       11.958930   -2.196354    1.447516
     64          1           0       10.284223   -2.206277    1.990384
     65          1           0       11.574585   -1.811807    3.133072
     66          1           0       -9.947459   -0.313912   -2.569553
     67          1           0      -11.531639    0.421741   -2.761101
     68          1           0      -11.304450   -1.288235   -3.163412
     69          1           0      -14.195850   -2.846329    0.034311
     70          1           0        8.428986   -0.068457    0.802041
     71          1           0       -8.805843    1.771043   -0.531488
     72          1           0       11.197812   -0.158515   -2.781267
     73          1           0        9.723466    0.590395   -2.164341
     74          1           0       11.172746    1.565890   -2.466800
     75          1           0       15.053811    0.554845    1.688140
     76          1           0        9.504218   -1.921975   -1.350069
     77          1           0       -5.481574   -0.666695    0.764872
     78          1           0       -6.993179   -0.775716    1.663215
     79          1           0       -6.876737   -1.477972    0.055786
     80          1           0       -6.712292    2.548527   -0.731053
     81          1           0        7.508207   -3.924332   -0.491012
     82          1           0        6.177241   -3.545812   -1.589233
     83          1           0        7.840985   -3.533849   -2.169665
     84          1           0        6.608629    0.076356   -0.637918
     85          1           0       -4.273542    0.864526    0.184478
     86          1           0        4.631479   -2.255655   -1.151934
     87          1           0       -4.620859    3.649780   -0.993381
     88          1           0        4.323589    0.737033   -0.649377
     89          1           0       -1.032845    4.376740   -0.537084
     90          1           0       -2.404636    4.700060    0.527236
     91          1           0       -2.559560    4.949171   -1.204141
     92          1           0       -2.315484    0.857510   -0.926722
     93          1           0        2.241039    1.552399   -0.605106
     94          1           0        2.380108   -2.548557   -0.424040
     95          1           0        0.975282   -1.913799   -1.276657
     96          1           0        2.465866   -2.245132   -2.154599
     97          1           0        0.148335    2.691422   -0.499986
     98          1           0       -0.222114   -0.280248   -1.043950
 ---------------------------------------------------------------------

 SCF Done:  E(UwB97XD) =  -1708.15825017     A.U. after   25 cycles

 Alpha virt. eigenvalues --    0.32054   0.32147   0.32289   0.32526   0.32970
 Alpha virt. eigenvalues --    0.33236   0.33344   0.33536   0.33960   0.34008
 Alpha virt. eigenvalues --    0.34407   0.34660   0.34853   0.34959   0.35203

  Beta  occ. eigenvalues --  -19.29740 -19.29296 -10.43263 -10.43013 -10.42275
  Beta  occ. eigenvalues --  -10.41958 -10.41599 -10.41231 -10.41115 -10.40722
  Beta  occ. eigenvalues --  -10.40360 -10.40230 -10.40030 -10.39288 -10.38909
  Beta  occ. eigenvalues --  -10.38650 -10.38591 -10.38486 -10.38368 -10.37726
  Beta  occ. eigenvalues --  -10.37617 -10.37209 -10.37045 -10.36992 -10.36574
  Beta  occ. eigenvalues --  -10.36505 -10.36275 -10.36257 -10.35670 -10.35366
  Beta  occ. eigenvalues --  -10.35315 -10.35151 -10.33815 -10.33687 -10.33326
  Beta  occ. eigenvalues --  -10.33322 -10.33256 -10.33185 -10.33025 -10.32788
  Beta  occ. eigenvalues --  -10.32107 -10.31000  -1.17753  -1.17140  -1.06539
  Beta  occ. eigenvalues --   -1.05300  -1.03760  -1.03060  -1.02321  -1.01677
  Beta  occ. eigenvalues --   -1.00622  -0.97795  -0.96504  -0.95819  -0.94925
  Beta  occ. eigenvalues --   -0.94359  -0.93305  -0.92082  -0.90078  -0.89740
  Beta  occ. eigenvalues --   -0.89604  -0.88668  -0.87683  -0.85613  -0.85116
  Beta  occ. eigenvalues --   -0.84658  -0.84001  -0.83741  -0.83080  -0.82485
  Beta  occ. eigenvalues --   -0.80301  -0.78418  -0.76566  -0.76266  -0.74949
  Beta  occ. eigenvalues --   -0.74357  -0.74067  -0.73304  -0.72580  -0.71169
  Beta  occ. eigenvalues --   -0.70866  -0.70731  -0.69332  -0.67755  -0.67548
  Beta  occ. eigenvalues --   -0.66982  -0.66427  -0.65522  -0.64843  -0.64637
  Beta  occ. eigenvalues --   -0.63931  -0.63306  -0.63065  -0.62415  -0.62008
  Beta  occ. eigenvalues --   -0.61441  -0.61367  -0.61113  -0.60824  -0.60756
  Beta  occ. eigenvalues --   -0.59902  -0.59774  -0.59443  -0.59100  -0.58813
  Beta  occ. eigenvalues --   -0.57813  -0.57732  -0.57549  -0.57242  -0.57115
  Beta  occ. eigenvalues --   -0.56963  -0.56356  -0.56041  -0.55743  -0.55294
  Beta  occ. eigenvalues --   -0.55203  -0.54962  -0.54893  -0.54473  -0.54433
  Beta  occ. eigenvalues --   -0.54126  -0.54048  -0.53883  -0.53551  -0.53247
  Beta  occ. eigenvalues --   -0.52947  -0.52530  -0.52214  -0.52178  -0.51824
  Beta  occ. eigenvalues --   -0.51631  -0.51137  -0.50867  -0.50840  -0.50743
  Beta  occ. eigenvalues --   -0.49757  -0.49613  -0.49097  -0.48800  -0.48317
  Beta  occ. eigenvalues --   -0.47934  -0.47586  -0.46566  -0.45803  -0.45387
  Beta  occ. eigenvalues --   -0.45329  -0.44803  -0.43962  -0.43033  -0.40686
  Beta  occ. eigenvalues --   -0.40337  -0.40052  -0.38436  -0.37456  -0.35466
  Beta virt. eigenvalues --   -0.21359  -0.12458  -0.07858  -0.04314  -0.01024
  Beta virt. eigenvalues --    0.00936   0.01269   0.02136   0.02375   0.02642
  Beta virt. eigenvalues --    0.03035   0.03515   0.03804   0.03947   0.04030

 Mulliken charges and spin densities:
               1          2
     1  O   -0.464132   0.000136
     2  O   -0.448166   0.000038
     3  C    0.087965   0.003186
     4  C    0.191751  -0.004681
     5  C   -0.315817   0.000620
     6  C    0.258726  -0.000274
     7  C   -0.020945   0.001326
     8  C    0.186555   0.002772
     9  C   -0.340758   0.000724
    10  C   -0.378110   0.000035
    11  C   -0.259246   0.000023
    12  C   -0.329336   0.002417
    13  C    0.089188   0.000174
    14  C    0.010572  -0.016673
    15  C   -0.339054   0.088862
    16  C   -0.160563  -0.001085
    17  C   -0.027687   0.023705
    18  C   -0.424129  -0.000125
    19  C   -0.411098   0.000887
    20  C   -0.394856   0.001030
    21  C   -0.161876  -0.040427
    22  C   -0.265100   0.093933
    23  C   -0.380873  -0.000629
    24  C    0.148511   0.124772
    25  C   -0.225820  -0.047214
    26  C   -0.376227  -0.005140
    27  C    0.165681   0.165990
    28  C   -0.163732  -0.064654
    29  C   -0.355272  -0.007807
    30  C   -0.211311  -0.051264
    31  C   -0.016541   0.138610
    32  C    0.016895   0.169936
    33  C   -0.217236  -0.064695
    34  C    0.137706   0.156943
    35  C   -0.219457  -0.049785
    36  C    0.151582   0.129009
    37  C   -0.356163  -0.008192
    38  C   -0.156754   0.009701
    39  C   -0.110400   0.041782
    40  C   -0.392511  -0.006173
    41  C   -0.057993   0.099643
    42  C   -0.097261   0.062427
    43  H    0.092195   0.000086
    44  H    0.127176   0.000075
    45  H    0.102736  -0.000063
    46  H    0.077746   0.000030
    47  H    0.111519  -0.000082
    48  H    0.118442   0.000044
    49  H    0.137170  -0.000011
    50  H    0.138152   0.000010
    51  H    0.128267   0.000268
    52  H    0.109752   0.000007
    53  H    0.115114   0.000002
    54  H    0.115369   0.000081
    55  H    0.120909   0.000230
    56  H    0.071682   0.000006
    57  H    0.158217  -0.002484
    58  H    0.129433   0.001274
    59  H    0.126060   0.001154
    60  H    0.119805   0.000041
    61  H    0.135523   0.000003
    62  H    0.138755  -0.000048
    63  H    0.124593  -0.000015
    64  H    0.124540  -0.000141
    65  H    0.130134  -0.000172
    66  H    0.128999  -0.000059
    67  H    0.132474  -0.000041
    68  H    0.124712  -0.000014
    69  H    0.307814  -0.000004
    70  H    0.149254  -0.002882
    71  H    0.121215   0.001251
    72  H    0.138830   0.000956
    73  H    0.133178  -0.000097
    74  H    0.141036   0.001203
    75  H    0.311977  -0.000012
    76  H    0.149778   0.004076
    77  H    0.111842   0.000129
    78  H    0.156028   0.005351
    79  H    0.155611   0.005572
    80  H    0.122117   0.001464
    81  H    0.156779   0.008459
    82  H    0.112701  -0.000079
    83  H    0.151749   0.006429
    84  H    0.145965   0.001183
    85  H    0.117597  -0.003797
    86  H    0.137294  -0.004502
    87  H    0.138788   0.003534
    88  H    0.127689   0.001288
    89  H    0.119011  -0.000551
    90  H    0.163438   0.008674
    91  H    0.155642   0.006675
    92  H    0.138308  -0.000505
    93  H    0.135172  -0.002052
    94  H    0.160899   0.006876
    95  H    0.132254   0.000132
    96  H    0.162006   0.006778
    97  H    0.123753  -0.003333
    98  H    0.116094  -0.002261
 Sum of Mulliken charges =   1.00000   1.00000

 Dipole moment (field-independent basis, Debye):
    X=              3.0911    Y=             -0.2945    Z=             -2.5771  Tot=              4.0352
 Quadrupole moment (field-independent basis, Debye-Ang):
   XX=            -50.8725   YY=           -220.4366   ZZ=           -249.0282
   XY=            -29.7551   XZ=             23.5555   YZ=              3.8294

 Normal termination of Gaussian 16 at Mon Nov 18 17:43:59 2019.
