 Gaussian 16, Revision A.03,
 Gaussian 16:  ES64L-G16RevA.03 25-Dec-2016

 --------------------------------------------------------
 # wB97XD/Def2TZVP iop(3/107=0112500000,3/108=0112500000)
 --------------------------------------------------------

 -----
 TITLE
 -----
 Symbolic Z-matrix:
 Charge =  1 Multiplicity = 2

                         Standard orientation:
 ---------------------------------------------------------------------
 Center     Atomic      Atomic             Coordinates (Angstroms)
 Number     Number       Type             X           Y           Z
 ---------------------------------------------------------------------
      1          8           0      -13.903076   -2.316309    0.844302
      2          8           0       14.702889    0.942117    0.700870
      3          6           0      -11.775780    0.116119    1.296691
      4          6           0      -10.935328    0.179187   -0.012126
      5          6           0      -11.897217   -1.352131    1.738786
      6          6           0      -12.477385   -2.295187    0.688599
      7          6           0      -11.429881   -0.812393   -1.054499
      8          6           0       11.125359    0.080855    1.704204
      9          6           0      -11.094154    0.918844    2.410771
     10          6           0      -13.156178    0.737671    1.031934
     11          6           0       12.492686    0.786796    1.734595
     12          6           0      -12.090087   -1.916977   -0.713050
     13          6           0       13.435311    0.298549    0.648740
     14          6           0       10.603857   -0.041001    0.262532
     15          6           0       -9.461776   -0.053200    0.194281
     16          6           0       12.827182    0.599608   -0.704077
     17          6           0       11.370688    0.221990   -0.812114
     18          6           0       10.160509    0.913751    2.570142
     19          6           0       11.236534   -1.327617    2.321203
     20          6           0      -11.099649   -0.483263   -2.480608
     21          6           0       -8.502777    0.817661   -0.138000
     22          6           0        9.202833   -0.480041    0.141160
     23          6           0       10.877978    0.218132   -2.234496
     24          6           0       -7.066607    0.624389    0.019675
     25          6           0        8.775333   -1.510594   -0.601141
     26          6           0       -6.593457   -0.672840    0.611750
     27          6           0        7.387021   -1.953807   -0.748879
     28          6           0       -6.238055    1.620471   -0.375602
     29          6           0        7.215997   -3.433862   -0.965307
     30          6           0        6.363954   -1.070881   -0.703246
     31          6           0       -4.801143    1.649659   -0.317649
     32          6           0        4.955193   -1.356784   -0.777443
     33          6           0       -4.067395    2.701631   -0.734753
     34          6           0       -2.613997    2.816021   -0.733655
     35          6           0        4.006310   -0.396612   -0.740198
     36          6           0        2.574209   -0.600345   -0.803518
     37          6           0       -2.092790    4.229080   -0.705361
     38          6           0       -1.816086    1.720783   -0.773243
     39          6           0        1.765613    0.490454   -0.748741
     40          6           0        2.062164   -2.008608   -0.928200
     41          6           0       -0.382805    1.679484   -0.731355
     42          6           0        0.333194    0.532563   -0.796921
     43          1           0      -11.052914    1.185978   -0.427777
     44          1           0      -12.513558   -1.422741    2.637301
     45          1           0      -10.904760   -1.718064    2.014747
     46          1           0      -12.100740   -3.307005    0.891922
     47          1           0      -10.127899    0.494532    2.687131
     48          1           0      -10.924176    1.952150    2.099662
     49          1           0      -11.724061    0.936078    3.302741
     50          1           0      -13.671959    0.253019    0.205188
     51          1           0      -13.792234    0.643612    1.913513
     52          1           0      -13.052650    1.800987    0.801668
     53          1           0       12.355759    1.863825    1.598491
     54          1           0       12.943406    0.644626    2.722462
     55          1           0      -12.401223   -2.608093   -1.493574
     56          1           0       13.573916   -0.786175    0.742497
     57          1           0       -9.191831   -1.016608    0.614791
     58          1           0       13.391528    0.087708   -1.488758
     59          1           0       12.942811    1.671232   -0.905516
     60          1           0        9.218470    0.396201    2.752489
     61          1           0        9.941690    1.875599    2.102418
     62          1           0       10.616716    1.108326    3.543153
     63          1           0       11.948679   -1.949801    1.777527
     64          1           0       10.271591   -1.835963    2.297853
     65          1           0       11.561029   -1.264510    3.362761
     66          1           0      -10.025835   -0.321435   -2.602602
     67          1           0      -11.596897    0.443576   -2.781202
     68          1           0      -11.410270   -1.275150   -3.161639
     69          1           0      -14.282347   -2.769778    0.089572
     70          1           0        8.471815    0.044269    0.748702
     71          1           0       -8.802723    1.770562   -0.567254
     72          1           0       11.262696   -0.648984   -2.779704
     73          1           0        9.793663    0.207592   -2.308081
     74          1           0       11.256187    1.103042   -2.754314
     75          1           0       15.100626    0.756595    1.552894
     76          1           0        9.520526   -2.110944   -1.116851
     77          1           0       -5.511394   -0.727628    0.693361
     78          1           0       -7.011023   -0.812814    1.611930
     79          1           0       -6.927029   -1.517335    0.003554
     80          1           0       -6.703049    2.511168   -0.790361
     81          1           0        7.525680   -3.991739   -0.077278
     82          1           0        6.193779   -3.717704   -1.203309
     83          1           0        7.854603   -3.769007   -1.786844
     84          1           0        6.620744   -0.019600   -0.610876
     85          1           0       -4.287104    0.790121    0.096247
     86          1           0        4.648971   -2.392637   -0.858747
     87          1           0       -4.605052    3.581137   -1.082203
     88          1           0        4.332091    0.636631   -0.652405
     89          1           0       -1.014620    4.291575   -0.827847
     90          1           0       -2.356036    4.717529    0.236662
     91          1           0       -2.552928    4.814474   -1.505602
     92          1           0       -2.301626    0.753431   -0.860750
     93          1           0        2.254283    1.457166   -0.657875
     94          1           0        2.390690   -2.614217   -0.080020
     95          1           0        0.977598   -2.057680   -0.970078
     96          1           0        2.452235   -2.481131   -1.832995
     97          1           0        0.161443    2.612901   -0.634483
     98          1           0       -0.212055   -0.400709   -0.888942
 ---------------------------------------------------------------------

 SCF Done:  E(UwB97XD) =  -1708.34706194     A.U. after   23 cycles

 Alpha virt. eigenvalues --    0.30682   0.30901   0.31320   0.31486   0.31606
 Alpha virt. eigenvalues --    0.31836   0.32183   0.32406   0.32585   0.32824
 Alpha virt. eigenvalues --    0.33009   0.33325   0.33451   0.33772   0.33791

  Beta  occ. eigenvalues --  -19.25885 -19.25513 -10.38456 -10.38453 -10.37427
  Beta  occ. eigenvalues --  -10.37202 -10.37028 -10.36840 -10.36685 -10.36474
  Beta  occ. eigenvalues --  -10.36364 -10.36346 -10.35845 -10.35431 -10.34925
  Beta  occ. eigenvalues --  -10.34758 -10.34667 -10.34427 -10.34222 -10.34052
  Beta  occ. eigenvalues --  -10.33916 -10.33596 -10.33302 -10.33163 -10.32902
  Beta  occ. eigenvalues --  -10.32890 -10.32796 -10.32725 -10.32168 -10.31830
  Beta  occ. eigenvalues --  -10.31691 -10.31660 -10.30117 -10.30048 -10.29658
  Beta  occ. eigenvalues --  -10.29570 -10.29555 -10.29532 -10.29270 -10.29151
  Beta  occ. eigenvalues --  -10.28446 -10.27365  -1.13452  -1.12882  -1.01374
  Beta  occ. eigenvalues --   -1.00380  -0.99141  -0.98650  -0.97754  -0.97208
  Beta  occ. eigenvalues --   -0.95872  -0.93195  -0.92001  -0.91456  -0.90657
  Beta  occ. eigenvalues --   -0.89934  -0.89049  -0.87309  -0.85828  -0.85559
  Beta  occ. eigenvalues --   -0.84946  -0.84394  -0.83140  -0.81475  -0.81033
  Beta  occ. eigenvalues --   -0.80505  -0.79878  -0.79673  -0.79043  -0.78174
  Beta  occ. eigenvalues --   -0.76175  -0.74289  -0.72353  -0.72025  -0.70709
  Beta  occ. eigenvalues --   -0.70377  -0.70044  -0.69113  -0.68536  -0.67297
  Beta  occ. eigenvalues --   -0.67027  -0.66485  -0.65226  -0.63730  -0.63585
  Beta  occ. eigenvalues --   -0.62949  -0.62504  -0.61624  -0.60962  -0.60801
  Beta  occ. eigenvalues --   -0.60033  -0.59484  -0.59067  -0.58539  -0.57671
  Beta  occ. eigenvalues --   -0.57647  -0.57500  -0.57190  -0.57005  -0.56887
  Beta  occ. eigenvalues --   -0.56026  -0.55893  -0.55776  -0.55406  -0.55125
  Beta  occ. eigenvalues --   -0.54113  -0.54080  -0.53664  -0.53573  -0.53506
  Beta  occ. eigenvalues --   -0.53026  -0.52549  -0.52374  -0.52095  -0.51896
  Beta  occ. eigenvalues --   -0.51737  -0.51506  -0.51395  -0.50753  -0.50554
  Beta  occ. eigenvalues --   -0.50529  -0.50394  -0.50230  -0.50094  -0.49642
  Beta  occ. eigenvalues --   -0.49509  -0.49062  -0.48752  -0.48506  -0.48450
  Beta  occ. eigenvalues --   -0.48323  -0.47670  -0.47557  -0.47501  -0.47397
  Beta  occ. eigenvalues --   -0.46460  -0.46438  -0.45928  -0.45484  -0.45033
  Beta  occ. eigenvalues --   -0.44637  -0.44290  -0.43429  -0.42688  -0.42266
  Beta  occ. eigenvalues --   -0.42151  -0.41682  -0.40954  -0.40129  -0.37624
  Beta  occ. eigenvalues --   -0.37219  -0.36981  -0.35539  -0.34881  -0.32783
  Beta virt. eigenvalues --   -0.21353  -0.13720  -0.09495  -0.06096  -0.02940
  Beta virt. eigenvalues --   -0.00895   0.00346   0.01147   0.01291   0.02213
  Beta virt. eigenvalues --    0.02354   0.02735   0.03021   0.03168   0.03470

 Mulliken charges and spin densities:
               1          2
     1  O   -0.480367   0.000207
     2  O   -0.467533   0.000047
     3  C    0.047581   0.003756
     4  C    0.227066  -0.005180
     5  C   -0.287807   0.000719
     6  C    0.297848  -0.000277
     7  C   -0.044253   0.002016
     8  C    0.135337   0.002764
     9  C   -0.318759   0.001087
    10  C   -0.356188   0.000103
    11  C   -0.227101   0.000023
    12  C   -0.320278   0.003055
    13  C    0.122063   0.000346
    14  C    0.000087  -0.017223
    15  C   -0.354691   0.100485
    16  C   -0.139847  -0.001728
    17  C   -0.008936   0.031912
    18  C   -0.396056  -0.000318
    19  C   -0.383624   0.001245
    20  C   -0.360075   0.001146
    21  C   -0.138671  -0.039370
    22  C   -0.255482   0.098751
    23  C   -0.367892  -0.000957
    24  C    0.140415   0.125689
    25  C   -0.222919  -0.039627
    26  C   -0.358679  -0.005650
    27  C    0.156922   0.148708
    28  C   -0.154273  -0.050211
    29  C   -0.333691  -0.007183
    30  C   -0.192230  -0.031521
    31  C    0.001332   0.127457
    32  C    0.010185   0.144366
    33  C   -0.208868  -0.037937
    34  C    0.116800   0.126179
    35  C   -0.206593  -0.028522
    36  C    0.132678   0.109569
    37  C   -0.334806  -0.006989
    38  C   -0.124843   0.024788
    39  C   -0.101346   0.037825
    40  C   -0.374833  -0.006212
    41  C   -0.070914   0.078967
    42  C   -0.094050   0.063908
    43  H    0.077731   0.000037
    44  H    0.117310   0.000118
    45  H    0.096665  -0.000067
    46  H    0.063398   0.000039
    47  H    0.110851  -0.000171
    48  H    0.113526   0.000029
    49  H    0.132307  -0.000053
    50  H    0.139445   0.000004
    51  H    0.123079   0.000375
    52  H    0.104905   0.000006
    53  H    0.107009   0.000005
    54  H    0.105738   0.000101
    55  H    0.108968   0.000299
    56  H    0.062212  -0.000004
    57  H    0.164170  -0.003560
    58  H    0.120517   0.001787
    59  H    0.119194   0.001724
    60  H    0.113816   0.000039
    61  H    0.131127   0.000040
    62  H    0.133723  -0.000058
    63  H    0.119802  -0.000013
    64  H    0.122675  -0.000161
    65  H    0.124335  -0.000192
    66  H    0.124896  -0.000033
    67  H    0.126145  -0.000061
    68  H    0.118406  -0.000004
    69  H    0.309790  -0.000006
    70  H    0.146536  -0.003256
    71  H    0.113963   0.001400
    72  H    0.133301   0.001445
    73  H    0.135352  -0.000055
    74  H    0.136400   0.001753
    75  H    0.313871  -0.000015
    76  H    0.146434   0.003753
    77  H    0.107529   0.000166
    78  H    0.152164   0.005611
    79  H    0.151320   0.005797
    80  H    0.115647   0.001197
    81  H    0.150192   0.008087
    82  H    0.107935   0.000030
    83  H    0.143942   0.005890
    84  H    0.138819   0.000855
    85  H    0.111384  -0.003846
    86  H    0.138006  -0.004963
    87  H    0.130185   0.002116
    88  H    0.117587   0.001020
    89  H    0.114446  -0.000205
    90  H    0.154953   0.007488
    91  H    0.146413   0.005483
    92  H    0.123797  -0.000622
    93  H    0.122849  -0.001846
    94  H    0.152621   0.005901
    95  H    0.124482   0.000308
    96  H    0.154097   0.005817
    97  H    0.114492  -0.003172
    98  H    0.106834  -0.002567
 Sum of Mulliken charges =   1.00000   1.00000

 Dipole moment (field-independent basis, Debye):
    X=              2.5685    Y=             -0.5554    Z=             -2.0861  Tot=              3.3552
 Quadrupole moment (field-independent basis, Debye-Ang):
   XX=            -23.6323   YY=           -218.4725   ZZ=           -247.7550
   XY=            -26.5361   XZ=             27.3291   YZ=              2.6028

 Normal termination of Gaussian 16 at Tue Nov 26 13:32:51 2019.
