 Gaussian 16, Revision A.03,
 Gaussian 16:  ES64L-G16RevA.03 25-Dec-2016

 --------------------------------------------------------
 # wB97XD/Def2TZVP iop(3/107=0106300000,3/108=0106300000)
 --------------------------------------------------------

 -----
 TITLE
 -----
 Symbolic Z-matrix:
 Charge =  1 Multiplicity = 2

                         Standard orientation:
 ---------------------------------------------------------------------
 Center     Atomic      Atomic             Coordinates (Angstroms)
 Number     Number       Type             X           Y           Z
 ---------------------------------------------------------------------
      1          8           0      -13.910242   -2.309315    0.851208
      2          8           0       14.707064    0.947122    0.694577
      3          6           0      -11.778309    0.123777    1.296527
      4          6           0      -10.938388    0.182165   -0.013541
      5          6           0      -11.902547   -1.343604    1.741930
      6          6           0      -12.484341   -2.288527    0.693830
      7          6           0      -11.436527   -0.810472   -1.053669
      8          6           0       11.127580    0.093921    1.701988
      9          6           0      -11.094071    0.927613    2.408744
     10          6           0      -13.157844    0.747976    1.031351
     11          6           0       12.495641    0.799492    1.728413
     12          6           0      -12.098374   -1.913291   -0.709110
     13          6           0       13.438829    0.303715    0.646087
     14          6           0       10.606868   -0.038038    0.260431
     15          6           0       -9.464937   -0.053329    0.191781
     16          6           0       12.831309    0.595918   -0.709236
     17          6           0       11.374595    0.217800   -0.815633
     18          6           0       10.162411    0.933863    2.561500
     19          6           0       11.237581   -1.310508    2.329330
     20          6           0      -11.108066   -0.484682   -2.481243
     21          6           0       -8.503999    0.815732   -0.140979
     22          6           0        9.205854   -0.477836    0.141260
     23          6           0       10.882561    0.205220   -2.238454
     24          6           0       -7.068195    0.619947    0.015432
     25          6           0        8.778225   -1.513889   -0.593917
     26          6           0       -6.596167   -0.678546    0.606280
     27          6           0        7.390371   -1.958748   -0.739581
     28          6           0       -6.238103    1.615422   -0.380013
     29          6           0        7.220440   -3.439933   -0.951110
     30          6           0        6.365844   -1.076585   -0.696599
     31          6           0       -4.801473    1.643020   -0.323386
     32          6           0        4.957633   -1.363741   -0.769082
     33          6           0       -4.066579    2.695062   -0.740101
     34          6           0       -2.613508    2.809220   -0.740520
     35          6           0        4.007449   -0.403919   -0.735331
     36          6           0        2.575816   -0.608529   -0.797229
     37          6           0       -2.091875    4.222585   -0.719669
     38          6           0       -1.814865    1.713554   -0.775090
     39          6           0        1.766447    0.482745   -0.746675
     40          6           0        2.063588   -2.017552   -0.915858
     41          6           0       -0.382046    1.672358   -0.733708
     42          6           0        0.334493    0.524737   -0.794428
     43          1           0      -11.053992    1.188305   -0.430982
     44          1           0      -12.518837   -1.411201    2.640596
     45          1           0      -10.910840   -1.710623    2.018772
     46          1           0      -12.107859   -3.300060    0.898710
     47          1           0      -10.128362    0.502229    2.685015
     48          1           0      -10.922645    1.960024    2.095756
     49          1           0      -11.722947    0.947629    3.301306
     50          1           0      -13.675508    0.262518    0.206365
     51          1           0      -13.793308    0.657812    1.913676
     52          1           0      -13.052323    1.810391    0.798181
     53          1           0       12.359348    1.875599    1.585394
     54          1           0       12.945737    0.663595    2.717341
     55          1           0      -12.411838   -2.605307   -1.487819
     56          1           0       13.577119   -0.780306    0.747086
     57          1           0       -9.196740   -1.017337    0.611732
     58          1           0       13.395970    0.078693   -1.490105
     59          1           0       12.947259    1.666043   -0.917956
     60          1           0        9.219826    0.418471    2.746689
     61          1           0        9.944726    1.892561    2.087001
     62          1           0       10.617792    1.134909    3.533504
     63          1           0       11.949446   -1.937057    1.790470
     64          1           0       10.272426   -1.818415    2.309342
     65          1           0       11.561743   -1.240316    3.370464
     66          1           0      -10.034227   -0.325333   -2.605638
     67          1           0      -11.603936    0.442495   -2.782909
     68          1           0      -11.421457   -1.277178   -3.160205
     69          1           0      -14.290347   -2.763146    0.097176
     70          1           0        8.474923    0.050749    0.745009
     71          1           0       -8.802430    1.769242   -0.569716
     72          1           0       11.268534   -0.664422   -2.778639
     73          1           0        9.798379    0.193113   -2.312542
     74          1           0       11.259869    1.087591   -2.763153
     75          1           0       15.104286    0.766784    1.547900
     76          1           0        9.523796   -2.118010   -1.104429
     77          1           0       -5.514171   -0.734830    0.686851
     78          1           0       -7.012793   -0.818749    1.606760
     79          1           0       -6.931253   -1.522219   -0.002139
     80          1           0       -6.702442    2.506884   -0.793670
     81          1           0        7.530038   -3.994755   -0.061173
     82          1           0        6.198568   -3.725229   -1.188515
     83          1           0        7.859428   -3.777516   -1.771286
     84          1           0        6.621675   -0.024813   -0.608210
     85          1           0       -4.288192    0.782484    0.089108
     86          1           0        4.652134   -2.400033   -0.846104
     87          1           0       -4.604141    3.575106   -1.086050
     88          1           0        4.332699    0.629764   -0.651825
     89          1           0       -1.014030    4.284292   -0.844709
     90          1           0       -2.352869    4.715423    0.220659
     91          1           0       -2.553394    4.804544   -1.521546
     92          1           0       -2.300349    0.745835   -0.857522
     93          1           0        2.255213    1.449718   -0.660086
     94          1           0        2.391968   -2.619639   -0.065183
     95          1           0        0.979079   -2.066666   -0.957402
     96          1           0        2.453287   -2.494031   -1.818672
     97          1           0        0.162295    2.606071   -0.641266
     98          1           0       -0.210844   -0.408817   -0.882023
 ---------------------------------------------------------------------

 SCF Done:  E(UwB97XD) =  -1708.37755831     A.U. after   23 cycles

 Alpha virt. eigenvalues --    0.30606   0.30800   0.31246   0.31410   0.31517
 Alpha virt. eigenvalues --    0.31735   0.32095   0.32304   0.32498   0.32726
 Alpha virt. eigenvalues --    0.32913   0.33215   0.33330   0.33673   0.33709

  Beta  occ. eigenvalues --  -19.25597 -19.25226 -10.38119 -10.38111 -10.37078
  Beta  occ. eigenvalues --  -10.36858 -10.36732 -10.36499 -10.36357 -10.36205
  Beta  occ. eigenvalues --  -10.36063 -10.36024 -10.35531 -10.35143 -10.34656
  Beta  occ. eigenvalues --  -10.34489 -10.34380 -10.34104 -10.33959 -10.33737
  Beta  occ. eigenvalues --  -10.33649 -10.33340 -10.33032 -10.32870 -10.32643
  Beta  occ. eigenvalues --  -10.32615 -10.32536 -10.32466 -10.31908 -10.31573
  Beta  occ. eigenvalues --  -10.31421 -10.31404 -10.29849 -10.29783 -10.29388
  Beta  occ. eigenvalues --  -10.29301 -10.29283 -10.29262 -10.28997 -10.28881
  Beta  occ. eigenvalues --  -10.28176 -10.27098  -1.13139  -1.12569  -1.01006
  Beta  occ. eigenvalues --   -1.00026  -0.98810  -0.98326  -0.97424  -0.96882
  Beta  occ. eigenvalues --   -0.95525  -0.92862  -0.91673  -0.91141  -0.90344
  Beta  occ. eigenvalues --   -0.89613  -0.88734  -0.86962  -0.85521  -0.85253
  Beta  occ. eigenvalues --   -0.84607  -0.84080  -0.82804  -0.81172  -0.80730
  Beta  occ. eigenvalues --   -0.80205  -0.79579  -0.79373  -0.78746  -0.77856
  Beta  occ. eigenvalues --   -0.75866  -0.73982  -0.72055  -0.71693  -0.70397
  Beta  occ. eigenvalues --   -0.70082  -0.69729  -0.68802  -0.68229  -0.67003
  Beta  occ. eigenvalues --   -0.66735  -0.66166  -0.64907  -0.63425  -0.63279
  Beta  occ. eigenvalues --   -0.62642  -0.62197  -0.61322  -0.60662  -0.60503
  Beta  occ. eigenvalues --   -0.59731  -0.59188  -0.58756  -0.58237  -0.57376
  Beta  occ. eigenvalues --   -0.57314  -0.57203  -0.56890  -0.56704  -0.56581
  Beta  occ. eigenvalues --   -0.55729  -0.55609  -0.55467  -0.55119  -0.54832
  Beta  occ. eigenvalues --   -0.53831  -0.53789  -0.53379  -0.53270  -0.53222
  Beta  occ. eigenvalues --   -0.52719  -0.52250  -0.52086  -0.51809  -0.51625
  Beta  occ. eigenvalues --   -0.51465  -0.51229  -0.51117  -0.50465  -0.50273
  Beta  occ. eigenvalues --   -0.50246  -0.50115  -0.49900  -0.49815  -0.49349
  Beta  occ. eigenvalues --   -0.49235  -0.48790  -0.48475  -0.48233  -0.48184
  Beta  occ. eigenvalues --   -0.48025  -0.47402  -0.47281  -0.47223  -0.47131
  Beta  occ. eigenvalues --   -0.46198  -0.46181  -0.45671  -0.45222  -0.44764
  Beta  occ. eigenvalues --   -0.44362  -0.44023  -0.43165  -0.42429  -0.42009
  Beta  occ. eigenvalues --   -0.41891  -0.41421  -0.40701  -0.39880  -0.37389
  Beta  occ. eigenvalues --   -0.36957  -0.36716  -0.35293  -0.34663  -0.32570
  Beta virt. eigenvalues --   -0.21373  -0.13837  -0.09644  -0.06256  -0.03105
  Beta virt. eigenvalues --   -0.01053   0.00189   0.01127   0.01161   0.02175
  Beta virt. eigenvalues --    0.02238   0.02661   0.02957   0.03094   0.03437

 Mulliken charges and spin densities:
               1          2
     1  O   -0.482171   0.000213
     2  O   -0.469591   0.000047
     3  C    0.043748   0.003799
     4  C    0.229711  -0.005239
     5  C   -0.284889   0.000732
     6  C    0.302089  -0.000278
     7  C   -0.046589   0.002061
     8  C    0.131005   0.002752
     9  C   -0.316334   0.001122
    10  C   -0.353436   0.000109
    11  C   -0.223865   0.000022
    12  C   -0.319194   0.003108
    13  C    0.125703   0.000365
    14  C   -0.002206  -0.017246
    15  C   -0.356085   0.101449
    16  C   -0.137697  -0.001795
    17  C   -0.007178   0.032562
    18  C   -0.393024  -0.000329
    19  C   -0.380351   0.001291
    20  C   -0.356003   0.001152
    21  C   -0.135584  -0.039445
    22  C   -0.254592   0.099348
    23  C   -0.365559  -0.000985
    24  C    0.139363   0.125742
    25  C   -0.221734  -0.039167
    26  C   -0.356826  -0.005722
    27  C    0.155947   0.147675
    28  C   -0.153072  -0.049284
    29  C   -0.331093  -0.007184
    30  C   -0.190454  -0.030331
    31  C    0.002195   0.126690
    32  C    0.009399   0.142697
    33  C   -0.207516  -0.036242
    34  C    0.114816   0.124337
    35  C   -0.204927  -0.027053
    36  C    0.130819   0.108217
    37  C   -0.332208  -0.006943
    38  C   -0.122747   0.025409
    39  C   -0.100069   0.037671
    40  C   -0.372943  -0.006243
    41  C   -0.071527   0.077871
    42  C   -0.093782   0.063803
    43  H    0.076323   0.000033
    44  H    0.116221   0.000122
    45  H    0.096017  -0.000069
    46  H    0.061741   0.000039
    47  H    0.110670  -0.000184
    48  H    0.112838   0.000026
    49  H    0.131626  -0.000057
    50  H    0.139401   0.000004
    51  H    0.122343   0.000384
    52  H    0.104239   0.000005
    53  H    0.106165   0.000005
    54  H    0.104648   0.000104
    55  H    0.107728   0.000304
    56  H    0.061243  -0.000006
    57  H    0.164705  -0.003671
    58  H    0.119418   0.001829
    59  H    0.118377   0.001771
    60  H    0.113154   0.000039
    61  H    0.130480   0.000044
    62  H    0.133030  -0.000059
    63  H    0.119145  -0.000013
    64  H    0.122273  -0.000168
    65  H    0.123593  -0.000192
    66  H    0.124305  -0.000031
    67  H    0.125287  -0.000062
    68  H    0.117566  -0.000002
    69  H    0.309922  -0.000006
    70  H    0.146412  -0.003299
    71  H    0.113058   0.001417
    72  H    0.132439   0.001482
    73  H    0.135193  -0.000051
    74  H    0.135698   0.001799
    75  H    0.313975  -0.000015
    76  H    0.145945   0.003736
    77  H    0.106854   0.000172
    78  H    0.151560   0.005620
    79  H    0.150683   0.005800
    80  H    0.114931   0.001177
    81  H    0.149313   0.008062
    82  H    0.107228   0.000043
    83  H    0.143039   0.005853
    84  H    0.138103   0.000826
    85  H    0.111099  -0.003856
    86  H    0.138386  -0.005014
    87  H    0.129313   0.002019
    88  H    0.116646   0.000995
    89  H    0.113760  -0.000178
    90  H    0.153932   0.007411
    91  H    0.145397   0.005402
    92  H    0.122736  -0.000628
    93  H    0.121739  -0.001842
    94  H    0.151751   0.005824
    95  H    0.123600   0.000322
    96  H    0.153194   0.005739
    97  H    0.113846  -0.003175
    98  H    0.106161  -0.002592
 Sum of Mulliken charges =   1.00000   1.00000

 Dipole moment (field-independent basis, Debye):
    X=              2.5553    Y=             -0.5754    Z=             -2.0651  Tot=              3.3355
 Quadrupole moment (field-independent basis, Debye-Ang):
   XX=            -21.6497   YY=           -218.3349   ZZ=           -247.5747
   XY=            -26.3764   XZ=             27.5057   YZ=              2.5454

 Normal termination of Gaussian 16 at Thu Nov 28 16:17:45 2019.
