 Gaussian 16, Revision A.03,
 Gaussian 16:  ES64L-G16RevA.03 25-Dec-2016

 --------------------------------------------------------
 # wB97XD/Def2TZVP iop(3/107=0050000000,3/108=0050000000)
 --------------------------------------------------------

 -----
 TITLE
 -----
 Symbolic Z-matrix:
 Charge =  1 Multiplicity = 2

                         Standard orientation:
 ---------------------------------------------------------------------
 Center     Atomic      Atomic             Coordinates (Angstroms)
 Number     Number       Type             X           Y           Z
 ---------------------------------------------------------------------
      1          8           0      -13.994705   -2.248309    0.876093
      2          8           0       14.749003    1.017084    0.649032
      3          6           0      -11.807791    0.179829    1.310949
      4          6           0      -10.976662    0.223820   -0.013127
      5          6           0      -11.965701   -1.290781    1.750252
      6          6           0      -12.567400   -2.225653    0.698365
      7          6           0      -11.519178   -0.748339   -1.056536
      8          6           0       11.165215    0.160884    1.687772
      9          6           0      -11.090429    0.960589    2.425817
     10          6           0      -13.176822    0.844911    1.063798
     11          6           0       12.536137    0.872130    1.697741
     12          6           0      -12.199349   -1.840299   -0.709070
     13          6           0       13.479920    0.364913    0.616129
     14          6           0       10.641275   -0.004558    0.245004
     15          6           0       -9.504189   -0.055518    0.169736
     16          6           0       12.862595    0.630782   -0.743935
     17          6           0       11.405293    0.239095   -0.838522
     18          6           0       10.197003    1.022229    2.532010
     19          6           0       11.278668   -1.232890    2.349558
     20          6           0      -11.216228   -0.416638   -2.492610
     21          6           0       -8.520765    0.797328   -0.150336
     22          6           0        9.240155   -0.456323    0.137344
     23          6           0       10.906584    0.202324   -2.262381
     24          6           0       -7.087584    0.566004   -0.019203
     25          6           0        8.817184   -1.529236   -0.550486
     26          6           0       -6.629673   -0.762438    0.523171
     27          6           0        7.433763   -1.995519   -0.680100
     28          6           0       -6.240742    1.561707   -0.394350
     29          6           0        7.282710   -3.487979   -0.849277
     30          6           0        6.393213   -1.124934   -0.660662
     31          6           0       -4.805103    1.568424   -0.357347
     32          6           0        4.989262   -1.427219   -0.720335
     33          6           0       -4.058345    2.628286   -0.748226
     34          6           0       -2.606998    2.739859   -0.766143
     35          6           0        4.024543   -0.474625   -0.712103
     36          6           0        2.595875   -0.688586   -0.760838
     37          6           0       -2.082987    4.156706   -0.792252
     38          6           0       -1.801062    1.641988   -0.773952
     39          6           0        1.779141    0.405662   -0.737541
     40          6           0        2.083243   -2.104454   -0.835412
     41          6           0       -0.371086    1.600481   -0.744447
     42          6           0        0.350034    0.447702   -0.775991
     43          1           0      -11.069085    1.234470   -0.420373
     44          1           0      -12.580181   -1.350234    2.649312
     45          1           0      -10.982874   -1.679290    2.024809
     46          1           0      -12.190986   -3.239597    0.889404
     47          1           0      -10.131621    0.513049    2.686700
     48          1           0      -10.901348    1.992017    2.123272
     49          1           0      -11.705962    0.985261    3.326718
     50          1           0      -13.720487    0.374550    0.248113
     51          1           0      -13.801515    0.776234    1.954758
     52          1           0      -13.047294    1.902898    0.826166
     53          1           0       12.396334    1.944739    1.542516
     54          1           0       12.990768    0.752115    2.685335
     55          1           0      -12.542938   -2.517277   -1.487346
     56          1           0       13.627482   -0.715034    0.732998
     57          1           0       -9.257960   -1.036410    0.559015
     58          1           0       13.427882    0.104255   -1.517080
     59          1           0       12.969313    1.696670   -0.973318
     60          1           0        9.254091    0.512812    2.727004
     61          1           0        9.980007    1.970866    2.039097
     62          1           0       10.649781    1.243541    3.500011
     63          1           0       11.983912   -1.873859    1.820803
     64          1           0       10.313976   -1.739890    2.351359
     65          1           0       11.612097   -1.140489    3.385244
     66          1           0      -10.143318   -0.283550   -2.645124
     67          1           0      -11.696776    0.523762   -2.776139
     68          1           0      -11.565530   -1.194578   -3.170104
     69          1           0      -14.382482   -2.717176    0.136049
     70          1           0        8.506941    0.096860    0.713521
     71          1           0       -8.799612    1.768872   -0.548127
     72          1           0       11.309856   -0.661782   -2.797839
     73          1           0        9.823575    0.165190   -2.331455
     74          1           0       11.258319    1.088844   -2.796972
     75          1           0       15.156797    0.838606    1.497057
     76          1           0        9.567825   -2.151892   -1.027692
     77          1           0       -5.548336   -0.842436    0.580102
     78          1           0       -7.027089   -0.926475    1.527214
     79          1           0       -6.991129   -1.580455   -0.103949
     80          1           0       -6.696574    2.472607   -0.771238
     81          1           0        7.602835   -4.014129    0.053969
     82          1           0        6.264272   -3.793354   -1.072605
     83          1           0        7.920392   -3.841576   -1.663172
     84          1           0        6.636899   -0.069176   -0.604156
     85          1           0       -4.300888    0.687211    0.017574
     86          1           0        4.694760   -2.467222   -0.765358
     87          1           0       -4.593868    3.521597   -1.058151
     88          1           0        4.341732    0.562746   -0.660841
     89          1           0       -1.008209    4.213967   -0.937534
     90          1           0       -2.325065    4.674887    0.139233
     91          1           0       -2.555926    4.718845   -1.600864
     92          1           0       -2.285579    0.672681   -0.819917
     93          1           0        2.268255    1.373786   -0.682676
     94          1           0        2.412371   -2.681118    0.031757
     95          1           0        0.999302   -2.155262   -0.871985
     96          1           0        2.467840   -2.608134   -1.724886
     97          1           0        0.173918    2.535296   -0.685432
     98          1           0       -0.195611   -0.487049   -0.830560
 ---------------------------------------------------------------------

 SCF Done:  E(UwB97XD) =  -1708.82513055     A.U. after   20 cycles

 Alpha virt. eigenvalues --    0.29628   0.29972   0.30395   0.30620   0.30645
 Alpha virt. eigenvalues --    0.30839   0.31150   0.31260   0.31441   0.31811
 Alpha virt. eigenvalues --    0.31936   0.32052   0.32338   0.32486   0.32791

  Beta  occ. eigenvalues --  -19.22874 -19.22570 -10.35147 -10.35068 -10.34014
  Beta  occ. eigenvalues --  -10.33983 -10.33812 -10.33748 -10.33469 -10.33398
  Beta  occ. eigenvalues --  -10.33337 -10.33155 -10.32705 -10.32549 -10.32233
  Beta  occ. eigenvalues --  -10.31987 -10.31742 -10.31554 -10.31224 -10.31108
  Beta  occ. eigenvalues --  -10.30955 -10.30922 -10.30503 -10.30251 -10.30214
  Beta  occ. eigenvalues --  -10.30138 -10.30126 -10.29966 -10.29535 -10.29141
  Beta  occ. eigenvalues --  -10.29093 -10.28921 -10.27339 -10.27291 -10.26926
  Beta  occ. eigenvalues --  -10.26802 -10.26747 -10.26728 -10.26473 -10.26424
  Beta  occ. eigenvalues --  -10.25711 -10.24667  -1.10207  -1.09710  -0.97712
  Beta  occ. eigenvalues --   -0.96848  -0.95773  -0.95331  -0.94368  -0.93882
  Beta  occ. eigenvalues --   -0.92381  -0.89834  -0.88665  -0.88183  -0.87464
  Beta  occ. eigenvalues --   -0.86644  -0.85860  -0.83854  -0.82671  -0.82455
  Beta  occ. eigenvalues --   -0.81555  -0.81225  -0.79754  -0.78342  -0.77922
  Beta  occ. eigenvalues --   -0.77429  -0.76781  -0.76626  -0.76031  -0.74954
  Beta  occ. eigenvalues --   -0.73027  -0.71128  -0.69319  -0.68678  -0.67548
  Beta  occ. eigenvalues --   -0.67333  -0.66800  -0.65923  -0.65351  -0.64281
  Beta  occ. eigenvalues --   -0.64015  -0.63254  -0.61936  -0.60570  -0.60393
  Beta  occ. eigenvalues --   -0.59796  -0.59324  -0.58472  -0.57850  -0.57685
  Beta  occ. eigenvalues --   -0.56858  -0.56384  -0.55839  -0.55386  -0.54594
  Beta  occ. eigenvalues --   -0.54463  -0.54242  -0.54094  -0.53839  -0.53690
  Beta  occ. eigenvalues --   -0.52938  -0.52920  -0.52593  -0.52350  -0.52040
  Beta  occ. eigenvalues --   -0.51100  -0.51054  -0.50679  -0.50550  -0.50377
  Beta  occ. eigenvalues --   -0.49864  -0.49471  -0.49315  -0.49076  -0.49040
  Beta  occ. eigenvalues --   -0.48806  -0.48608  -0.48484  -0.47741  -0.47623
  Beta  occ. eigenvalues --   -0.47520  -0.47401  -0.47121  -0.46831  -0.46606
  Beta  occ. eigenvalues --   -0.46552  -0.46168  -0.45764  -0.45670  -0.45652
  Beta  occ. eigenvalues --   -0.45187  -0.44865  -0.44684  -0.44591  -0.44369
  Beta  occ. eigenvalues --   -0.43722  -0.43625  -0.43191  -0.42640  -0.42212
  Beta  occ. eigenvalues --   -0.41670  -0.41396  -0.40541  -0.39847  -0.39500
  Beta  occ. eigenvalues --   -0.39305  -0.38821  -0.38146  -0.37345  -0.34947
  Beta  occ. eigenvalues --   -0.34369  -0.34197  -0.32839  -0.32387  -0.30512
  Beta virt. eigenvalues --   -0.21910  -0.15237  -0.11266  -0.07912  -0.04787
  Beta virt. eigenvalues --   -0.02670  -0.01434  -0.00312   0.00690   0.00814
  Beta virt. eigenvalues --    0.01373   0.01946   0.01965   0.02466   0.02521

 Mulliken charges and spin densities:
               1          2
     1  O   -0.501739   0.000285
     2  O   -0.492543   0.000042
     3  C   -0.004871   0.004194
     4  C    0.256672  -0.006011
     5  C   -0.243391   0.000898
     6  C    0.351594  -0.000295
     7  C   -0.073462   0.002426
     8  C    0.085944   0.002546
     9  C   -0.281683   0.001507
    10  C   -0.313075   0.000177
    11  C   -0.180169  -0.000004
    12  C   -0.299166   0.003783
    13  C    0.169758   0.000554
    14  C   -0.033573  -0.016624
    15  C   -0.365272   0.112591
    16  C   -0.109366  -0.002390
    17  C    0.011190   0.036236
    18  C   -0.352974  -0.000382
    19  C   -0.335593   0.001776
    20  C   -0.303396   0.001169
    21  C   -0.094039  -0.042184
    22  C   -0.252194   0.103121
    23  C   -0.328893  -0.001138
    24  C    0.127596   0.128724
    25  C   -0.192993  -0.035937
    26  C   -0.330691  -0.006743
    27  C    0.144174   0.140436
    28  C   -0.139089  -0.043200
    29  C   -0.295386  -0.007542
    30  C   -0.174770  -0.022751
    31  C    0.010873   0.122071
    32  C    0.005261   0.130852
    33  C   -0.189801  -0.022592
    34  C    0.093579   0.110103
    35  C   -0.186361  -0.016567
    36  C    0.113597   0.099268
    37  C   -0.297135  -0.006783
    38  C   -0.100554   0.030163
    39  C   -0.085325   0.034780
    40  C   -0.346194  -0.006669
    41  C   -0.073841   0.068671
    42  C   -0.088545   0.064508
    43  H    0.057844   0.000011
    44  H    0.101261   0.000173
    45  H    0.086027  -0.000105
    46  H    0.039797   0.000049
    47  H    0.106030  -0.000374
    48  H    0.102359  -0.000002
    49  H    0.121075  -0.000101
    50  H    0.137454  -0.000005
    51  H    0.110455   0.000471
    52  H    0.093785   0.000004
    53  H    0.093465   0.000005
    54  H    0.089115   0.000135
    55  H    0.089719   0.000347
    56  H    0.048054  -0.000031
    57  H    0.166878  -0.005034
    58  H    0.103656   0.002103
    59  H    0.105718   0.002050
    60  H    0.104270   0.000035
    61  H    0.119748   0.000073
    62  H    0.122193  -0.000063
    63  H    0.109168  -0.000027
    64  H    0.114715  -0.000255
    65  H    0.112537  -0.000163
    66  H    0.114880  -0.000016
    67  H    0.112812  -0.000077
    68  H    0.105730   0.000017
    69  H    0.310347  -0.000008
    70  H    0.144858  -0.003695
    71  H    0.099557   0.001670
    72  H    0.118587   0.001679
    73  H    0.129702  -0.000054
    74  H    0.124830   0.002077
    75  H    0.314201  -0.000016
    76  H    0.136393   0.003705
    77  H    0.096418   0.000255
    78  H    0.142528   0.005722
    79  H    0.141056   0.005778
    80  H    0.105064   0.001045
    81  H    0.136614   0.007714
    82  H    0.096679   0.000180
    83  H    0.130933   0.005563
    84  H    0.129130   0.000550
    85  H    0.108729  -0.004067
    86  H    0.142831  -0.005683
    87  H    0.118003   0.001054
    88  H    0.104864   0.000808
    89  H    0.104280   0.000102
    90  H    0.140155   0.006661
    91  H    0.132562   0.004729
    92  H    0.110610  -0.000729
    93  H    0.108474  -0.001798
    94  H    0.140286   0.005163
    95  H    0.112030   0.000453
    96  H    0.141691   0.005062
    97  H    0.106672  -0.003254
    98  H    0.099017  -0.002949
 Sum of Mulliken charges =   1.00000   1.00000

 Dipole moment (field-independent basis, Debye):
    X=              2.2351    Y=             -0.8189    Z=             -1.9091  Tot=              3.0514
 Quadrupole moment (field-independent basis, Debye-Ang):
   XX=             -5.8013   YY=           -216.9546   ZZ=           -245.8761
   XY=            -25.6690   XZ=             28.3437   YZ=              2.1588

 Normal termination of Gaussian 16 at Fri Nov 22 04:10:55 2019.
