 Gaussian 16, Revision A.03,
 Gaussian 16:  ES64L-G16RevA.03 25-Dec-2016

 --------------------------------------------------------
 # wB97XD/Def2TZVP iop(3/107=0125000000,3/108=0125000000)
 --------------------------------------------------------

 -----
 TITLE
 -----
 Symbolic Z-matrix:
 Charge =  1 Multiplicity = 2

                         Standard orientation:
 ---------------------------------------------------------------------
 Center     Atomic      Atomic             Coordinates (Angstroms)
 Number     Number       Type             X           Y           Z
 ---------------------------------------------------------------------
      1          8           0      -13.888890   -2.328241    0.841421
      2          8           0       14.694355    0.931197    0.721985
      3          6           0      -11.770380    0.105241    1.297014
      4          6           0      -10.929379    0.172002   -0.009993
      5          6           0      -11.886425   -1.362908    1.738486
      6          6           0      -12.463712   -2.306476    0.688110
      7          6           0      -11.417658   -0.821396   -1.052668
      8          6           0       11.119131    0.053834    1.711542
      9          6           0      -11.093442    0.910137    2.411329
     10          6           0      -13.152420    0.720845    1.031107
     11          6           0       12.485257    0.759823    1.752385
     12          6           0      -12.074637   -1.927940   -0.712651
     13          6           0       13.427941    0.287839    0.660218
     14          6           0       10.597826   -0.046014    0.269017
     15          6           0       -9.455594   -0.053677    0.198933
     16          6           0       12.820309    0.608317   -0.687744
     17          6           0       11.364258    0.232310   -0.801347
     18          6           0       10.154135    0.872008    2.589797
     19          6           0       11.231253   -1.363175    2.306444
     20          6           0      -11.084620   -0.491239   -2.477319
     21          6           0       -8.500441    0.819857   -0.134530
     22          6           0        9.196794   -0.482963    0.140942
     23          6           0       10.871985    0.248088   -2.223299
     24          6           0       -7.063480    0.632191    0.026513
     25          6           0        8.770547   -1.502035   -0.616491
     26          6           0       -6.588063   -0.660929    0.624512
     27          6           0        7.381779   -1.942121   -0.771381
     28          6           0       -6.238090    1.628512   -0.370823
     29          6           0        7.209687   -3.419274   -1.002655
     30          6           0        6.360862   -1.058689   -0.718775
     31          6           0       -4.800559    1.661535   -0.309816
     32          6           0        4.951237   -1.342635   -0.798675
     33          6           0       -4.069297    2.712689   -0.729577
     34          6           0       -2.615241    2.827834   -0.724772
     35          6           0        4.004420   -0.382391   -0.753216
     36          6           0        2.571504   -0.584756   -0.821337
     37          6           0       -2.095154    4.240265   -0.680964
     38          6           0       -1.818675    1.733658   -0.774538
     39          6           0        1.763998    0.504581   -0.756629
     40          6           0        2.060401   -1.991329   -0.961599
     41          6           0       -0.384431    1.692110   -0.730568
     42          6           0        0.330646    0.546859   -0.806934
     43          1           0      -11.050806    1.178456   -0.426055
     44          1           0      -12.502751   -1.435873    2.637052
     45          1           0      -10.892523   -1.725693    2.014108
     46          1           0      -12.086391   -3.317974    0.892128
     47          1           0      -10.126156    0.488906    2.689413
     48          1           0      -10.926144    1.943908    2.099721
     49          1           0      -11.725156    0.925697    3.302202
     50          1           0      -13.665004    0.234735    0.203046
     51          1           0      -13.789350    0.622765    1.911802
     52          1           0      -13.052730    1.784996    0.802355
     53          1           0       12.347635    1.838779    1.631353
     54          1           0       12.935954    0.603766    2.738376
     55          1           0      -12.381665   -2.620338   -1.493838
     56          1           0       13.566897   -0.798264    0.738315
     57          1           0       -9.182210   -1.014794    0.623025
     58          1           0       13.384863    0.108022   -1.479880
     59          1           0       12.935838    1.682985   -0.873103
     60          1           0        9.212681    0.350499    2.764551
     61          1           0        9.934131    1.840662    2.136553
     62          1           0       10.610708    1.052301    3.565538
     63          1           0       11.944319   -1.976359    1.753550
     64          1           0       10.266558   -1.871885    2.274668
     65          1           0       11.555133   -1.315529    3.349161
     66          1           0      -10.010909   -0.325159   -2.595680
     67          1           0      -11.584511    0.433871   -2.779147
     68          1           0      -11.390178   -1.284441   -3.159278
     69          1           0      -14.267214   -2.779825    0.084977
     70          1           0        8.464960    0.032789    0.755117
     71          1           0       -8.803424    1.770339   -0.567417
     72          1           0       11.255855   -0.612393   -2.779680
     73          1           0        9.787548    0.239805   -2.297358
     74          1           0       11.251832    1.139352   -2.731095
     75          1           0       15.091419    0.735456    1.572140
     76          1           0        9.516061   -2.094522   -1.141187
     77          1           0       -5.505969   -0.711909    0.709614
     78          1           0       -7.008572   -0.798514    1.623902
     79          1           0       -6.917421   -1.508622    0.018295
     80          1           0       -6.704443    2.516484   -0.790251
     81          1           0        7.518456   -3.986091   -0.119909
     82          1           0        6.187344   -3.699978   -1.244379
     83          1           0        7.848966   -3.746468   -1.826997
     84          1           0        6.618557   -0.008522   -0.614986
     85          1           0       -4.284759    0.805151    0.108904
     86          1           0        4.644110   -2.377459   -0.891207
     87          1           0       -4.607242    3.590266   -1.082007
     88          1           0        4.330768    0.649815   -0.654113
     89          1           0       -1.016320    4.304497   -0.797758
     90          1           0       -2.363578    4.719808    0.264232
     91          1           0       -2.552175    4.832571   -1.478065
     92          1           0       -2.304234    0.767181   -0.873196
     93          1           0        2.252116    1.470647   -0.654751
     94          1           0        2.387715   -2.605429   -0.118941
     95          1           0        0.975838   -2.040437   -1.006367
     96          1           0        2.453013   -2.454269   -1.870366
     97          1           0        0.159541    2.624699   -0.622886
     98          1           0       -0.214331   -0.385625   -0.909747
 ---------------------------------------------------------------------

 SCF Done:  E(UwB97XD) =  -1708.29436597     A.U. after   23 cycles

 Alpha virt. eigenvalues --    0.30821   0.31111   0.31467   0.31624   0.31791
 Alpha virt. eigenvalues --    0.32046   0.32366   0.32591   0.32766   0.33014
 Alpha virt. eigenvalues --    0.33218   0.33533   0.33694   0.33941   0.33975

  Beta  occ. eigenvalues --  -19.26465 -19.26080 -10.39152 -10.39121 -10.38132
  Beta  occ. eigenvalues --  -10.37893 -10.37630 -10.37530 -10.37350 -10.37002
  Beta  occ. eigenvalues --  -10.36988 -10.36958 -10.36483 -10.36000 -10.35459
  Beta  occ. eigenvalues --  -10.35304 -10.35251 -10.35080 -10.34739 -10.34685
  Beta  occ. eigenvalues --  -10.34466 -10.34100 -10.33853 -10.33755 -10.33433
  Beta  occ. eigenvalues --  -10.33429 -10.33310 -10.33252 -10.32682 -10.32353
  Beta  occ. eigenvalues --  -10.32227 -10.32170 -10.30662 -10.30586 -10.30196
  Beta  occ. eigenvalues --  -10.30111 -10.30106 -10.30083 -10.29823 -10.29686
  Beta  occ. eigenvalues --  -10.28984 -10.27898  -1.14084  -1.13504  -1.02117
  Beta  occ. eigenvalues --   -1.01091  -0.99809  -0.99296  -0.98421  -0.97859
  Beta  occ. eigenvalues --   -0.96568  -0.93865  -0.92662  -0.92097  -0.91281
  Beta  occ. eigenvalues --   -0.90584  -0.89675  -0.88005  -0.86451  -0.86168
  Beta  occ. eigenvalues --   -0.85631  -0.85021  -0.83815  -0.82088  -0.81639
  Beta  occ. eigenvalues --   -0.81114  -0.80486  -0.80271  -0.79636  -0.78813
  Beta  occ. eigenvalues --   -0.76791  -0.74908  -0.72946  -0.72690  -0.71336
  Beta  occ. eigenvalues --   -0.70970  -0.70667  -0.69742  -0.69153  -0.67882
  Beta  occ. eigenvalues --   -0.67608  -0.67123  -0.65858  -0.64341  -0.64194
  Beta  occ. eigenvalues --   -0.63559  -0.63110  -0.62224  -0.61557  -0.61394
  Beta  occ. eigenvalues --   -0.60637  -0.60074  -0.59685  -0.59138  -0.58313
  Beta  occ. eigenvalues --   -0.58253  -0.58089  -0.57794  -0.57594  -0.57496
  Beta  occ. eigenvalues --   -0.56621  -0.56450  -0.56390  -0.55982  -0.55705
  Beta  occ. eigenvalues --   -0.54679  -0.54653  -0.54245  -0.54167  -0.54066
  Beta  occ. eigenvalues --   -0.53637  -0.53144  -0.52946  -0.52666  -0.52428
  Beta  occ. eigenvalues --   -0.52282  -0.52047  -0.51940  -0.51328  -0.51113
  Beta  occ. eigenvalues --   -0.51089  -0.50954  -0.50878  -0.50643  -0.50218
  Beta  occ. eigenvalues --   -0.50049  -0.49605  -0.49306  -0.49046  -0.48974
  Beta  occ. eigenvalues --   -0.48896  -0.48202  -0.48105  -0.48039  -0.47926
  Beta  occ. eigenvalues --   -0.46982  -0.46939  -0.46432  -0.46011  -0.45555
  Beta  occ. eigenvalues --   -0.45179  -0.44818  -0.43946  -0.43197  -0.42768
  Beta  occ. eigenvalues --   -0.42665  -0.42193  -0.41452  -0.40612  -0.38084
  Beta  occ. eigenvalues --   -0.37736  -0.37495  -0.36016  -0.35306  -0.33202
  Beta virt. eigenvalues --   -0.21329  -0.13497  -0.09214  -0.05794  -0.02619
  Beta virt. eigenvalues --   -0.00588   0.00651   0.01180   0.01538   0.02264
  Beta virt. eigenvalues --    0.02557   0.02879   0.03152   0.03313   0.03527

 Mulliken charges and spin densities:
               1          2
     1  O   -0.477108   0.000194
     2  O   -0.463651   0.000047
     3  C    0.055096   0.003665
     4  C    0.221657  -0.005064
     5  C   -0.293239   0.000694
     6  C    0.290306  -0.000275
     7  C   -0.039407   0.001916
     8  C    0.143573   0.002801
     9  C   -0.323170   0.001019
    10  C   -0.361046   0.000091
    11  C   -0.233196   0.000026
    12  C   -0.322921   0.002935
    13  C    0.115469   0.000313
    14  C    0.003780  -0.017261
    15  C   -0.352106   0.098366
    16  C   -0.143773  -0.001615
    17  C   -0.012210   0.030804
    18  C   -0.401529  -0.000299
    19  C   -0.389445   0.001167
    20  C   -0.367433   0.001129
    21  C   -0.143937  -0.039228
    22  C   -0.256309   0.098090
    23  C   -0.371814  -0.000906
    24  C    0.142164   0.125331
    25  C   -0.225188  -0.040707
    26  C   -0.362040  -0.005508
    27  C    0.158739   0.150983
    28  C   -0.156287  -0.052091
    29  C   -0.338473  -0.007207
    30  C   -0.195089  -0.033960
    31  C   -0.001105   0.128877
    32  C    0.011432   0.147684
    33  C   -0.211062  -0.041532
    34  C    0.120730   0.130157
    35  C   -0.209412  -0.031304
    36  C    0.136056   0.112075
    37  C   -0.339407  -0.007103
    38  C   -0.129840   0.023150
    39  C   -0.103473   0.038483
    40  C   -0.378252  -0.006153
    41  C   -0.069201   0.081592
    42  C   -0.094712   0.063771
    43  H    0.080296   0.000044
    44  H    0.119272   0.000110
    45  H    0.097844  -0.000065
    46  H    0.066322   0.000037
    47  H    0.111148  -0.000147
    48  H    0.114697   0.000032
    49  H    0.133485  -0.000045
    50  H    0.139297   0.000006
    51  H    0.124365   0.000356
    52  H    0.106061   0.000006
    53  H    0.108571   0.000004
    54  H    0.107706   0.000097
    55  H    0.111300   0.000289
    56  H    0.063967  -0.000001
    57  H    0.163065  -0.003345
    58  H    0.122503   0.001713
    59  H    0.120648   0.001642
    60  H    0.114986   0.000039
    61  H    0.132254   0.000035
    62  H    0.134943  -0.000057
    63  H    0.120976  -0.000012
    64  H    0.123329  -0.000152
    65  H    0.125653  -0.000193
    66  H    0.125930  -0.000036
    67  H    0.127646  -0.000057
    68  H    0.119894  -0.000006
    69  H    0.309527  -0.000006
    70  H    0.146555  -0.003192
    71  H    0.115518   0.001365
    72  H    0.134806   0.001378
    73  H    0.135534  -0.000064
    74  H    0.137615   0.001674
    75  H    0.313634  -0.000015
    76  H    0.147237   0.003779
    77  H    0.108719   0.000155
    78  H    0.153159   0.005572
    79  H    0.152404   0.005776
    80  H    0.116913   0.001235
    81  H    0.151780   0.008148
    82  H    0.109199   0.000008
    83  H    0.145583   0.005967
    84  H    0.139959   0.000910
    85  H    0.112165  -0.003824
    86  H    0.137446  -0.004862
    87  H    0.131814   0.002327
    88  H    0.119353   0.001061
    89  H    0.115599  -0.000262
    90  H    0.156771   0.007649
    91  H    0.148273   0.005654
    92  H    0.126083  -0.000604
    93  H    0.124939  -0.001868
    94  H    0.154239   0.006047
    95  H    0.126118   0.000280
    96  H    0.155684   0.005959
    97  H    0.115836  -0.003181
    98  H    0.108211  -0.002508
 Sum of Mulliken charges =   1.00000   1.00000

 Dipole moment (field-independent basis, Debye):
    X=              2.6459    Y=             -0.5134    Z=             -2.1450  Tot=              3.4446
 Quadrupole moment (field-independent basis, Debye-Ang):
   XX=            -27.6786   YY=           -218.7906   ZZ=           -248.0501
   XY=            -26.8731   XZ=             26.9929   YZ=              2.7277

 Normal termination of Gaussian 16 at Sat Nov 23 19:30:54 2019.
