 Gaussian 16, Revision A.03,
 Gaussian 16:  ES64L-G16RevA.03 25-Dec-2016

 --------------------------------------------------------
 # wB97XD/Def2TZVP iop(3/107=0118700000,3/108=0118700000)
 --------------------------------------------------------

 -----
 TITLE
 -----
 Symbolic Z-matrix:
 Charge =  1 Multiplicity = 2

                         Standard orientation:
 ---------------------------------------------------------------------
 Center     Atomic      Atomic             Coordinates (Angstroms)
 Number     Number       Type             X           Y           Z
 ---------------------------------------------------------------------
      1          8           0      -13.896519   -2.321940    0.841404
      2          8           0       14.699123    0.936700    0.708882
      3          6           0      -11.773341    0.110467    1.296729
      4          6           0      -10.932546    0.175952   -0.011102
      5          6           0      -11.892248   -1.357947    1.737777
      6          6           0      -12.471074   -2.300660    0.687015
      7          6           0      -11.423955   -0.816017   -1.054130
      8          6           0       11.122814    0.069104    1.707073
      9          6           0      -11.094037    0.913652    2.411363
     10          6           0      -13.154481    0.729326    1.031625
     11          6           0       12.489645    0.774939    1.741596
     12          6           0      -12.082702   -1.921682   -0.713974
     13          6           0       13.432004    0.293396    0.652923
     14          6           0       10.601106   -0.043353    0.265173
     15          6           0       -9.458898   -0.053268    0.196542
     16          6           0       12.823900    0.602747   -0.697732
     17          6           0       11.367553    0.226008   -0.807838
     18          6           0       10.158166    0.895801    2.578424
     19          6           0       11.234417   -1.342988    2.314645
     20          6           0      -11.092135   -0.485757   -2.479320
     21          6           0       -8.501739    0.818935   -0.136104
     22          6           0        9.200027   -0.481395    0.141223
     23          6           0       10.874780    0.230407   -2.229942
     24          6           0       -7.065187    0.628297    0.023204
     25          6           0        8.772914   -1.506924   -0.607608
     26          6           0       -6.591034   -0.667011    0.618051
     27          6           0        7.384313   -1.948633   -0.758229
     28          6           0       -6.238128    1.624474   -0.372999
     29          6           0        7.212587   -3.427439   -0.980721
     30          6           0        6.362383   -1.065338   -0.709646
     31          6           0       -4.800899    1.655416   -0.313569
     32          6           0        4.953160   -1.350286   -0.786185
     33          6           0       -4.068313    2.706902   -0.732070
     34          6           0       -2.614569    2.821585   -0.729238
     35          6           0        4.005353   -0.390004   -0.745424
     36          6           0        2.572814   -0.593072   -0.810780
     37          6           0       -2.093826    4.234329   -0.693752
     38          6           0       -1.817379    1.726814   -0.773436
     39          6           0        1.764808    0.497072   -0.751723
     40          6           0        2.061207   -2.000596   -0.942144
     41          6           0       -0.383607    1.685396   -0.730554
     42          6           0        0.331907    0.539243   -0.800862
     43          1           0      -11.051965    1.182786   -0.426495
     44          1           0      -12.508590   -1.430110    2.636285
     45          1           0      -10.899108   -1.722560    2.013395
     46          1           0      -12.094272   -3.312482    0.890228
     47          1           0      -10.127340    0.490619    2.688460
     48          1           0      -10.925231    1.947319    2.100514
     49          1           0      -11.724913    0.929708    3.302747
     50          1           0      -13.668592    0.244543    0.203821
     51          1           0      -13.791113    0.632735    1.912608
     52          1           0      -13.052747    1.793203    0.802819
     53          1           0       12.352507    1.852833    1.611806
     54          1           0       12.940527    0.626904    2.728637
     55          1           0      -12.391759   -2.613052   -1.495187
     56          1           0       13.570575   -0.791984    0.740064
     57          1           0       -9.187327   -1.015671    0.618602
     58          1           0       13.388118    0.095669   -1.485711
     59          1           0       12.939604    1.675690   -0.892376
     60          1           0        9.216372    0.376601    2.757743
     61          1           0        9.938815    1.860584    2.116860
     62          1           0       10.614751    1.084288    3.552534
     63          1           0       11.946915   -1.961366    1.766958
     64          1           0       10.269557   -1.851498    2.287783
     65          1           0       11.558739   -1.286444    3.356708
     66          1           0      -10.018335   -0.321875   -2.599313
     67          1           0      -11.590558    0.440425   -2.780148
     68          1           0      -11.400255   -1.277945   -3.161221
     69          1           0      -14.275394   -2.773293    0.085151
     70          1           0        8.468779    0.039255    0.751795
     71          1           0       -8.803109    1.770767   -0.566941
     72          1           0       11.258762   -0.634143   -2.779818
     73          1           0        9.790385    0.221148   -2.303543
     74          1           0       11.253911    1.117822   -2.744880
     75          1           0       15.096611    0.747052    1.560169
     76          1           0        9.518111   -2.103894   -1.127439
     77          1           0       -5.508958   -0.720003    0.701458
     78          1           0       -7.010140   -0.805922    1.617791
     79          1           0       -6.922534   -1.512984    0.010685
     80          1           0       -6.703709    2.513917   -0.789977
     81          1           0        7.521418   -3.988994   -0.094675
     82          1           0        6.190334   -3.709776   -1.220658
     83          1           0        7.851749   -3.759521   -1.803131
     84          1           0        6.619679   -0.014522   -0.612516
     85          1           0       -4.286085    0.797381    0.102734
     86          1           0        4.646456   -2.385709   -0.872221
     87          1           0       -4.606060    3.585469   -1.082037
     88          1           0        4.331441    0.642807   -0.652835
     89          1           0       -1.015425    4.297647   -0.814392
     90          1           0       -2.358760    4.718396    0.250094
     91          1           0       -2.553110    4.823168   -1.492031
     92          1           0       -2.302919    0.759830   -0.866024
     93          1           0        2.253207    1.463549   -0.656093
     94          1           0        2.389284   -2.609847   -0.096333
     95          1           0        0.976630   -2.049722   -0.985223
     96          1           0        2.452382   -2.468995   -1.848670
     97          1           0        0.160503    2.618482   -0.628868
     98          1           0       -0.213201   -0.393722   -0.897654
 ---------------------------------------------------------------------

 SCF Done:  E(UwB97XD) =  -1708.31951284     A.U. after   23 cycles

 Alpha virt. eigenvalues --    0.30753   0.31004   0.31393   0.31557   0.31697
 Alpha virt. eigenvalues --    0.31941   0.32274   0.32501   0.32673   0.32921
 Alpha virt. eigenvalues --    0.33111   0.33430   0.33571   0.33860   0.33880

  Beta  occ. eigenvalues --  -19.26174 -19.25795 -10.38801 -10.38785 -10.37777
  Beta  occ. eigenvalues --  -10.37545 -10.37326 -10.37182 -10.37015 -10.36738
  Beta  occ. eigenvalues --  -10.36665 -10.36660 -10.36161 -10.35715 -10.35190
  Beta  occ. eigenvalues --  -10.35029 -10.34957 -10.34751 -10.34480 -10.34366
  Beta  occ. eigenvalues --  -10.34189 -10.33848 -10.33576 -10.33457 -10.33164
  Beta  occ. eigenvalues --  -10.33160 -10.33052 -10.32987 -10.32424 -10.32089
  Beta  occ. eigenvalues --  -10.31959 -10.31914 -10.30387 -10.30315 -10.29926
  Beta  occ. eigenvalues --  -10.29838 -10.29831 -10.29806 -10.29544 -10.29417
  Beta  occ. eigenvalues --  -10.28714 -10.27630  -1.13766  -1.13191  -1.01742
  Beta  occ. eigenvalues --   -1.00732  -0.99472  -0.98972  -0.98085  -0.97532
  Beta  occ. eigenvalues --   -0.96217  -0.93528  -0.92329  -0.91774  -0.90967
  Beta  occ. eigenvalues --   -0.90257  -0.89360  -0.87655  -0.86137  -0.85862
  Beta  occ. eigenvalues --   -0.85286  -0.84706  -0.83476  -0.81779  -0.81335
  Beta  occ. eigenvalues --   -0.80807  -0.80180  -0.79971  -0.79338  -0.78492
  Beta  occ. eigenvalues --   -0.76481  -0.74597  -0.72648  -0.72356  -0.71021
  Beta  occ. eigenvalues --   -0.70672  -0.70355  -0.69425  -0.68844  -0.67589
  Beta  occ. eigenvalues --   -0.67317  -0.66802  -0.65542  -0.64033  -0.63889
  Beta  occ. eigenvalues --   -0.63253  -0.62806  -0.61923  -0.61258  -0.61097
  Beta  occ. eigenvalues --   -0.60335  -0.59778  -0.59375  -0.58838  -0.57979
  Beta  occ. eigenvalues --   -0.57962  -0.57793  -0.57491  -0.57300  -0.57191
  Beta  occ. eigenvalues --   -0.56322  -0.56172  -0.56083  -0.55693  -0.55415
  Beta  occ. eigenvalues --   -0.54395  -0.54366  -0.53952  -0.53871  -0.53785
  Beta  occ. eigenvalues --   -0.53330  -0.52846  -0.52659  -0.52380  -0.52163
  Beta  occ. eigenvalues --   -0.52009  -0.51777  -0.51668  -0.51040  -0.50832
  Beta  occ. eigenvalues --   -0.50809  -0.50672  -0.50555  -0.50369  -0.49930
  Beta  occ. eigenvalues --   -0.49779  -0.49333  -0.49029  -0.48774  -0.48711
  Beta  occ. eigenvalues --   -0.48612  -0.47935  -0.47833  -0.47771  -0.47661
  Beta  occ. eigenvalues --   -0.46721  -0.46689  -0.46181  -0.45748  -0.45294
  Beta  occ. eigenvalues --   -0.44908  -0.44554  -0.43688  -0.42943  -0.42518
  Beta  occ. eigenvalues --   -0.42409  -0.41938  -0.41204  -0.40372  -0.37855
  Beta  occ. eigenvalues --   -0.37478  -0.37238  -0.35779  -0.35094  -0.32992
  Beta virt. eigenvalues --   -0.21339  -0.13607  -0.09353  -0.05943  -0.02779
  Beta virt. eigenvalues --   -0.00741   0.00499   0.01164   0.01416   0.02241
  Beta virt. eigenvalues --    0.02461   0.02808   0.03085   0.03243   0.03499

 Mulliken charges and spin densities:
               1          2
     1  O   -0.478721   0.000201
     2  O   -0.465559   0.000047
     3  C    0.051384   0.003711
     4  C    0.224360  -0.005121
     5  C   -0.290590   0.000706
     6  C    0.294061  -0.000276
     7  C   -0.041731   0.001967
     8  C    0.139485   0.002783
     9  C   -0.321024   0.001052
    10  C   -0.358707   0.000097
    11  C   -0.230234   0.000025
    12  C   -0.321764   0.002995
    13  C    0.118714   0.000329
    14  C    0.002038  -0.017244
    15  C   -0.353378   0.099438
    16  C   -0.141864  -0.001670
    17  C   -0.010588   0.031363
    18  C   -0.398856  -0.000309
    19  C   -0.386626   0.001205
    20  C   -0.363862   0.001138
    21  C   -0.141408  -0.039292
    22  C   -0.255903   0.098409
    23  C   -0.369967  -0.000932
    24  C    0.141326   0.125533
    25  C   -0.224128  -0.040154
    26  C   -0.360408  -0.005578
    27  C    0.157862   0.149808
    28  C   -0.155325  -0.051141
    29  C   -0.336165  -0.007191
    30  C   -0.193682  -0.032713
    31  C    0.000183   0.128176
    32  C    0.010814   0.145986
    33  C   -0.210013  -0.039702
    34  C    0.118804   0.128116
    35  C   -0.208046  -0.029901
    36  C    0.134383   0.110808
    37  C   -0.337198  -0.007040
    38  C   -0.127279   0.024014
    39  C   -0.102455   0.038130
    40  C   -0.376591  -0.006181
    41  C   -0.070113   0.080223
    42  C   -0.094370   0.063862
    43  H    0.079045   0.000040
    44  H    0.118323   0.000114
    45  H    0.097266  -0.000066
    46  H    0.064893   0.000038
    47  H    0.111008  -0.000158
    48  H    0.114141   0.000031
    49  H    0.132926  -0.000049
    50  H    0.139356   0.000005
    51  H    0.123762   0.000366
    52  H    0.105513   0.000006
    53  H    0.107815   0.000004
    54  H    0.106752   0.000099
    55  H    0.110185   0.000294
    56  H    0.063100  -0.000003
    57  H    0.163621  -0.003451
    58  H    0.121544   0.001750
    59  H    0.119946   0.001683
    60  H    0.114414   0.000039
    61  H    0.131718   0.000038
    62  H    0.134358  -0.000058
    63  H    0.120410  -0.000012
    64  H    0.123027  -0.000156
    65  H    0.125019  -0.000193
    66  H    0.125442  -0.000034
    67  H    0.126925  -0.000059
    68  H    0.119181  -0.000005
    69  H    0.309668  -0.000006
    70  H    0.146537  -0.003224
    71  H    0.114774   0.001382
    72  H    0.134090   0.001412
    73  H    0.135471  -0.000059
    74  H    0.137037   0.001714
    75  H    0.313757  -0.000015
    76  H    0.146849   0.003765
    77  H    0.108151   0.000160
    78  H    0.152691   0.005593
    79  H    0.151890   0.005789
    80  H    0.116299   0.001216
    81  H    0.151019   0.008120
    82  H    0.108599   0.000020
    83  H    0.144782   0.005923
    84  H    0.139397   0.000883
    85  H    0.111741  -0.003835
    86  H    0.137710  -0.004911
    87  H    0.130994   0.002218
    88  H    0.118483   0.001041
    89  H    0.115061  -0.000235
    90  H    0.155902   0.007573
    91  H    0.147356   0.005561
    92  H    0.124911  -0.000613
    93  H    0.123905  -0.001855
    94  H    0.153448   0.005974
    95  H    0.125318   0.000294
    96  H    0.154917   0.005888
    97  H    0.115171  -0.003175
    98  H    0.107518  -0.002538
 Sum of Mulliken charges =   1.00000   1.00000

 Dipole moment (field-independent basis, Debye):
    X=              2.6042    Y=             -0.5329    Z=             -2.1118  Tot=              3.3949
 Quadrupole moment (field-independent basis, Debye-Ang):
   XX=            -25.6255   YY=           -218.6371   ZZ=           -247.9155
   XY=            -26.7099   XZ=             27.1999   YZ=              2.6616

 Normal termination of Gaussian 16 at Wed Nov 27 14:27:20 2019.
