 Gaussian 16, Revision A.03,
 Gaussian 16:  ES64L-G16RevA.03 25-Dec-2016

 --------------------------------------------------------
 # wB97XD/Def2TZVP iop(3/107=0100000000,3/108=0100000000)
 --------------------------------------------------------

 -----
 TITLE
 -----
 Symbolic Z-matrix:
 Charge =  1 Multiplicity = 2

                         Standard orientation:
 ---------------------------------------------------------------------
 Center     Atomic      Atomic             Coordinates (Angstroms)
 Number     Number       Type             X           Y           Z
 ---------------------------------------------------------------------
      1          8           0      -13.918025   -2.303245    0.854883
      2          8           0       14.711909    0.951923    0.687871
      3          6           0      -11.781274    0.129595    1.296566
      4          6           0      -10.942059    0.185380   -0.014817
      5          6           0      -11.908191   -1.337669    1.743028
      6          6           0      -12.491957   -2.282802    0.695656
      7          6           0      -11.443969   -0.806753   -1.054180
      8          6           0       11.131410    0.102669    1.699473
      9          6           0      -11.094207    0.932821    2.408102
     10          6           0      -13.160077    0.756803    1.032161
     11          6           0       12.500022    0.808264    1.723008
     12          6           0      -12.107454   -1.908311   -0.708113
     13          6           0       13.443237    0.308309    0.642118
     14          6           0       10.610460   -0.035243    0.258033
     15          6           0       -9.468651   -0.053749    0.188848
     16          6           0       12.835242    0.595199   -0.714513
     17          6           0       11.378242    0.216612   -0.819245
     18          6           0       10.166182    0.946715    2.555722
     19          6           0       11.241162   -1.299567    2.332865
     20          6           0      -11.117574   -0.482173   -2.482855
     21          6           0       -8.505677    0.813912   -0.143081
     22          6           0        9.209276   -0.475547    0.140785
     23          6           0       10.885806    0.199102   -2.242179
     24          6           0       -7.070201    0.615053    0.011298
     25          6           0        8.781351   -1.516029   -0.588538
     26          6           0       -6.599351   -0.686136    0.597889
     27          6           0        7.393803   -1.962471   -0.731945
     28          6           0       -6.238549    1.610778   -0.382176
     29          6           0        7.225111   -3.444720   -0.939256
     30          6           0        6.367921   -1.081020   -0.690971
     31          6           0       -4.802151    1.636400   -0.327153
     32          6           0        4.960161   -1.369315   -0.761709
     33          6           0       -4.066051    2.689437   -0.741059
     34          6           0       -2.613241    2.803456   -0.743116
     35          6           0        4.008723   -0.409862   -0.730598
     36          6           0        2.577453   -0.615244   -0.790794
     37          6           0       -2.091458    4.217229   -0.728653
     38          6           0       -1.813706    1.707535   -0.773598
     39          6           0        1.767429    0.476534   -0.743519
     40          6           0        2.065018   -2.024974   -0.904060
     41          6           0       -0.381277    1.666614   -0.733422
     42          6           0        0.335861    0.518384   -0.790189
     43          1           0      -11.055680    1.191481   -0.432444
     44          1           0      -12.524032   -1.403671    2.641975
     45          1           0      -10.917144   -1.706214    2.019747
     46          1           0      -12.115664   -3.294387    0.900436
     47          1           0      -10.128991    0.505964    2.683434
     48          1           0      -10.921437    1.964825    2.094876
     49          1           0      -11.721850    0.954154    3.301401
     50          1           0      -13.679858    0.271462    0.208548
     51          1           0      -13.794640    0.669487    1.915306
     52          1           0      -13.052663    1.818560    0.797282
     53          1           0       12.363917    1.883763    1.576293
     54          1           0       12.950265    0.675981    2.712229
     55          1           0      -12.423453   -2.599942   -1.486026
     56          1           0       13.581658   -0.775190    0.747231
     57          1           0       -9.202306   -1.019074    0.606576
     58          1           0       13.399736    0.074813   -1.493297
     59          1           0       12.951183    1.664335   -0.927805
     60          1           0        9.223297    0.432647    2.742551
     61          1           0        9.949113    1.903651    2.077602
     62          1           0       10.621170    1.151304    3.527075
     63          1           0       11.952413   -1.928653    1.796336
     64          1           0       10.275925   -1.807195    2.315612
     65          1           0       11.565927   -1.225340    3.373442
     66          1           0      -10.043775   -0.325148   -2.609750
     67          1           0      -11.612176    0.445748   -2.784129
     68          1           0      -11.433922   -1.274266   -3.160810
     69          1           0      -14.298915   -2.758642    0.102274
     70          1           0        8.478594    0.056555    0.741533
     71          1           0       -8.802392    1.768880   -0.569493
     72          1           0       11.272982   -0.671354   -2.780073
     73          1           0        9.801720    0.185116   -2.315929
     74          1           0       11.261321    1.080563   -2.769587
     75          1           0       15.109749    0.773591    1.541252
     76          1           0        9.527022   -2.123074   -1.095154
     77          1           0       -5.517367   -0.744732    0.676044
     78          1           0       -7.013924   -0.828215    1.598884
     79          1           0       -6.937111   -1.527610   -0.011977
     80          1           0       -6.702113    2.504079   -0.792471
     81          1           0        7.537974   -3.996963   -0.048915
     82          1           0        6.202960   -3.731889   -1.172788
     83          1           0        7.861879   -3.783692   -1.760527
     84          1           0        6.622848   -0.028863   -0.605944
     85          1           0       -4.289858    0.773672    0.081650
     86          1           0        4.655474   -2.405980   -0.835199
     87          1           0       -4.603424    3.570878   -1.083351
     88          1           0        4.333322    0.624209   -0.650743
     89          1           0       -1.013795    4.278373   -0.854834
     90          1           0       -2.351414    4.714006    0.209840
     91          1           0       -2.553429    4.795960   -1.532514
     92          1           0       -2.298877    0.739395   -0.851227
     93          1           0        2.256213    1.443727   -0.660824
     94          1           0        2.393648   -2.624055   -0.051445
     95          1           0        0.980549   -2.074190   -0.944807
     96          1           0        2.453935   -2.504751   -1.805379
     97          1           0        0.162965    2.600681   -0.645344
     98          1           0       -0.209381   -0.415499   -0.873529
 ---------------------------------------------------------------------

 SCF Done:  E(UwB97XD) =  -1708.41176967     A.U. after   23 cycles

 Alpha virt. eigenvalues --    0.30523   0.30700   0.31167   0.31332   0.31431
 Alpha virt. eigenvalues --    0.31628   0.31999   0.32197   0.32412   0.32618
 Alpha virt. eigenvalues --    0.32814   0.33096   0.33215   0.33565   0.33625

  Beta  occ. eigenvalues --  -19.25299 -19.24935 -10.37781 -10.37763 -10.36725
  Beta  occ. eigenvalues --  -10.36511 -10.36427 -10.36153 -10.36022 -10.35935
  Beta  occ. eigenvalues --  -10.35759 -10.35699 -10.35210 -10.34854 -10.34386
  Beta  occ. eigenvalues --  -10.34211 -10.34085 -10.33776 -10.33695 -10.33418
  Beta  occ. eigenvalues --  -10.33369 -10.33080 -10.32752 -10.32571 -10.32375
  Beta  occ. eigenvalues --  -10.32338 -10.32273 -10.32193 -10.31646 -10.31306
  Beta  occ. eigenvalues --  -10.31147 -10.31146 -10.29570 -10.29508 -10.29114
  Beta  occ. eigenvalues --  -10.29027 -10.29000 -10.28981 -10.28716 -10.28609
  Beta  occ. eigenvalues --  -10.27901 -10.26826  -1.12816  -1.12254  -1.00632
  Beta  occ. eigenvalues --   -0.99668  -0.98471  -0.97996  -0.97085  -0.96550
  Beta  occ. eigenvalues --   -0.95172  -0.92523  -0.91337  -0.90813  -0.90025
  Beta  occ. eigenvalues --   -0.89282  -0.88415  -0.86611  -0.85204  -0.84943
  Beta  occ. eigenvalues --   -0.84261  -0.83762  -0.82461  -0.80858  -0.80420
  Beta  occ. eigenvalues --   -0.79896  -0.79268  -0.79068  -0.78444  -0.77531
  Beta  occ. eigenvalues --   -0.75551  -0.73666  -0.71752  -0.71354  -0.70079
  Beta  occ. eigenvalues --   -0.69779  -0.69407  -0.68482  -0.67912  -0.66703
  Beta  occ. eigenvalues --   -0.66436  -0.65842  -0.64581  -0.63112  -0.62964
  Beta  occ. eigenvalues --   -0.62329  -0.61884  -0.61011  -0.60354  -0.60196
  Beta  occ. eigenvalues --   -0.59418  -0.58883  -0.58436  -0.57926  -0.57074
  Beta  occ. eigenvalues --   -0.56975  -0.56900  -0.56581  -0.56396  -0.56265
  Beta  occ. eigenvalues --   -0.55422  -0.55320  -0.55151  -0.54820  -0.54530
  Beta  occ. eigenvalues --   -0.53536  -0.53493  -0.53085  -0.52956  -0.52933
  Beta  occ. eigenvalues --   -0.52405  -0.51945  -0.51790  -0.51512  -0.51348
  Beta  occ. eigenvalues --   -0.51179  -0.50947  -0.50834  -0.50167  -0.49985
  Beta  occ. eigenvalues --   -0.49952  -0.49825  -0.49564  -0.49526  -0.49048
  Beta  occ. eigenvalues --   -0.48953  -0.48507  -0.48184  -0.47958  -0.47913
  Beta  occ. eigenvalues --   -0.47718  -0.47129  -0.46998  -0.46932  -0.46850
  Beta  occ. eigenvalues --   -0.45924  -0.45919  -0.45407  -0.44946  -0.44490
  Beta  occ. eigenvalues --   -0.44075  -0.43745  -0.42890  -0.42158  -0.41744
  Beta  occ. eigenvalues --   -0.41619  -0.41149  -0.40435  -0.39619  -0.37143
  Beta  occ. eigenvalues --   -0.36683  -0.36447  -0.35038  -0.34435  -0.32351
  Beta virt. eigenvalues --   -0.21399  -0.13962  -0.09799  -0.06421  -0.03277
  Beta virt. eigenvalues --   -0.01218   0.00024   0.01017   0.01106   0.02089
  Beta virt. eigenvalues --    0.02151   0.02583   0.02885   0.03019   0.03401

 Mulliken charges and spin densities:
               1          2
     1  O   -0.484019   0.000220
     2  O   -0.471789   0.000047
     3  C    0.039523   0.003846
     4  C    0.232585  -0.005308
     5  C   -0.281649   0.000747
     6  C    0.306437  -0.000279
     7  C   -0.049342   0.002109
     8  C    0.126693   0.002732
     9  C   -0.313656   0.001160
    10  C   -0.350343   0.000116
    11  C   -0.220218   0.000020
    12  C   -0.317575   0.003172
    13  C    0.129568   0.000384
    14  C   -0.004790  -0.017184
    15  C   -0.357464   0.102574
    16  C   -0.135358  -0.001854
    17  C   -0.005537   0.033030
    18  C   -0.389800  -0.000336
    19  C   -0.376821   0.001337
    20  C   -0.351552   0.001159
    21  C   -0.132327  -0.039584
    22  C   -0.254004   0.099706
    23  C   -0.362743  -0.001005
    24  C    0.138363   0.125940
    25  C   -0.220130  -0.038644
    26  C   -0.354768  -0.005809
    27  C    0.154882   0.146588
    28  C   -0.151920  -0.048380
    29  C   -0.328130  -0.007188
    30  C   -0.188672  -0.029205
    31  C    0.003498   0.125998
    32  C    0.008704   0.141094
    33  C   -0.206214  -0.034464
    34  C    0.112562   0.122452
    35  C   -0.203289  -0.025686
    36  C    0.129007   0.107022
    37  C   -0.329369  -0.006901
    38  C   -0.120020   0.026140
    39  C   -0.098841   0.037359
    40  C   -0.370845  -0.006280
    41  C   -0.072317   0.076661
    42  C   -0.093366   0.063876
    43  H    0.074827   0.000030
    44  H    0.115032   0.000127
    45  H    0.095287  -0.000071
    46  H    0.059970   0.000040
    47  H    0.110438  -0.000199
    48  H    0.112068   0.000024
    49  H    0.130856  -0.000062
    50  H    0.139400   0.000003
    51  H    0.121492   0.000393
    52  H    0.103479   0.000005
    53  H    0.105203   0.000005
    54  H    0.103436   0.000106
    55  H    0.106327   0.000310
    56  H    0.060205  -0.000008
    57  H    0.165244  -0.003794
    58  H    0.118159   0.001863
    59  H    0.117454   0.001806
    60  H    0.112472   0.000039
    61  H    0.129728   0.000047
    62  H    0.132232  -0.000059
    63  H    0.118397  -0.000014
    64  H    0.121800  -0.000174
    65  H    0.122761  -0.000190
    66  H    0.123619  -0.000030
    67  H    0.124332  -0.000064
    68  H    0.116634  -0.000001
    69  H    0.310041  -0.000006
    70  H    0.146364  -0.003335
    71  H    0.112057   0.001438
    72  H    0.131411   0.001510
    73  H    0.134898  -0.000049
    74  H    0.134876   0.001836
    75  H    0.314070  -0.000016
    76  H    0.145366   0.003721
    77  H    0.106069   0.000179
    78  H    0.150900   0.005639
    79  H    0.149977   0.005802
    80  H    0.114166   0.001158
    81  H    0.148301   0.008008
    82  H    0.106372   0.000053
    83  H    0.142059   0.005835
    84  H    0.137361   0.000797
    85  H    0.110718  -0.003870
    86  H    0.138731  -0.005070
    87  H    0.128388   0.001906
    88  H    0.115639   0.000972
    89  H    0.113006  -0.000145
    90  H    0.152808   0.007319
    91  H    0.144315   0.005328
    92  H    0.121497  -0.000639
    93  H    0.120575  -0.001834
    94  H    0.150810   0.005749
    95  H    0.122626   0.000336
    96  H    0.152226   0.005664
    97  H    0.113124  -0.003175
    98  H    0.105444  -0.002625
 Sum of Mulliken charges =   1.00000   1.00000

 Dipole moment (field-independent basis, Debye):
    X=              2.5156    Y=             -0.5978    Z=             -2.0432  Tot=              3.2955
 Quadrupole moment (field-independent basis, Debye-Ang):
   XX=            -19.6631   YY=           -218.1692   ZZ=           -247.4010
   XY=            -26.2430   XZ=             27.6173   YZ=              2.4996

 Normal termination of Gaussian 16 at Sat Nov 16 19:35:42 2019.
