 Gaussian 16, Revision A.03,
 Gaussian 16:  ES64L-G16RevA.03 25-Dec-2016

 --------------------------------------------------------
 # wB97XD/Def2TZVP iop(3/107=0075000000,3/108=0075000000)
 --------------------------------------------------------

 -----
 TITLE
 -----
 Symbolic Z-matrix:
 Charge =  1 Multiplicity = 2

                         Standard orientation:
 ---------------------------------------------------------------------
 Center     Atomic      Atomic             Coordinates (Angstroms)
 Number     Number       Type             X           Y           Z
 ---------------------------------------------------------------------
      1          8           0      -13.948961   -2.278340    0.878873
      2          8           0       14.729613    0.973715    0.673373
      3          6           0      -11.793458    0.158115    1.297867
      4          6           0      -10.956528    0.198282   -0.018816
      5          6           0      -11.932050   -1.306990    1.753815
      6          6           0      -12.522109   -2.257207    0.712206
      7          6           0      -11.474387   -0.794726   -1.051945
      8          6           0       11.143643    0.134844    1.694433
      9          6           0      -11.095383    0.962617    2.404370
     10          6           0      -13.168972    0.797157    1.033745
     11          6           0       12.514731    0.840222    1.710720
     12          6           0      -12.144216   -1.889924   -0.696151
     13          6           0       13.459331    0.328938    0.634342
     14          6           0       10.624052   -0.022945    0.252187
     15          6           0       -9.483392   -0.055480    0.179098
     16          6           0       12.850521    0.600299   -0.726588
     17          6           0       11.392957    0.218044   -0.827814
     18          6           0       10.177098    0.993725    2.538189
     19          6           0       11.250699   -1.260024    2.349050
     20          6           0      -11.157392   -0.479209   -2.486379
     21          6           0       -8.511847    0.805132   -0.151427
     22          6           0        9.222860   -0.466998    0.139100
     23          6           0       10.900607    0.185454   -2.251954
     24          6           0       -7.077559    0.594290   -0.004269
     25          6           0        8.795965   -1.522655   -0.570970
     26          6           0       -6.611476   -0.715756    0.569797
     27          6           0        7.410238   -1.976624   -0.708568
     28          6           0       -6.239560    1.589357   -0.393367
     29          6           0        7.247918   -3.463036   -0.901454
     30          6           0        6.377997   -1.099260   -0.675425
     31          6           0       -4.803936    1.607976   -0.344978
     32          6           0        4.972218   -1.393134   -0.740828
     33          6           0       -4.063345    2.663666   -0.751327
     34          6           0       -2.611642    2.777335   -0.760128
     35          6           0        4.014825   -0.436206   -0.719601
     36          6           0        2.585146   -0.645323   -0.774470
     37          6           0       -2.089110    4.192619   -0.769295
     38          6           0       -1.808499    1.680551   -0.776030
     39          6           0        1.771862    0.447913   -0.739010
     40          6           0        2.072311   -2.057835   -0.869392
     41          6           0       -0.377608    1.640092   -0.739745
     42          6           0        0.341869    0.489594   -0.782500
     43          1           0      -11.061511    1.202793   -0.440528
     44          1           0      -12.547590   -1.363279    2.653025
     45          1           0      -10.944215   -1.680605    2.033233
     46          1           0      -12.145143   -3.267760    0.919989
     47          1           0      -10.132322    0.530840    2.677815
     48          1           0      -10.917162    1.991965    2.086942
     49          1           0      -11.718350    0.992228    3.300327
     50          1           0      -13.697837    0.309028    0.218134
     51          1           0      -13.799726    0.725853    1.920623
     52          1           0      -13.053523    1.855055    0.787165
     53          1           0       12.379544    1.913837    1.553849
     54          1           0       12.964560    0.718122    2.700877
     55          1           0      -12.470854   -2.582386   -1.468484
     56          1           0       13.599101   -0.752689    0.751007
     57          1           0       -9.225050   -1.025044    0.590359
     58          1           0       13.415964    0.072036   -1.498902
     59          1           0       12.964875    1.666589   -0.952602
     60          1           0        9.232726    0.484920    2.729728
     61          1           0        9.963149    1.944498    2.047350
     62          1           0       10.629457    1.210556    3.507743
     63          1           0       11.959110   -1.899053    1.821384
     64          1           0       10.284703   -1.765509    2.341031
     65          1           0       11.577093   -1.172229    3.387706
     66          1           0      -10.083928   -0.332475   -2.624708
     67          1           0      -11.646744    0.450999   -2.788427
     68          1           0      -11.486508   -1.271418   -3.157693
     69          1           0      -14.332262   -2.743619    0.133903
     70          1           0        8.491614    0.075657    0.728686
     71          1           0       -8.801471    1.764709   -0.571205
     72          1           0       11.293870   -0.686012   -2.783299
     73          1           0        9.817053    0.163501   -2.325718
     74          1           0       11.268924    1.065376   -2.786571
     75          1           0       15.129139    0.800174    1.526654
     76          1           0        9.543461   -2.138377   -1.063093
     77          1           0       -5.529767   -0.782101    0.640858
     78          1           0       -7.019861   -0.863294    1.572254
     79          1           0       -6.957588   -1.550369   -0.044357
     80          1           0       -6.700324    2.488257   -0.793472
     81          1           0        7.561154   -4.005540   -0.005426
     82          1           0        6.227589   -3.756592   -1.133419
     83          1           0        7.886522   -3.808171   -1.718429
     84          1           0        6.628459   -0.045619   -0.602003
     85          1           0       -4.294804    0.738561    0.052018
     86          1           0        4.671575   -2.431239   -0.801657
     87          1           0       -4.600432    3.549211   -1.081838
     88          1           0        4.336435    0.599306   -0.652629
     89          1           0       -1.012788    4.251711   -0.904556
     90          1           0       -2.340894    4.702626    0.164171
     91          1           0       -2.556254    4.760720   -1.577393
     92          1           0       -2.292978    0.711400   -0.836627
     93          1           0        2.260862    1.415617   -0.669712
     94          1           0        2.401361   -2.646509   -0.010040
     95          1           0        0.988097   -2.107541   -0.907830
     96          1           0        2.458778   -2.548993   -1.765310
     97          1           0        0.166707    2.574875   -0.666459
     98          1           0       -0.203481   -0.444920   -0.851350
 ---------------------------------------------------------------------

 SCF Done:  E(UwB97XD) =  -1708.58385143     A.U. after   22 cycles

 Alpha virt. eigenvalues --    0.30122   0.30339   0.30827   0.30987   0.31069
 Alpha virt. eigenvalues --    0.31226   0.31613   0.31745   0.32006   0.32210
 Alpha virt. eigenvalues --    0.32424   0.32578   0.32782   0.33081   0.33257

  Beta  occ. eigenvalues --  -19.24104 -19.23760 -10.36443 -10.36391 -10.35331
  Beta  occ. eigenvalues --  -10.35219 -10.35138 -10.34840 -10.34791 -10.34697
  Beta  occ. eigenvalues --  -10.34539 -10.34409 -10.33946 -10.33693 -10.33305
  Beta  occ. eigenvalues --  -10.33108 -10.32915 -10.32625 -10.32481 -10.32254
  Beta  occ. eigenvalues --  -10.32152 -10.32025 -10.31638 -10.31386 -10.31319
  Beta  occ. eigenvalues --  -10.31226 -10.31209 -10.31108 -10.30590 -10.30242
  Beta  occ. eigenvalues --  -10.30113 -10.30040 -10.28467 -10.28414 -10.28018
  Beta  occ. eigenvalues --  -10.27920 -10.27880 -10.27865 -10.27601 -10.27514
  Beta  occ. eigenvalues --  -10.26802 -10.25740  -1.11528  -1.10986  -0.99157
  Beta  occ. eigenvalues --   -0.98248  -0.97127  -0.96671  -0.95735  -0.95222
  Beta  occ. eigenvalues --   -0.93770  -0.91175  -0.90002  -0.89514  -0.88749
  Beta  occ. eigenvalues --   -0.87970  -0.87137  -0.85219  -0.83947  -0.83701
  Beta  occ. eigenvalues --   -0.82896  -0.82490  -0.81099  -0.79612  -0.79178
  Beta  occ. eigenvalues --   -0.78671  -0.78038  -0.77849  -0.77237  -0.76238
  Beta  occ. eigenvalues --   -0.74291  -0.72404  -0.70538  -0.70009  -0.68813
  Beta  occ. eigenvalues --   -0.68566  -0.68106  -0.67210  -0.66640  -0.65495
  Beta  occ. eigenvalues --   -0.65232  -0.64545  -0.63263  -0.61856  -0.61691
  Beta  occ. eigenvalues --   -0.61068  -0.60616  -0.59756  -0.59112  -0.58957
  Beta  occ. eigenvalues --   -0.58156  -0.57650  -0.57148  -0.56669  -0.55847
  Beta  occ. eigenvalues --   -0.55692  -0.55603  -0.55347  -0.55130  -0.54989
  Beta  occ. eigenvalues --   -0.54185  -0.54139  -0.53876  -0.53611  -0.53300
  Beta  occ. eigenvalues --   -0.52346  -0.52284  -0.51904  -0.51753  -0.51679
  Beta  occ. eigenvalues --   -0.51137  -0.50713  -0.50573  -0.50310  -0.50212
  Beta  occ. eigenvalues --   -0.50024  -0.49791  -0.49673  -0.48971  -0.48817
  Beta  occ. eigenvalues --   -0.48758  -0.48639  -0.48349  -0.48194  -0.47819
  Beta  occ. eigenvalues --   -0.47797  -0.47362  -0.47000  -0.46829  -0.46801
  Beta  occ. eigenvalues --   -0.46461  -0.46012  -0.45866  -0.45771  -0.45651
  Beta  occ. eigenvalues --   -0.44839  -0.44806  -0.44319  -0.43824  -0.43368
  Beta  occ. eigenvalues --   -0.42900  -0.42601  -0.41749  -0.41037  -0.40647
  Beta  occ. eigenvalues --   -0.40496  -0.40021  -0.39332  -0.38527  -0.36105
  Beta  occ. eigenvalues --   -0.35559  -0.35339  -0.33975  -0.33467  -0.31454
  Beta virt. eigenvalues --   -0.21570  -0.14529  -0.10482  -0.07133  -0.04002
  Beta virt. eigenvalues --   -0.01911  -0.00669   0.00406   0.00970   0.01502
  Beta virt. eigenvalues --    0.01864   0.02280   0.02492   0.02781   0.03066

 Mulliken charges and spin densities:
               1          2
     1  O   -0.492302   0.000249
     2  O   -0.481445   0.000046
     3  C    0.020335   0.004027
     4  C    0.244077  -0.005620
     5  C   -0.265840   0.000818
     6  C    0.326416  -0.000284
     7  C   -0.060788   0.002278
     8  C    0.106834   0.002643
     9  C   -0.300474   0.001325
    10  C   -0.334927   0.000145
    11  C   -0.203308   0.000011
    12  C   -0.309999   0.003439
    13  C    0.147642   0.000469
    14  C   -0.017086  -0.017049
    15  C   -0.362513   0.107152
    16  C   -0.124547  -0.002138
    17  C    0.002640   0.035209
    18  C   -0.373986  -0.000372
    19  C   -0.359167   0.001548
    20  C   -0.330543   0.001173
    21  C   -0.116093  -0.040450
    22  C   -0.251912   0.101553
    23  C   -0.349182  -0.001103
    24  C    0.133391   0.126764
    25  C   -0.210464  -0.036959
    26  C   -0.344766  -0.006208
    27  C    0.149945   0.142859
    28  C   -0.146122  -0.045184
    29  C   -0.314187  -0.007291
    30  C   -0.181979  -0.025189
    31  C    0.006992   0.123459
    32  C    0.006280   0.135159
    33  C   -0.199061  -0.028043
    34  C    0.103361   0.115727
    35  C   -0.195525  -0.020429
    36  C    0.121242   0.102407
    37  C   -0.315546  -0.006793
    38  C   -0.110788   0.028340
    39  C   -0.092777   0.036376
    40  C   -0.360577  -0.006448
    41  C   -0.073978   0.072518
    42  C   -0.091535   0.063847
    43  H    0.067677   0.000019
    44  H    0.109232   0.000148
    45  H    0.091636  -0.000085
    46  H    0.051413   0.000044
    47  H    0.108963  -0.000274
    48  H    0.108117   0.000013
    49  H    0.126886  -0.000081
    50  H    0.138935  -0.000000
    51  H    0.117047   0.000432
    52  H    0.099550   0.000005
    53  H    0.100497   0.000005
    54  H    0.097512   0.000119
    55  H    0.099491   0.000329
    56  H    0.055144  -0.000018
    57  H    0.166902  -0.004346
    58  H    0.112163   0.002011
    59  H    0.112781   0.001968
    60  H    0.108911   0.000039
    61  H    0.125812   0.000060
    62  H    0.128200  -0.000062
    63  H    0.114674  -0.000019
    64  H    0.119086  -0.000210
    65  H    0.118572  -0.000182
    66  H    0.120081  -0.000024
    67  H    0.119562  -0.000070
    68  H    0.112041   0.000007
    69  H    0.310377  -0.000007
    70  H    0.145956  -0.003507
    71  H    0.106975   0.001534
    72  H    0.126294   0.001633
    73  H    0.133210  -0.000043
    74  H    0.130838   0.001992
    75  H    0.314316  -0.000016
    76  H    0.142181   0.003687
    77  H    0.102152   0.000211
    78  H    0.147448   0.005677
    79  H    0.146339   0.005795
    80  H    0.110392   0.001088
    81  H    0.143405   0.007879
    82  H    0.102363   0.000112
    83  H    0.137301   0.005674
    84  H    0.133962   0.000669
    85  H    0.109712  -0.003942
    86  H    0.140698  -0.005329
    87  H    0.123996   0.001495
    88  H    0.111001   0.000874
    89  H    0.109282  -0.000025
    90  H    0.147394   0.006993
    91  H    0.139176   0.005019
    92  H    0.116639  -0.000677
    93  H    0.115266  -0.001819
    94  H    0.146287   0.005441
    95  H    0.118038   0.000392
    96  H    0.147651   0.005354
    97  H    0.110245  -0.003203
    98  H    0.102484  -0.002759
 Sum of Mulliken charges =   1.00000   1.00000

 Dipole moment (field-independent basis, Debye):
    X=              2.4128    Y=             -0.6961    Z=             -1.9752  Tot=              3.1949
 Quadrupole moment (field-independent basis, Debye-Ang):
   XX=            -12.2020   YY=           -217.5287   ZZ=           -246.5961
   XY=            -25.7327   XZ=             27.9772   YZ=              2.3003

 Normal termination of Gaussian 16 at Mon Nov 25 06:32:37 2019.
