 Gaussian 09, Revision D.01,
 Gaussian 09:  ES64L-G09RevD.01 24-Apr-2013

 ---------------------------------------
 # td(NStates=1) B3LYP/6-31G(d,p) nosymm
 ---------------------------------------

 --------------------------
 b-caroten-abs Single Point
 --------------------------
 Symbolic Z-matrix:
 Charge =  0 Multiplicity = 1

                          Input orientation:
 ---------------------------------------------------------------------
 Center     Atomic      Atomic             Coordinates (Angstroms)
 Number     Number       Type             X           Y           Z
 ---------------------------------------------------------------------
      1          6           0       12.097327    0.646352   -0.790817
      2          6           0      -12.149993   -0.001948    0.889459
      3          6           0       13.367821   -0.278355   -0.763072
      4          6           0      -12.939861    1.285033    1.197777
      5          6           0       13.038154   -1.721933   -0.676859
      6          6           0      -13.235448    2.137129    0.126214
      7          6           0       11.028610    0.076406    0.177981
      8          6           0      -10.953047    0.515242   -0.112226
      9          6           0       12.217371   -2.124344    0.544114
     10          6           0      -11.962239    2.707491   -0.518398
     11          6           0       11.271215   -1.183483    0.813531
     12          6           0      -10.946870    1.663287   -0.745413
     13          6           0       11.548430    0.687961   -2.187816
     14          6           0       12.430143    2.022557   -0.361432
     15          6           0      -12.972001   -0.917431    0.038516
     16          6           0      -11.535444   -0.688251    2.117067
     17          6           0        9.840808    1.025627    0.445921
     18          6           0       -9.870437   -0.516493   -0.279123
     19          6           0       10.317628   -1.761322    1.942405
     20          6           0       -9.891407    2.118538   -1.674881
     21          6           0        8.587096    0.544757    0.429347
     22          6           0       -8.589735   -0.258723   -0.438896
     23          6           0        7.387965    1.325304    0.544518
     24          6           0       -7.627219   -1.455666   -0.570902
     25          6           0        7.570141    2.826230    0.682374
     26          6           0       -7.954235   -2.823030   -0.642224
     27          6           0        6.120305    0.718117    0.298609
     28          6           0       -6.237365   -1.042278   -0.498480
     29          6           0        4.910367    1.338953    0.352525
     30          6           0       -4.983463   -1.730196   -0.468384
     31          6           0        3.751414    0.637110    0.297898
     32          6           0       -3.820940   -1.244800   -0.401086
     33          6           0        2.303212    1.229722    0.228187
     34          6           0       -2.506734   -1.935384   -0.368065
     35          6           0        2.154878    2.696503    0.485041
     36          6           0       -2.509622   -3.341886   -0.483339
     37          6           0        1.182117    0.435109    0.217156
     38          6           0       -1.404330   -1.172264   -0.024728
     39          6           0        1.101228   -1.010961    0.116865
     40          6           0       -0.061933   -1.662410    0.002069
     41          1           0       13.884206   -0.101869    0.169879
     42          1           0       14.162152    0.067280   -1.595490
     43          1           0      -12.487120    1.822413    2.117361
     44          1           0      -13.884197    0.853960    1.677186
     45          1           0       14.042982   -2.210304   -0.577155
     46          1           0       12.625268   -2.084129   -1.510174
     47          1           0      -13.922430    2.937276    0.416036
     48          1           0      -13.897832    1.654998   -0.659662
     49          1           0       13.005794   -2.045201    1.370367
     50          1           0       11.868313   -3.156658    0.515709
     51          1           0      -11.409630    3.403708    0.123069
     52          1           0      -12.129719    3.129857   -1.489593
     53          1           0       11.219655   -0.387055   -2.446990
     54          1           0       12.214995    1.308000   -2.690607
     55          1           0       10.571963    1.087428   -2.376187
     56          1           0       12.583227    2.143656    0.827341
     57          1           0       11.409563    2.643183   -0.451850
     58          1           0       13.309329    2.261121   -0.957874
     59          1           0      -13.238483   -0.502200   -0.881167
     60          1           0      -14.056013   -1.191504    0.470376
     61          1           0      -12.382301   -1.875239   -0.095774
     62          1           0      -10.878111    0.027753    2.706396
     63          1           0      -11.042296   -1.766294    1.899141
     64          1           0      -12.313113   -0.924880    2.956496
     65          1           0       10.157799    2.080823    0.640020
     66          1           0      -10.278238   -1.588762   -0.334533
     67          1           0        9.528277   -1.053017    2.474735
     68          1           0       11.014309   -2.186185    2.673613
     69          1           0        9.886395   -2.850430    1.479718
     70          1           0       -9.370706    1.268328   -2.185208
     71          1           0       -9.190692    2.685966   -1.271453
     72          1           0      -10.535337    2.693738   -2.396903
     73          1           0        8.491153   -0.625833    0.437674
     74          1           0       -8.256232    0.628844   -0.278147
     75          1           0        8.074400    2.882297    1.629029
     76          1           0        6.641138    3.497043    0.648323
     77          1           0        8.161163    3.064578   -0.173863
     78          1           0       -8.371061   -3.101369   -1.589073
     79          1           0       -8.246921   -3.289002    0.359125
     80          1           0       -6.922902   -3.297777   -0.711662
     81          1           0        6.040179   -0.447542   -0.047378
     82          1           0       -6.083797    0.001206   -0.272846
     83          1           0        4.747806    2.375053    0.420190
     84          1           0       -4.992682   -2.802757   -0.686625
     85          1           0        3.761386   -0.462052    0.421510
     86          1           0       -3.818611   -0.239157   -0.161884
     87          1           0        2.445784    2.951505    1.448397
     88          1           0        1.025614    2.820311    0.451914
     89          1           0        2.658611    3.443401   -0.304381
     90          1           0       -3.264554   -3.619512   -1.344887
     91          1           0       -3.052751   -3.920183    0.470038
     92          1           0       -1.620137   -4.109239   -0.725898
     93          1           0        0.165769    1.076833    0.272836
     94          1           0       -1.715645   -0.012222    0.115255
     95          1           0        2.131864   -1.496419    0.097087
     96          1           0        0.140347   -2.737523    0.114795
 ---------------------------------------------------------------------

 SCF Done:  E(RB3LYP) =  -1557.57037641     A.U. after   16 cycles

 Excitation energies and oscillator strengths:

 Excited state symmetry could not be determined.
 Excited State   1:      Singlet-?Sym    2.3791 eV  521.13 nm  f=2.6995  <S**2>=0.000
     148 ->149         0.70611
 This state for optimization and/or second-order correction.
 Total Energy, E(TD-HF/TD-KS) =  -1557.48294443
 Copying the excited state density for this state as the 1-particle RhoCI density.

 Alpha  occ. eigenvalues --  -10.20732 -10.20623 -10.20296 -10.20249 -10.20165
 Alpha  occ. eigenvalues --  -10.20094 -10.20041 -10.19755 -10.19658 -10.19407
 Alpha  occ. eigenvalues --  -10.19401 -10.19258 -10.19223 -10.19215 -10.19190
 Alpha  occ. eigenvalues --  -10.18966 -10.18957 -10.18803 -10.18776 -10.18690
 Alpha  occ. eigenvalues --  -10.18636 -10.18464 -10.18453 -10.18452 -10.18249
 Alpha  occ. eigenvalues --  -10.18192 -10.17959 -10.17933 -10.17903 -10.17799
 Alpha  occ. eigenvalues --  -10.17686 -10.17623 -10.17555 -10.17423 -10.17364
 Alpha  occ. eigenvalues --  -10.17082 -10.17046 -10.16602 -10.16550 -10.16241
 Alpha  occ. eigenvalues --   -0.85656  -0.85492  -0.84102  -0.82896  -0.82016
 Alpha  occ. eigenvalues --   -0.81231  -0.80256  -0.79607  -0.79264  -0.78008
 Alpha  occ. eigenvalues --   -0.77151  -0.75717  -0.75022  -0.73722  -0.72226
 Alpha  occ. eigenvalues --   -0.69461  -0.68614  -0.68025  -0.67830  -0.67588
 Alpha  occ. eigenvalues --   -0.67489  -0.67070  -0.66597  -0.66056  -0.65693
 Alpha  occ. eigenvalues --   -0.61935  -0.61372  -0.59559  -0.58825  -0.57134
 Alpha  occ. eigenvalues --   -0.55557  -0.54928  -0.54456  -0.53830  -0.53383
 Alpha  occ. eigenvalues --   -0.52846  -0.52118  -0.50189  -0.49590  -0.49337
 Alpha  occ. eigenvalues --   -0.48536  -0.47813  -0.47408  -0.46659  -0.46134
 Alpha  occ. eigenvalues --   -0.45795  -0.45559  -0.44946  -0.44739  -0.44294
 Alpha  occ. eigenvalues --   -0.43851  -0.43728  -0.43658  -0.43259  -0.42983
 Alpha  occ. eigenvalues --   -0.42280  -0.41761  -0.41555  -0.41105  -0.40850
 Alpha  occ. eigenvalues --   -0.40651  -0.40391  -0.40173  -0.39859  -0.39449
 Alpha  occ. eigenvalues --   -0.39130  -0.38866  -0.38585  -0.38438  -0.37671
 Alpha  occ. eigenvalues --   -0.37466  -0.37348  -0.37122  -0.36759  -0.36633
 Alpha  occ. eigenvalues --   -0.36465  -0.36418  -0.35807  -0.35140  -0.34592
 Alpha  occ. eigenvalues --   -0.34520  -0.34205  -0.34169  -0.34155  -0.34020
 Alpha  occ. eigenvalues --   -0.33335  -0.33295  -0.32899  -0.32749  -0.32400
 Alpha  occ. eigenvalues --   -0.32033  -0.31898  -0.31677  -0.31537  -0.31072
 Alpha  occ. eigenvalues --   -0.30676  -0.30211  -0.29581  -0.29142  -0.28113
 Alpha  occ. eigenvalues --   -0.27652  -0.26473  -0.26074  -0.23801  -0.22244
 Alpha  occ. eigenvalues --   -0.20849  -0.18566  -0.16771
 Alpha virt. eigenvalues --   -0.07397  -0.05004  -0.01597   0.01154   0.02719
 Alpha virt. eigenvalues --    0.03879   0.06181   0.06676   0.06993   0.07021
 Alpha virt. eigenvalues --    0.07887   0.07941   0.08367   0.08866   0.09144

 Mulliken charges:
               1
     1  C   -0.004834
     2  C    0.022752
     3  C   -0.169589
     4  C   -0.163915
     5  C   -0.192647
     6  C   -0.185335
     7  C    0.027617
     8  C    0.053383
     9  C   -0.238049
    10  C   -0.205977
    11  C    0.103835
    12  C    0.036848
    13  C   -0.275985
    14  C   -0.292177
    15  C   -0.282029
    16  C   -0.300938
    17  C   -0.141686
    18  C   -0.119875
    19  C   -0.352576
    20  C   -0.353958
    21  C   -0.088367
    22  C   -0.064034
    23  C    0.065793
    24  C    0.106172
    25  C   -0.364130
    26  C   -0.400280
    27  C   -0.123188
    28  C   -0.141062
    29  C   -0.034752
    30  C   -0.046168
    31  C   -0.121827
    32  C   -0.109874
    33  C    0.090641
    34  C    0.179401
    35  C   -0.370814
    36  C   -0.391808
    37  C   -0.114251
    38  C   -0.122689
    39  C   -0.087015
    40  C   -0.096816
    41  H    0.093379
    42  H    0.067022
    43  H    0.077068
    44  H    0.073552
    45  H    0.079616
    46  H    0.109947
    47  H    0.093098
    48  H    0.091485
    49  H    0.101915
    50  H    0.108822
    51  H    0.111705
    52  H    0.093426
    53  H    0.090942
    54  H    0.096287
    55  H    0.105168
    56  H    0.083505
    57  H    0.084312
    58  H    0.098912
    59  H    0.117660
    60  H    0.068757
    61  H    0.092033
    62  H    0.104935
    63  H    0.088192
    64  H    0.084132
    65  H    0.096924
    66  H    0.075279
    67  H    0.108459
    68  H    0.108514
    69  H    0.068800
    70  H    0.118644
    71  H    0.129433
    72  H    0.084139
    73  H    0.096093
    74  H    0.073272
    75  H    0.129749
    76  H    0.101995
    77  H    0.134319
    78  H    0.131547
    79  H    0.127176
    80  H    0.110284
    81  H    0.070783
    82  H    0.060081
    83  H    0.078843
    84  H    0.056810
    85  H    0.071964
    86  H    0.061743
    87  H    0.137977
    88  H    0.096939
    89  H    0.096001
    90  H    0.105429
    91  H    0.100525
    92  H    0.108462
    93  H    0.066127
    94  H    0.076021
    95  H    0.086327
    96  H    0.085677
 Sum of Mulliken charges =   0.00000

 Dipole moment (field-independent basis, Debye):
    X=             -0.5936    Y=              0.0935    Z=              0.4323  Tot=              0.7403
 Quadrupole moment (field-independent basis, Debye-Ang):
   XX=           -219.8493   YY=           -233.3145   ZZ=           -256.1471
   XY=             -5.0126   XZ=              2.2483   YZ=              1.4936

 Normal termination of Gaussian 09 at Fri May 17 04:42:30 2019.
