 Gaussian 16, Revision A.03,
 Gaussian 16:  ES64L-G16RevA.03 25-Dec-2016

 ----------------------
 #n wB97XD/Def2TZVP Opt
 ----------------------

 ---------
 lutein-s0
 ---------
 Symbolic Z-matrix:
 Charge =  0 Multiplicity = 1

 SCF Done:  E(RwB97XD) =  -1708.38585487     A.U. after   14 cycles
 SCF Done:  E(RwB97XD) =  -1708.38672165     A.U. after   12 cycles
 SCF Done:  E(RwB97XD) =  -1708.38678306     A.U. after   11 cycles
 SCF Done:  E(RwB97XD) =  -1708.38683707     A.U. after   10 cycles
 SCF Done:  E(RwB97XD) =  -1708.38684614     A.U. after   10 cycles
 SCF Done:  E(RwB97XD) =  -1708.38684896     A.U. after    9 cycles
 SCF Done:  E(RwB97XD) =  -1708.38684986     A.U. after    9 cycles
 SCF Done:  E(RwB97XD) =  -1708.38685044     A.U. after    8 cycles
 SCF Done:  E(RwB97XD) =  -1708.38685064     A.U. after    7 cycles
 SCF Done:  E(RwB97XD) =  -1708.38685081     A.U. after    7 cycles
 SCF Done:  E(RwB97XD) =  -1708.38685106     A.U. after    7 cycles
 SCF Done:  E(RwB97XD) =  -1708.38685118     A.U. after    6 cycles
 SCF Done:  E(RwB97XD) =  -1708.38685122     A.U. after    6 cycles
 SCF Done:  E(RwB97XD) =  -1708.38685122     A.U. after    5 cycles
 Optimization completed.
    -- Stationary point found.

                         Standard orientation:
 ---------------------------------------------------------------------
 Center     Atomic      Atomic             Coordinates (Angstroms)
 Number     Number       Type             X           Y           Z
 ---------------------------------------------------------------------
      1          8           0      -13.823471   -2.402218    0.796171
      2          8           0       14.644236    0.874285    0.880696
      3          6           0      -11.745512    0.031933    1.301514
      4          6           0      -10.902037    0.133532    0.004423
      5          6           0      -11.838931   -1.441273    1.719120
      6          6           0      -12.401564   -2.372165    0.654263
      7          6           0      -11.363419   -0.851914   -1.053770
      8          6           0       11.102732   -0.202709    1.746127
      9          6           0      -11.089745    0.829250    2.429147
     10          6           0      -13.133906    0.626167    1.038943
     11          6           0       12.455445    0.507787    1.886809
     12          6           0      -12.005562   -1.970590   -0.736843
     13          6           0       13.390791    0.229003    0.727810
     14          6           0       10.567267   -0.074450    0.315290
     15          6           0       -9.427521   -0.066574    0.221027
     16          6           0       12.766420    0.748377   -0.545481
     17          6           0       11.315507    0.375431   -0.702852
     18          6           0       10.137262    0.442900    2.751515
     19          6           0       11.241947   -1.692088    2.099906
     20          6           0      -11.020311   -0.495975   -2.467629
     21          6           0       -8.490144    0.823909   -0.100016
     22          6           0        9.167190   -0.498953    0.131951
     23          6           0       10.808374    0.600375   -2.099710
     24          6           0       -7.049072    0.658224    0.072553
     25          6           0        8.754158   -1.412257   -0.748716
     26          6           0       -6.563526   -0.629793    0.668507
     27          6           0        7.365241   -1.836026   -0.958292
     28          6           0       -6.239421    1.664123   -0.310567
     29          6           0        7.198185   -3.285430   -1.318175
     30          6           0        6.351336   -0.960508   -0.839684
     31          6           0       -4.798503    1.715207   -0.234508
     32          6           0        4.938254   -1.234649   -0.962187
     33          6           0       -4.080856    2.773301   -0.639149
     34          6           0       -2.623708    2.894023   -0.612411
     35          6           0        3.998405   -0.283036   -0.843254
     36          6           0        2.561962   -0.477714   -0.945287
     37          6           0       -2.113123    4.298294   -0.447910
     38          6           0       -1.831593    1.812433   -0.744761
     39          6           0        1.757793    0.596402   -0.795695
     40          6           0        2.058954   -1.866321   -1.212418
     41          6           0       -0.392280    1.769490   -0.691495
     42          6           0        0.319707    0.640358   -0.856730
     43          1           0      -11.039989    1.143603   -0.398414
     44          1           0      -12.456278   -1.537194    2.615163
     45          1           0      -10.839835   -1.793935    1.989826
     46          1           0      -12.019292   -3.383878    0.846209
     47          1           0      -10.119536    0.416507    2.710390
     48          1           0      -10.932718    1.868776    2.130770
     49          1           0      -11.730217    0.825353    3.314013
     50          1           0      -13.632233    0.147208    0.197967
     51          1           0      -13.774588    0.497778    1.913224
     52          1           0      -13.050618    1.696505    0.832883
     53          1           0       12.301142    1.590394    1.937479
     54          1           0       12.919377    0.205020    2.831993
     55          1           0      -12.295535   -2.656187   -1.530649
     56          1           0       13.546354   -0.853544    0.632376
     57          1           0       -9.139515   -1.024810    0.642910
     58          1           0       13.328392    0.386896   -1.411462
     59          1           0       12.866277    1.840284   -0.558090
     60          1           0        9.206506   -0.117469    2.845590
     61          1           0        9.896697    1.468396    2.463210
     62          1           0       10.602349    0.470062    3.739604
     63          1           0       11.958994   -2.194994    1.449312
     64          1           0       10.284343   -2.204128    1.992361
     65          1           0       11.574856   -1.808501    3.134475
     66          1           0       -9.948031   -0.310771   -2.569574
     67          1           0      -11.532046    0.425507   -2.760133
     68          1           0      -11.305344   -1.284097   -3.164336
     69          1           0      -14.196610   -2.844795    0.032005
     70          1           0        8.429180   -0.067379    0.801737
     71          1           0       -8.805848    1.771746   -0.530210
     72          1           0       11.197784   -0.161370   -2.781738
     73          1           0        9.723393    0.587960   -2.165404
     74          1           0       11.172528    1.563338   -2.468921
     75          1           0       15.053914    0.556669    1.686855
     76          1           0        9.504177   -1.923506   -1.348254
     77          1           0       -5.481752   -0.667212    0.764310
     78          1           0       -6.993391   -0.776605    1.662561
     79          1           0       -6.876967   -1.477983    0.054745
     80          1           0       -6.712213    2.548782   -0.730233
     81          1           0        7.508846   -3.924898   -0.487473
     82          1           0        6.177112   -3.547589   -1.585186
     83          1           0        7.840492   -3.535832   -2.166686
     84          1           0        6.608623    0.075651   -0.637902
     85          1           0       -4.273565    0.864061    0.184214
     86          1           0        4.631416   -2.256788   -1.149748
     87          1           0       -4.620675    3.649562   -0.993140
     88          1           0        4.323610    0.736341   -0.649736
     89          1           0       -1.032578    4.376214   -0.539076
     90          1           0       -2.403244    4.699557    0.526699
     91          1           0       -2.559982    4.948692   -1.204514
     92          1           0       -2.315457    0.856848   -0.926319
     93          1           0        2.241105    1.551736   -0.605672
     94          1           0        2.379811   -2.549036   -0.421697
     95          1           0        0.975217   -1.914824   -1.275121
     96          1           0        2.465964   -2.246971   -2.152476
     97          1           0        0.148489    2.690856   -0.500788
     98          1           0       -0.222164   -0.281098   -1.043092
 ---------------------------------------------------------------------

 The electronic state is 1-A.
 Alpha  occ. eigenvalues --  -19.24490 -19.24297 -10.33270 -10.32783 -10.30098
 Alpha  occ. eigenvalues --  -10.29937 -10.29924 -10.29794 -10.29581 -10.29512
 Alpha  occ. eigenvalues --  -10.29310 -10.29211 -10.28966 -10.28934 -10.28871
 Alpha  occ. eigenvalues --  -10.28796 -10.28752 -10.28566 -10.28557 -10.28531
 Alpha  occ. eigenvalues --  -10.28502 -10.28443 -10.28405 -10.28331 -10.28319
 Alpha  occ. eigenvalues --  -10.28232 -10.28206 -10.28097 -10.28075 -10.28064
 Alpha  occ. eigenvalues --  -10.27999 -10.27977 -10.27658 -10.27569 -10.27435
 Alpha  occ. eigenvalues --  -10.27432 -10.27285 -10.27052 -10.27020 -10.26863
 Alpha  occ. eigenvalues --  -10.26348 -10.25725  -1.12461  -1.12115  -0.96110
 Alpha  occ. eigenvalues --   -0.95940  -0.94487  -0.93978  -0.93002  -0.92352
 Alpha  occ. eigenvalues --   -0.89690  -0.89312  -0.89202  -0.87951  -0.87179
 Alpha  occ. eigenvalues --   -0.85592  -0.84741  -0.83134  -0.82619  -0.80673
 Alpha  occ. eigenvalues --   -0.79332  -0.78832  -0.78505  -0.78440  -0.78127
 Alpha  occ. eigenvalues --   -0.77844  -0.77648  -0.77433  -0.76360  -0.72561
 Alpha  occ. eigenvalues --   -0.71286  -0.70330  -0.68963  -0.67415  -0.66205
 Alpha  occ. eigenvalues --   -0.65557  -0.65197  -0.64744  -0.63275  -0.62543
 Alpha  occ. eigenvalues --   -0.62164  -0.61336  -0.61102  -0.60245  -0.58878
 Alpha  occ. eigenvalues --   -0.58290  -0.57767  -0.57330  -0.56873  -0.56326
 Alpha  occ. eigenvalues --   -0.55770  -0.55645  -0.55317  -0.54728  -0.53889
 Alpha  occ. eigenvalues --   -0.52983  -0.52842  -0.52146  -0.51756  -0.51402
 Alpha  occ. eigenvalues --   -0.51308  -0.51203  -0.51018  -0.50941  -0.50841
 Alpha  occ. eigenvalues --   -0.50675  -0.50101  -0.49485  -0.49308  -0.48639
 Alpha  occ. eigenvalues --   -0.48566  -0.48324  -0.48002  -0.47904  -0.47709
 Alpha  occ. eigenvalues --   -0.47563  -0.47483  -0.46845  -0.46499  -0.46383
 Alpha  occ. eigenvalues --   -0.46225  -0.45828  -0.45632  -0.45226  -0.44886
 Alpha  occ. eigenvalues --   -0.44741  -0.44465  -0.44426  -0.43751  -0.43511
 Alpha  occ. eigenvalues --   -0.43359  -0.43270  -0.42935  -0.42774  -0.42355
 Alpha  occ. eigenvalues --   -0.42295  -0.42017  -0.41845  -0.41544  -0.41481
 Alpha  occ. eigenvalues --   -0.41087  -0.39731  -0.39670  -0.39350  -0.38982
 Alpha  occ. eigenvalues --   -0.38684  -0.37485  -0.36502  -0.35262  -0.35139
 Alpha  occ. eigenvalues --   -0.34843  -0.32702  -0.31878  -0.30002  -0.27491
 Alpha  occ. eigenvalues --   -0.24137
 Alpha virt. eigenvalues --   -0.02308   0.01371   0.04668   0.07211   0.08571
 Alpha virt. eigenvalues --    0.09984   0.10037   0.10566   0.11029   0.11303
 Alpha virt. eigenvalues --    0.11650   0.11733   0.11948   0.11989   0.12191

 Mulliken charges:
               1
     1  O   -0.470578
     2  O   -0.454319
     3  C    0.105239
     4  C    0.196599
     5  C   -0.316759
     6  C    0.268328
     7  C    0.000502
     8  C    0.204080
     9  C   -0.339746
    10  C   -0.378680
    11  C   -0.253659
    12  C   -0.340069
    13  C    0.094979
    14  C    0.028838
    15  C   -0.366388
    16  C   -0.155107
    17  C   -0.034565
    18  C   -0.425811
    19  C   -0.414762
    20  C   -0.399020
    21  C   -0.157639
    22  C   -0.300923
    23  C   -0.384339
    24  C    0.114863
    25  C   -0.218855
    26  C   -0.377109
    27  C    0.129689
    28  C   -0.131368
    29  C   -0.358066
    30  C   -0.193291
    31  C   -0.069764
    32  C   -0.035304
    33  C   -0.214876
    34  C    0.104664
    35  C   -0.223052
    36  C    0.125265
    37  C   -0.356898
    38  C   -0.161418
    39  C   -0.129118
    40  C   -0.387110
    41  C   -0.089357
    42  C   -0.126046
    43  H    0.080885
    44  H    0.114821
    45  H    0.107981
    46  H    0.070064
    47  H    0.120930
    48  H    0.114710
    49  H    0.123557
    50  H    0.132264
    51  H    0.117550
    52  H    0.105610
    53  H    0.107577
    54  H    0.102261
    55  H    0.107601
    56  H    0.064903
    57  H    0.145650
    58  H    0.115995
    59  H    0.112788
    60  H    0.129932
    61  H    0.131998
    62  H    0.124296
    63  H    0.116041
    64  H    0.135991
    65  H    0.116463
    66  H    0.141982
    67  H    0.123510
    68  H    0.114010
    69  H    0.302951
    70  H    0.140308
    71  H    0.105063
    72  H    0.126114
    73  H    0.148244
    74  H    0.124630
    75  H    0.306309
    76  H    0.124571
    77  H    0.117421
    78  H    0.133344
    79  H    0.134673
    80  H    0.100040
    81  H    0.129689
    82  H    0.110907
    83  H    0.124231
    84  H    0.121509
    85  H    0.102454
    86  H    0.109814
    87  H    0.107417
    88  H    0.099463
    89  H    0.110739
    90  H    0.133211
    91  H    0.124590
    92  H    0.110184
    93  H    0.100494
    94  H    0.133699
    95  H    0.119003
    96  H    0.134423
    97  H    0.090348
    98  H    0.085736
 Sum of Mulliken charges =  -0.00000

 Dipole moment (field-independent basis, Debye):
    X=              0.2084    Y=             -1.6010    Z=             -0.2797  Tot=              1.6385
 Quadrupole moment (field-independent basis, Debye-Ang):
   XX=           -282.3179   YY=           -245.9672   ZZ=           -260.6492
   XY=            -11.8841   XZ=             31.1018   YZ=              3.3259

 Normal termination of Gaussian 16 at Tue Nov  5 08:41:59 2019.
