 Gaussian 16, Revision A.03,
 Gaussian 16:  ES64L-G16RevA.03 25-Dec-2016

 -------------------------------------
 # td=(NStates=1) CAM-B3LYP/6-31G(d,p)
 -------------------------------------

 --
 TD
 --
 Symbolic Z-matrix:
 Charge =  0 Multiplicity = 1

                         Standard orientation:
 ---------------------------------------------------------------------
 Center     Atomic      Atomic             Coordinates (Angstroms)
 Number     Number       Type             X           Y           Z
 ---------------------------------------------------------------------
      1          8           0      -14.289096   -1.741202    0.648397
      2          8           0       14.695639    1.287371   -0.102605
      3          6           0      -11.713209    0.132104    1.286308
      4          6           0      -10.911013    0.316193   -0.128796
      5          6           0      -12.104623   -1.424714    1.585896
      6          6           0      -12.905815   -2.028411    0.454505
      7          6           0      -11.551826   -0.621270   -1.141009
      8          6           0       11.064888    0.977144    1.154195
      9          6           0      -10.852250    0.619150    2.379477
     10          6           0      -13.048626    0.923030    1.132493
     11          6           0       12.477990    1.518184    0.840323
     12          6           0      -12.412069   -1.591128   -1.028690
     13          6           0       13.508218    0.543191    0.226498
     14          6           0       10.608596   -0.103888    0.073826
     15          6           0       -9.450840   -0.031126   -0.082911
     16          6           0       12.886632    0.071640   -1.036036
     17          6           0       11.482257   -0.463903   -0.965752
     18          6           0       10.056372    2.113630    1.249152
     19          6           0       11.102759    0.169999    2.480949
     20          6           0      -11.278094   -0.118179   -2.738164
     21          6           0       -8.473030    0.873893   -0.278040
     22          6           0        9.181997   -0.518525    0.046011
     23          6           0       11.114157   -1.442671   -2.129740
     24          6           0       -7.082605    0.627988   -0.350690
     25          6           0        8.760425   -1.741385   -0.275532
     26          6           0       -6.728685   -0.810966   -0.071567
     27          6           0        7.441503   -2.243611   -0.160436
     28          6           0       -6.246747    1.637597   -0.488557
     29          6           0        7.300440   -3.745304    0.042006
     30          6           0        6.352447   -1.332388   -0.164433
     31          6           0       -4.841693    1.478740   -0.529433
     32          6           0        5.089042   -1.641627    0.040610
     33          6           0       -3.899761    2.528408   -0.648180
     34          6           0       -2.487165    2.494553   -0.579672
     35          6           0        4.086464   -0.626785   -0.114775
     36          6           0        2.718011   -0.846250    0.063515
     37          6           0       -1.834669    3.864235   -0.953359
     38          6           0       -1.694976    1.397478   -0.450616
     39          6           0        1.823075    0.251028    0.006229
     40          6           0        2.133358   -2.138835    0.490318
     41          6           0       -0.273256    1.401323   -0.446075
     42          6           0        0.400211    0.267296   -0.160933
     43          1           0      -10.992382    1.353221   -0.400297
     44          1           0      -12.669123   -1.363509    2.389746
     45          1           0      -11.080117   -1.991188    1.761005
     46          1           0      -12.892001   -3.201955    0.508328
     47          1           0       -9.870953    0.060438    2.643446
     48          1           0      -10.665967    1.753034    2.482521
     49          1           0      -11.542831    0.582702    3.342037
     50          1           0      -13.565367    0.523383    0.329586
     51          1           0      -13.682952    0.936907    1.987872
     52          1           0      -13.012980    2.070596    1.036010
     53          1           0       12.194093    2.353187    0.137011
     54          1           0       12.855645    2.057552    1.728984
     55          1           0      -13.046373   -2.231492   -1.783674
     56          1           0       13.656444   -0.266933    0.796638
     57          1           0       -9.307885   -1.171098    0.148699
     58          1           0       13.504422   -0.763838   -1.542887
     59          1           0       12.865307    0.851819   -1.843669
     60          1           0        9.024000    1.550524    1.513731
     61          1           0       10.065062    2.506548    0.243307
     62          1           0       10.357182    2.729445    2.021044
     63          1           0       12.057524   -0.553066    2.405785
     64          1           0       10.078068   -0.451269    2.569399
     65          1           0       11.293436    1.057910    3.196598
     66          1           0      -10.296690    0.221895   -2.911952
     67          1           0      -11.950607    0.768410   -3.164096
     68          1           0      -11.404579   -0.861469   -3.433821
     69          1           0      -14.905586   -1.735480   -0.142209
     70          1           0        8.525141    0.295434    0.651912
     71          1           0       -8.570697    1.939394   -0.360882
     72          1           0       11.518683   -2.445540   -1.848143
     73          1           0        9.888004   -1.586022   -2.499356
     74          1           0       11.722908   -0.936060   -2.961191
     75          1           0       14.925291    1.598588    0.835633
     76          1           0        9.416549   -2.552553   -0.401554
     77          1           0       -5.702867   -1.034509   -0.044798
     78          1           0       -7.059713   -1.289507    0.838205
     79          1           0       -7.031776   -1.669110   -0.716852
     80          1           0       -6.583470    2.657244   -0.970160
     81          1           0        6.668730   -4.118613    0.927343
     82          1           0        6.606894   -4.084666   -0.770949
     83          1           0        8.284643   -4.200781    0.009460
     84          1           0        6.836918   -0.418005   -0.516653
     85          1           0       -4.383690    0.543105   -0.376007
     86          1           0        4.620372   -2.573999    0.148371
     87          1           0       -4.331497    3.549730   -0.807020
     88          1           0        4.433898    0.427562   -0.322675
     89          1           0       -1.393670    3.865467   -1.896956
     90          1           0       -1.098377    3.830669   -0.442308
     91          1           0       -2.415104    4.613185   -1.173575
     92          1           0       -2.237214    0.443833   -0.293767
     93          1           0        2.260039    1.328349   -0.328389
     94          1           0        2.780692   -2.599437    1.225675
     95          1           0        1.093992   -1.990696    1.084327
     96          1           0        1.915086   -2.844922   -0.532151
     97          1           0        0.220197    2.303277   -0.581770
     98          1           0       -0.014460   -0.622090   -0.034743
 ---------------------------------------------------------------------

 SCF Done:  E(RCAM-B3LYP) =  -1706.91557349     A.U. after   15 cycles

 Excitation energies and oscillator strengths:

 Excited State   1:      Singlet-A      1.9968 eV  620.92 nm  f=3.1417  <S**2>=0.000
     155 ->158        -0.15003
     156 ->157         0.69346
 This state for optimization and/or second-order correction.
 Total Energy, E(TD-HF/TD-DFT) =  -1706.84219336
 Copying the excited state density for this state as the 1-particle RhoCI density.

 The electronic state is 1-A.
 Alpha  occ. eigenvalues --  -19.22394 -19.20786 -10.31648 -10.30438 -10.28002
 Alpha  occ. eigenvalues --  -10.27971 -10.27848 -10.27689 -10.27522 -10.27475
 Alpha  occ. eigenvalues --  -10.27165 -10.27143 -10.27048 -10.26752 -10.26742
 Alpha  occ. eigenvalues --  -10.26680 -10.26675 -10.26657 -10.26619 -10.26613
 Alpha  occ. eigenvalues --  -10.26482 -10.26414 -10.26296 -10.26278 -10.26271
 Alpha  occ. eigenvalues --  -10.26229 -10.25948 -10.25857 -10.25733 -10.25581
 Alpha  occ. eigenvalues --  -10.25572 -10.25454 -10.25452 -10.25240 -10.25145
 Alpha  occ. eigenvalues --  -10.25117 -10.25091 -10.24804 -10.24709 -10.24683
 Alpha  occ. eigenvalues --  -10.23026 -10.21554  -1.09371  -1.07887  -0.93253
 Alpha  occ. eigenvalues --   -0.92826  -0.92108  -0.91646  -0.91100  -0.90065
 Alpha  occ. eigenvalues --   -0.87459  -0.87164  -0.85769  -0.85337  -0.84712
 Alpha  occ. eigenvalues --   -0.82908  -0.82340  -0.79897  -0.79664  -0.78896
 Alpha  occ. eigenvalues --   -0.77694  -0.76207  -0.75774  -0.75619  -0.75409
 Alpha  occ. eigenvalues --   -0.75150  -0.74744  -0.74576  -0.72842  -0.70608
 Alpha  occ. eigenvalues --   -0.69168  -0.67709  -0.66958  -0.65650  -0.63618
 Alpha  occ. eigenvalues --   -0.63353  -0.62222  -0.61905  -0.60606  -0.60059
 Alpha  occ. eigenvalues --   -0.59641  -0.58785  -0.58252  -0.57096  -0.56774
 Alpha  occ. eigenvalues --   -0.56265  -0.55217  -0.54749  -0.54219  -0.53419
 Alpha  occ. eigenvalues --   -0.52985  -0.52389  -0.51806  -0.51746  -0.51427
 Alpha  occ. eigenvalues --   -0.51216  -0.50441  -0.50204  -0.49345  -0.49215
 Alpha  occ. eigenvalues --   -0.48717  -0.48177  -0.48077  -0.47711  -0.47562
 Alpha  occ. eigenvalues --   -0.47205  -0.46748  -0.46543  -0.46421  -0.46065
 Alpha  occ. eigenvalues --   -0.45963  -0.45303  -0.44971  -0.44732  -0.44714
 Alpha  occ. eigenvalues --   -0.44512  -0.44394  -0.43797  -0.43757  -0.43637
 Alpha  occ. eigenvalues --   -0.43118  -0.42858  -0.42670  -0.42518  -0.42380
 Alpha  occ. eigenvalues --   -0.42156  -0.41812  -0.41475  -0.40984  -0.40634
 Alpha  occ. eigenvalues --   -0.40104  -0.40069  -0.39644  -0.39495  -0.39289
 Alpha  occ. eigenvalues --   -0.38734  -0.38638  -0.38561  -0.38084  -0.37970
 Alpha  occ. eigenvalues --   -0.37764  -0.37035  -0.36528  -0.35768  -0.35520
 Alpha  occ. eigenvalues --   -0.35207  -0.34795  -0.33352  -0.32992  -0.31799
 Alpha  occ. eigenvalues --   -0.31159  -0.30015  -0.28827  -0.26805  -0.23058
 Alpha  occ. eigenvalues --   -0.18545
 Alpha virt. eigenvalues --   -0.06014  -0.01391   0.03063   0.05892   0.07293
 Alpha virt. eigenvalues --    0.09055   0.10528   0.11381   0.11779   0.12001
 Alpha virt. eigenvalues --    0.12686   0.13015   0.13197   0.13789   0.13850

 Mulliken charges:
               1
     1  O   -0.569083
     2  O   -0.551616
     3  C    0.020021
     4  C   -0.126325
     5  C   -0.160357
     6  C    0.156050
     7  C    0.103065
     8  C   -0.050867
     9  C   -0.303807
    10  C   -0.296045
    11  C   -0.204521
    12  C   -0.150068
    13  C    0.183581
    14  C    0.045515
    15  C   -0.079638
    16  C   -0.236297
    17  C    0.037173
    18  C   -0.278910
    19  C   -0.262143
    20  C   -0.365448
    21  C   -0.097359
    22  C   -0.110467
    23  C   -0.341252
    24  C    0.175190
    25  C   -0.114119
    26  C   -0.399984
    27  C    0.069848
    28  C   -0.159585
    29  C   -0.375031
    30  C   -0.092648
    31  C   -0.069817
    32  C   -0.096726
    33  C   -0.140015
    34  C    0.065029
    35  C   -0.111680
    36  C    0.120662
    37  C   -0.331197
    38  C   -0.115307
    39  C   -0.154594
    40  C   -0.370349
    41  C   -0.077771
    42  C   -0.040010
    43  H    0.107496
    44  H    0.124773
    45  H    0.083593
    46  H    0.063617
    47  H    0.101258
    48  H    0.094230
    49  H    0.072699
    50  H    0.118156
    51  H    0.104747
    52  H    0.072490
    53  H    0.100176
    54  H    0.071887
    55  H    0.090362
    56  H    0.098400
    57  H    0.090579
    58  H    0.096030
    59  H    0.127259
    60  H    0.083846
    61  H    0.117886
    62  H    0.109289
    63  H    0.082154
    64  H    0.100100
    65  H    0.082974
    66  H    0.116633
    67  H    0.087624
    68  H    0.114164
    69  H    0.311565
    70  H    0.083482
    71  H    0.077291
    72  H    0.123652
    73  H    0.101690
    74  H    0.101280
    75  H    0.307780
    76  H    0.085358
    77  H    0.105987
    78  H    0.121859
    79  H    0.118111
    80  H    0.090085
    81  H    0.117518
    82  H    0.122646
    83  H    0.109808
    84  H    0.091247
    85  H    0.079567
    86  H    0.089335
    87  H    0.069278
    88  H    0.083630
    89  H    0.119318
    90  H    0.114615
    91  H    0.108098
    92  H    0.077110
    93  H    0.053971
    94  H    0.124789
    95  H    0.105480
    96  H    0.096549
    97  H    0.083920
    98  H    0.069459
 Sum of Mulliken charges =  -0.00000

 Dipole moment (field-independent basis, Debye):
    X=              0.9045    Y=             -0.9440    Z=             -0.1408  Tot=              1.3150
 Quadrupole moment (field-independent basis, Debye-Ang):
   XX=           -257.4530   YY=           -244.6807   ZZ=           -264.3297
   XY=             -1.5710   XZ=             37.2705   YZ=              1.6392

 Normal termination of Gaussian 16 at Tue Jul 16 03:57:19 2019.
