 Gaussian 16, Revision A.03,
 Gaussian 16:  ES64L-G16RevA.03 25-Dec-2016

 -------------------------------------
 # td=(NStates=1) CAM-B3LYP/6-31G(d,p)
 -------------------------------------

 --
 TD
 --
 Symbolic Z-matrix:
 Charge =  0 Multiplicity = 1

                         Standard orientation:
 ---------------------------------------------------------------------
 Center     Atomic      Atomic             Coordinates (Angstroms)
 Number     Number       Type             X           Y           Z
 ---------------------------------------------------------------------
      1          8           0      -14.181889   -2.040348    0.397426
      2          8           0       14.828833    0.930713    0.114370
      3          6           0      -11.799538    0.030476    1.278244
      4          6           0      -10.953642    0.307587    0.024707
      5          6           0      -12.016837   -1.388632    1.395802
      6          6           0      -12.752959   -2.041890    0.112480
      7          6           0      -11.569807   -0.300137   -1.141687
      8          6           0       11.057750    0.904505    1.090080
      9          6           0      -10.923281    0.346996    2.524197
     10          6           0      -13.133889    0.918361    1.280249
     11          6           0       12.520930    1.435076    0.808349
     12          6           0      -12.391802   -1.356735   -1.069857
     13          6           0       13.588697    0.389739    0.372190
     14          6           0       10.616234    0.121391   -0.030971
     15          6           0       -9.567325   -0.063135    0.020074
     16          6           0       13.034233   -0.161349   -0.946282
     17          6           0       11.594902   -0.370170   -0.910743
     18          6           0       10.200126    2.195375    1.158022
     19          6           0       11.138589    0.089115    2.428533
     20          6           0      -11.206599    0.263078   -2.523810
     21          6           0       -8.567317    0.796673   -0.183932
     22          6           0        9.274459   -0.367760   -0.013515
     23          6           0       10.998757   -1.226054   -2.145093
     24          6           0       -7.110859    0.455695   -0.216805
     25          6           0        8.819583   -1.612103   -0.128401
     26          6           0       -6.679122   -0.918710    0.076786
     27          6           0        7.399261   -2.008887   -0.009642
     28          6           0       -6.170856    1.484973   -0.302060
     29          6           0        7.226057   -3.464824   -0.024432
     30          6           0        6.378846   -1.187076   -0.169287
     31          6           0       -4.751503    1.320323   -0.287160
     32          6           0        5.022122   -1.584693   -0.042320
     33          6           0       -4.015911    2.490800   -0.513767
     34          6           0       -2.645075    2.616907   -0.661000
     35          6           0        4.039417   -0.730316   -0.164529
     36          6           0        2.635126   -0.857311   -0.100036
     37          6           0       -1.998586    3.985475   -0.859297
     38          6           0       -1.869478    1.477774   -0.569429
     39          6           0        1.783221    0.225572   -0.329670
     40          6           0        1.910955   -2.248262    0.204122
     41          6           0       -0.362234    1.405424   -0.637313
     42          6           0        0.399852    0.230044   -0.459018
     43          1           0      -11.276918    1.442510   -0.030237
     44          1           0      -12.583920   -1.568967    2.463997
     45          1           0      -11.161055   -1.848469    1.701319
     46          1           0      -12.690120   -3.168262    0.156957
     47          1           0       -9.824368   -0.052459    2.652177
     48          1           0      -10.792104    1.347656    2.540854
     49          1           0      -11.517039    0.150567    3.498734
     50          1           0      -13.645969    0.625527    0.318066
     51          1           0      -13.713799    0.512810    2.154027
     52          1           0      -12.931727    1.926778    1.131450
     53          1           0       12.543181    2.219283    0.059620
     54          1           0       13.133258    1.876879    1.587027
     55          1           0      -12.822719   -1.684388   -2.000019
     56          1           0       13.516912   -0.248547    1.252829
     57          1           0       -9.294939   -1.066561    0.121641
     58          1           0       13.500369   -1.172386   -1.046225
     59          1           0       13.261635    0.392099   -1.953274
     60          1           0        9.336351    1.909532    1.607072
     61          1           0       10.082747    2.463764    0.139874
     62          1           0       10.770774    2.851795    1.762758
     63          1           0       11.870189   -0.715168    2.288671
     64          1           0       10.263211   -0.265369    2.898506
     65          1           0       11.195058    0.868367    3.257871
     66          1           0      -10.129484    0.551608   -2.453014
     67          1           0      -11.582903    1.276388   -2.592766
     68          1           0      -11.548720   -0.504380   -3.348052
     69          1           0      -14.549069   -2.085147   -0.476013
     70          1           0        8.613439    0.428481    0.245195
     71          1           0       -8.703329    1.904021   -0.343214
     72          1           0       11.483002   -2.180475   -1.870063
     73          1           0       10.072503   -1.201086   -2.394934
     74          1           0       11.782644   -0.818238   -2.874791
     75          1           0       15.143559    1.256977    0.991460
     76          1           0        9.437902   -2.488943   -0.138679
     77          1           0       -5.592363   -1.131333   -0.328290
     78          1           0       -6.794985   -1.371866    1.094575
     79          1           0       -7.162139   -1.468165   -0.655126
     80          1           0       -6.443422    2.301344   -0.179399
     81          1           0        6.921613   -3.940356    0.953803
     82          1           0        6.529689   -3.736485   -0.597999
     83          1           0        7.951022   -4.192524   -0.291705
     84          1           0        6.710698   -0.075286   -0.399083
     85          1           0       -4.279749    0.352145   -0.127883
     86          1           0        4.819572   -2.654961    0.115685
     87          1           0       -4.636174    3.452802   -0.506310
     88          1           0        4.413382    0.326405   -0.145734
     89          1           0       -1.284749    3.874064   -1.712898
     90          1           0       -1.358171    4.096321   -0.130959
     91          1           0       -2.728473    4.770915   -1.073449
     92          1           0       -2.153411    0.521196   -0.379635
     93          1           0        2.039235    1.240568   -0.590461
     94          1           0        2.060627   -2.272747    1.361654
     95          1           0        0.881510   -2.444501   -0.532232
     96          1           0        2.859165   -3.071094   -0.291857
     97          1           0       -0.022517    2.464656   -0.564164
     98          1           0       -0.059424   -0.720114   -0.424411
 ---------------------------------------------------------------------

 SCF Done:  E(RCAM-B3LYP) =  -1706.86797955     A.U. after   14 cycles

 Excitation energies and oscillator strengths:

 Excited State   1:      Singlet-A      2.2665 eV  547.02 nm  f=2.9061  <S**2>=0.000
     155 ->158        -0.14722
     156 ->157         0.69044
 This state for optimization and/or second-order correction.
 Total Energy, E(TD-HF/TD-DFT) =  -1706.78468588
 Copying the excited state density for this state as the 1-particle RhoCI density.

 The electronic state is 1-A.
 Alpha  occ. eigenvalues --  -19.22471 -19.19424 -10.30825 -10.30343 -10.30020
 Alpha  occ. eigenvalues --  -10.28077 -10.27535 -10.27262 -10.27135 -10.26871
 Alpha  occ. eigenvalues --  -10.26824 -10.26786 -10.26717 -10.26547 -10.26465
 Alpha  occ. eigenvalues --  -10.26437 -10.26360 -10.26332 -10.26203 -10.26145
 Alpha  occ. eigenvalues --  -10.26104 -10.25714 -10.25649 -10.25612 -10.25579
 Alpha  occ. eigenvalues --  -10.25562 -10.25555 -10.25531 -10.25347 -10.25139
 Alpha  occ. eigenvalues --  -10.25073 -10.24872 -10.24520 -10.24417 -10.24281
 Alpha  occ. eigenvalues --  -10.24247 -10.24052 -10.24052 -10.23948 -10.23864
 Alpha  occ. eigenvalues --  -10.23271 -10.23092  -1.11444  -1.08178  -0.95351
 Alpha  occ. eigenvalues --   -0.94081  -0.92370  -0.92124  -0.90686  -0.90034
 Alpha  occ. eigenvalues --   -0.87437  -0.87231  -0.86837  -0.86171  -0.85128
 Alpha  occ. eigenvalues --   -0.83304  -0.82077  -0.80456  -0.80303  -0.78477
 Alpha  occ. eigenvalues --   -0.77566  -0.77291  -0.76711  -0.76491  -0.75924
 Alpha  occ. eigenvalues --   -0.75519  -0.75157  -0.74650  -0.72578  -0.71008
 Alpha  occ. eigenvalues --   -0.69489  -0.68237  -0.66839  -0.65450  -0.64794
 Alpha  occ. eigenvalues --   -0.63884  -0.62888  -0.62683  -0.61423  -0.60217
 Alpha  occ. eigenvalues --   -0.60054  -0.59821  -0.58521  -0.57785  -0.56765
 Alpha  occ. eigenvalues --   -0.56391  -0.55810  -0.55036  -0.54436  -0.54050
 Alpha  occ. eigenvalues --   -0.53781  -0.53196  -0.52419  -0.52054  -0.51595
 Alpha  occ. eigenvalues --   -0.51397  -0.50574  -0.50315  -0.50129  -0.49677
 Alpha  occ. eigenvalues --   -0.49637  -0.49193  -0.49009  -0.48418  -0.48009
 Alpha  occ. eigenvalues --   -0.47783  -0.47595  -0.47344  -0.46926  -0.46513
 Alpha  occ. eigenvalues --   -0.46454  -0.45724  -0.45614  -0.45406  -0.45016
 Alpha  occ. eigenvalues --   -0.44857  -0.44328  -0.44206  -0.43732  -0.43683
 Alpha  occ. eigenvalues --   -0.43283  -0.43117  -0.42593  -0.42346  -0.42225
 Alpha  occ. eigenvalues --   -0.41824  -0.41227  -0.41180  -0.40802  -0.40692
 Alpha  occ. eigenvalues --   -0.40515  -0.39941  -0.39838  -0.39763  -0.39675
 Alpha  occ. eigenvalues --   -0.39379  -0.38920  -0.38492  -0.38259  -0.37616
 Alpha  occ. eigenvalues --   -0.37440  -0.37072  -0.36936  -0.36031  -0.35303
 Alpha  occ. eigenvalues --   -0.35121  -0.34587  -0.33866  -0.31537  -0.30992
 Alpha  occ. eigenvalues --   -0.30731  -0.29356  -0.28806  -0.26226  -0.23619
 Alpha  occ. eigenvalues --   -0.19804
 Alpha virt. eigenvalues --   -0.05505  -0.00659   0.02705   0.05058   0.07254
 Alpha virt. eigenvalues --    0.08807   0.10385   0.11170   0.11454   0.11900
 Alpha virt. eigenvalues --    0.12476   0.12913   0.13232   0.13361   0.14430

 Mulliken charges:
               1
     1  O   -0.555200
     2  O   -0.540114
     3  C    0.002172
     4  C   -0.146216
     5  C   -0.156963
     6  C    0.124615
     7  C    0.114449
     8  C   -0.035343
     9  C   -0.309925
    10  C   -0.301506
    11  C   -0.198112
    12  C   -0.123669
    13  C    0.161718
    14  C    0.074792
    15  C   -0.074147
    16  C   -0.222661
    17  C    0.002037
    18  C   -0.309520
    19  C   -0.302891
    20  C   -0.352660
    21  C   -0.074568
    22  C   -0.112577
    23  C   -0.318466
    24  C    0.065402
    25  C   -0.089394
    26  C   -0.380025
    27  C    0.103529
    28  C   -0.046110
    29  C   -0.397084
    30  C   -0.129609
    31  C   -0.058851
    32  C   -0.084600
    33  C   -0.140117
    34  C    0.090326
    35  C   -0.088179
    36  C    0.052250
    37  C   -0.375169
    38  C   -0.105810
    39  C   -0.086014
    40  C   -0.338732
    41  C   -0.114457
    42  C   -0.083904
    43  H    0.083619
    44  H    0.073897
    45  H    0.103969
    46  H    0.085454
    47  H    0.095628
    48  H    0.102177
    49  H    0.083596
    50  H    0.108722
    51  H    0.115883
    52  H    0.104014
    53  H    0.097128
    54  H    0.054301
    55  H    0.066947
    56  H    0.080148
    57  H    0.099432
    58  H    0.109574
    59  H    0.123199
    60  H    0.108879
    61  H    0.114819
    62  H    0.107854
    63  H    0.108722
    64  H    0.109077
    65  H    0.086644
    66  H    0.119580
    67  H    0.117319
    68  H    0.105046
    69  H    0.290521
    70  H    0.079421
    71  H    0.075326
    72  H    0.109510
    73  H    0.121714
    74  H    0.082735
    75  H    0.306658
    76  H    0.087567
    77  H    0.090410
    78  H    0.128267
    79  H    0.126283
    80  H    0.028435
    81  H    0.103552
    82  H    0.133551
    83  H    0.113037
    84  H    0.079944
    85  H    0.094443
    86  H    0.087253
    87  H    0.075453
    88  H    0.080776
    89  H    0.123754
    90  H    0.146081
    91  H    0.115549
    92  H    0.072476
    93  H    0.078224
    94  H    0.145205
    95  H    0.119701
    96  H    0.060060
    97  H    0.071748
    98  H    0.068018
 Sum of Mulliken charges =  -0.00000

 Dipole moment (field-independent basis, Debye):
    X=              1.7913    Y=              0.2242    Z=              0.3424  Tot=              1.8374
 Quadrupole moment (field-independent basis, Debye-Ang):
   XX=           -291.6901   YY=           -245.0902   ZZ=           -261.7840
   XY=            -11.8846   XZ=             44.2149   YZ=              3.0771

 Normal termination of Gaussian 16 at Sat Jul 13 20:59:07 2019.
