 Gaussian 16, Revision A.03,
 Gaussian 16:  ES64L-G16RevA.03 25-Dec-2016

 -------------------------------------
 # td=(NStates=1) CAM-B3LYP/6-31G(d,p)
 -------------------------------------

 --
 TD
 --
 Symbolic Z-matrix:
 Charge =  0 Multiplicity = 1

                         Standard orientation:
 ---------------------------------------------------------------------
 Center     Atomic      Atomic             Coordinates (Angstroms)
 Number     Number       Type             X           Y           Z
 ---------------------------------------------------------------------
      1          8           0      -14.047285   -2.078673    0.597057
      2          8           0       14.776813    1.102351    0.212052
      3          6           0      -11.851168    0.016740    1.341968
      4          6           0      -10.977848    0.274800   -0.022113
      5          6           0      -11.939273   -1.442527    1.495729
      6          6           0      -12.622812   -2.152199    0.346164
      7          6           0      -11.601320   -0.494591   -1.143379
      8          6           0       11.107342    1.004148    1.114137
      9          6           0      -10.946691    0.652750    2.500374
     10          6           0      -13.067113    0.748512    1.225920
     11          6           0       12.437613    1.579248    0.817071
     12          6           0      -12.290570   -1.643087   -1.057292
     13          6           0       13.497811    0.426934    0.406162
     14          6           0       10.563947   -0.058094    0.062663
     15          6           0       -9.522352   -0.063735    0.106788
     16          6           0       12.965289   -0.249275   -0.786093
     17          6           0       11.477398   -0.628813   -0.844927
     18          6           0       10.074496    2.194379    1.010399
     19          6           0       11.065871    0.369315    2.441228
     20          6           0      -11.208208    0.039284   -2.563957
     21          6           0       -8.509253    0.826394   -0.172470
     22          6           0        9.251235   -0.553295    0.135739
     23          6           0       11.245662   -1.572648   -1.927273
     24          6           0       -7.117967    0.549538   -0.130952
     25          6           0        8.772973   -1.801371   -0.028520
     26          6           0       -6.740208   -0.839644    0.151687
     27          6           0        7.454688   -2.182367   -0.088043
     28          6           0       -6.165542    1.607779   -0.347699
     29          6           0        7.150719   -3.672253    0.032957
     30          6           0        6.414523   -1.277709   -0.166357
     31          6           0       -4.822018    1.546086   -0.266827
     32          6           0        5.066902   -1.560465   -0.161162
     33          6           0       -4.020341    2.633670   -0.636356
     34          6           0       -2.631642    2.647775   -0.689270
     35          6           0        4.023171   -0.573050   -0.299418
     36          6           0        2.624296   -0.790428   -0.243246
     37          6           0       -2.085075    4.009486   -1.214397
     38          6           0       -1.780248    1.608801   -0.549735
     39          6           0        1.886128    0.432495   -0.443572
     40          6           0        2.008492   -2.180946   -0.082018
     41          6           0       -0.355248    1.554190   -0.533945
     42          6           0        0.433936    0.418769   -0.358949
     43          1           0      -11.133945    1.399605   -0.188093
     44          1           0      -12.437496   -1.578546    2.335684
     45          1           0      -11.039752   -2.060873    1.873142
     46          1           0      -12.261617   -3.235886    0.351660
     47          1           0      -10.000099    0.126777    2.578323
     48          1           0      -10.880438    1.796869    2.250664
     49          1           0      -11.612355    0.340386    3.350985
     50          1           0      -13.671636    0.512110    0.352224
     51          1           0      -13.651736    0.341465    1.922671
     52          1           0      -12.914814    1.762065    1.238937
     53          1           0       12.122917    2.213348   -0.089102
     54          1           0       12.944506    2.149496    1.723424
     55          1           0      -12.408693   -2.299181   -2.012057
     56          1           0       13.625781   -0.211616    1.336857
     57          1           0       -9.418348   -0.922306    0.385508
     58          1           0       13.633877   -1.028513   -1.247413
     59          1           0       13.260604    0.508183   -1.573510
     60          1           0        9.065698    1.920582    1.437983
     61          1           0        9.955989    2.563908    0.084467
     62          1           0       10.655126    3.091308    1.312519
     63          1           0       11.962555   -0.450696    2.350913
     64          1           0       10.116362    0.003544    2.855195
     65          1           0       11.351106    1.123238    3.111390
     66          1           0      -10.169859    0.320811   -2.676008
     67          1           0      -11.695624    1.070582   -2.967368
     68          1           0      -11.554701   -0.629080   -3.227469
     69          1           0      -14.440876   -2.291775   -0.235780
     70          1           0        8.746806    0.261982    0.289849
     71          1           0       -8.600906    1.904850   -0.652885
     72          1           0       11.631573   -2.767731   -1.666355
     73          1           0       10.250881   -1.811871   -2.281054
     74          1           0       11.578691   -1.393970   -2.965186
     75          1           0       14.925702    1.255845    1.197168
     76          1           0        9.298551   -2.619723    0.124199
     77          1           0       -5.692030   -1.161685    0.409299
     78          1           0       -7.312955   -0.989622    1.215756
     79          1           0       -7.294114   -1.569252   -0.572113
     80          1           0       -6.676331    2.624835   -0.462939
     81          1           0        6.956159   -3.739985    1.057919
     82          1           0        6.237203   -4.248450   -0.527364
     83          1           0        8.044728   -4.356548   -0.289772
     84          1           0        6.590456   -0.235596   -0.559731
     85          1           0       -4.453263    0.462328   -0.354928
     86          1           0        4.472825   -2.481898   -0.269254
     87          1           0       -4.479544    3.539094   -0.785298
     88          1           0        4.379562    0.532623   -0.498267
     89          1           0       -1.412304    3.726215   -2.165068
     90          1           0       -1.267311    4.433336   -0.508793
     91          1           0       -2.626006    4.846558   -1.326964
     92          1           0       -2.402696    0.655795   -0.156716
     93          1           0        2.382617    1.311880   -0.809506
     94          1           0        1.697938   -2.319426    1.268103
     95          1           0        1.019297   -2.288616   -0.919799
     96          1           0        3.117069   -2.708414   -0.539945
     97          1           0        0.132319    2.373919   -0.867538
     98          1           0       -0.089233   -0.389287   -0.077538
 ---------------------------------------------------------------------

 SCF Done:  E(RCAM-B3LYP) =  -1706.79253037     A.U. after   16 cycles

 Excitation energies and oscillator strengths:

 Excited State   1:      Singlet-A      1.8109 eV  684.67 nm  f=3.2007  <S**2>=0.000
     155 ->158        -0.15313
     156 ->157         0.69325
     156 <-157        -0.10015
 This state for optimization and/or second-order correction.
 Total Energy, E(TD-HF/TD-DFT) =  -1706.72598286
 Copying the excited state density for this state as the 1-particle RhoCI density.

 The electronic state is 1-A.
 Alpha  occ. eigenvalues --  -19.21867 -19.20888 -10.32323 -10.31560 -10.31268
 Alpha  occ. eigenvalues --  -10.28286 -10.27697 -10.27577 -10.27481 -10.27446
 Alpha  occ. eigenvalues --  -10.27308 -10.27273 -10.27026 -10.26938 -10.26935
 Alpha  occ. eigenvalues --  -10.26931 -10.26839 -10.26830 -10.26588 -10.26490
 Alpha  occ. eigenvalues --  -10.26484 -10.26439 -10.26399 -10.26375 -10.26171
 Alpha  occ. eigenvalues --  -10.25992 -10.25896 -10.25881 -10.25851 -10.25842
 Alpha  occ. eigenvalues --  -10.25814 -10.25803 -10.25753 -10.25134 -10.25027
 Alpha  occ. eigenvalues --  -10.24962 -10.24899 -10.24621 -10.24576 -10.24469
 Alpha  occ. eigenvalues --  -10.24090 -10.21082  -1.09233  -1.08626  -0.94288
 Alpha  occ. eigenvalues --   -0.94006  -0.92216  -0.92036  -0.90844  -0.90184
 Alpha  occ. eigenvalues --   -0.87823  -0.87553  -0.87038  -0.85869  -0.84898
 Alpha  occ. eigenvalues --   -0.83179  -0.82288  -0.80848  -0.80143  -0.77744
 Alpha  occ. eigenvalues --   -0.77618  -0.76631  -0.76360  -0.75952  -0.75640
 Alpha  occ. eigenvalues --   -0.75156  -0.74715  -0.74319  -0.73073  -0.70835
 Alpha  occ. eigenvalues --   -0.70286  -0.67932  -0.67337  -0.65314  -0.64271
 Alpha  occ. eigenvalues --   -0.63849  -0.63321  -0.62343  -0.60816  -0.59407
 Alpha  occ. eigenvalues --   -0.59251  -0.58713  -0.58367  -0.57488  -0.56420
 Alpha  occ. eigenvalues --   -0.55927  -0.55191  -0.54800  -0.54492  -0.54141
 Alpha  occ. eigenvalues --   -0.53809  -0.53153  -0.52463  -0.52161  -0.51173
 Alpha  occ. eigenvalues --   -0.50797  -0.50463  -0.50372  -0.49861  -0.49610
 Alpha  occ. eigenvalues --   -0.49122  -0.48575  -0.48377  -0.47821  -0.47356
 Alpha  occ. eigenvalues --   -0.47266  -0.47024  -0.46661  -0.46408  -0.46226
 Alpha  occ. eigenvalues --   -0.46066  -0.45568  -0.45256  -0.45223  -0.44854
 Alpha  occ. eigenvalues --   -0.44346  -0.44157  -0.43666  -0.43428  -0.43146
 Alpha  occ. eigenvalues --   -0.42858  -0.42738  -0.42514  -0.42453  -0.42264
 Alpha  occ. eigenvalues --   -0.41965  -0.41795  -0.41533  -0.40937  -0.40830
 Alpha  occ. eigenvalues --   -0.40733  -0.40636  -0.39843  -0.39818  -0.39413
 Alpha  occ. eigenvalues --   -0.39336  -0.39059  -0.38705  -0.38270  -0.37855
 Alpha  occ. eigenvalues --   -0.37574  -0.37268  -0.36933  -0.35962  -0.35910
 Alpha  occ. eigenvalues --   -0.35316  -0.34578  -0.32633  -0.31983  -0.31328
 Alpha  occ. eigenvalues --   -0.30885  -0.29698  -0.29004  -0.26554  -0.22596
 Alpha  occ. eigenvalues --   -0.18486
 Alpha virt. eigenvalues --   -0.06902  -0.02534   0.01914   0.04986   0.06646
 Alpha virt. eigenvalues --    0.07614   0.08187   0.10406   0.10783   0.11920
 Alpha virt. eigenvalues --    0.12125   0.12378   0.12769   0.12903   0.13887

 Mulliken charges:
               1
     1  O   -0.543205
     2  O   -0.551685
     3  C   -0.006696
     4  C   -0.148063
     5  C   -0.180120
     6  C    0.139451
     7  C    0.131757
     8  C   -0.004570
     9  C   -0.288026
    10  C   -0.274443
    11  C   -0.192678
    12  C   -0.177436
    13  C    0.143690
    14  C    0.019345
    15  C   -0.035516
    16  C   -0.246005
    17  C    0.099782
    18  C   -0.337270
    19  C   -0.274316
    20  C   -0.349367
    21  C   -0.098151
    22  C   -0.056130
    23  C   -0.376958
    24  C    0.130462
    25  C   -0.068702
    26  C   -0.381186
    27  C    0.087633
    28  C   -0.122605
    29  C   -0.374995
    30  C   -0.143254
    31  C   -0.078280
    32  C   -0.077559
    33  C   -0.105573
    34  C    0.129033
    35  C   -0.121727
    36  C    0.090706
    37  C   -0.378957
    38  C   -0.140983
    39  C   -0.120535
    40  C   -0.299685
    41  C   -0.074992
    42  C   -0.070748
    43  H    0.073219
    44  H    0.117591
    45  H    0.084223
    46  H    0.068329
    47  H    0.106649
    48  H    0.092365
    49  H    0.088203
    50  H    0.107629
    51  H    0.111696
    52  H    0.099328
    53  H    0.101100
    54  H    0.073813
    55  H    0.092240
    56  H    0.076678
    57  H    0.059271
    58  H    0.110593
    59  H    0.122079
    60  H    0.108779
    61  H    0.120863
    62  H    0.098474
    63  H    0.077471
    64  H    0.109039
    65  H    0.101405
    66  H    0.123093
    67  H    0.082397
    68  H    0.109414
    69  H    0.301845
    70  H    0.063572
    71  H    0.078332
    72  H    0.076647
    73  H    0.121538
    74  H    0.113759
    75  H    0.310557
    76  H    0.073184
    77  H    0.113449
    78  H    0.099431
    79  H    0.118728
    80  H    0.070660
    81  H    0.146824
    82  H    0.102121
    83  H    0.100499
    84  H    0.092269
    85  H    0.090169
    86  H    0.068297
    87  H    0.083283
    88  H    0.069920
    89  H    0.107243
    90  H    0.100393
    91  H    0.117283
    92  H    0.059087
    93  H    0.092639
    94  H    0.098424
    95  H    0.109718
    96  H    0.087467
    97  H    0.071450
    98  H    0.073825
 Sum of Mulliken charges =  -0.00000

 Dipole moment (field-independent basis, Debye):
    X=              0.3394    Y=             -0.7736    Z=             -0.4293  Tot=              0.9476
 Quadrupole moment (field-independent basis, Debye-Ang):
   XX=           -291.2221   YY=           -246.2710   ZZ=           -260.9180
   XY=              0.5344   XZ=             34.4581   YZ=              1.8521

 Normal termination of Gaussian 16 at Sat Jul 13 07:41:38 2019.
