 Gaussian 16, Revision A.03,
 Gaussian 16:  ES64L-G16RevA.03 25-Dec-2016

 -------------------------------------
 # td=(NStates=1) CAM-B3LYP/6-31G(d,p)
 -------------------------------------

 --
 TD
 --
 Symbolic Z-matrix:
 Charge =  0 Multiplicity = 1

                         Standard orientation:
 ---------------------------------------------------------------------
 Center     Atomic      Atomic             Coordinates (Angstroms)
 Number     Number       Type             X           Y           Z
 ---------------------------------------------------------------------
      1          8           0      -14.036371   -2.152513    0.394531
      2          8           0       14.906553    0.831043    0.360877
      3          6           0      -11.728250   -0.138033    1.291888
      4          6           0      -10.991758    0.227833    0.032600
      5          6           0      -11.836669   -1.623337    1.276591
      6          6           0      -12.654124   -2.167723    0.082805
      7          6           0      -11.665157   -0.297473   -1.163242
      8          6           0       11.154676    0.818508    1.156135
      9          6           0      -11.082011    0.373997    2.592294
     10          6           0      -13.156944    0.694588    1.309564
     11          6           0       12.572474    1.332490    0.991839
     12          6           0      -12.305483   -1.459453   -1.107613
     13          6           0       13.556155    0.296801    0.445634
     14          6           0       10.713664   -0.051564   -0.020164
     15          6           0       -9.536830   -0.076981    0.093425
     16          6           0       13.087812   -0.179716   -0.895389
     17          6           0       11.563655   -0.462017   -0.978562
     18          6           0       10.192655    2.088253    1.221687
     19          6           0       10.997989    0.108637    2.471546
     20          6           0      -11.320736    0.486637   -2.415640
     21          6           0       -8.523193    0.800688    0.075325
     22          6           0        9.300377   -0.449253    0.011667
     23          6           0       11.278059   -1.272748   -2.226177
     24          6           0       -7.134857    0.476716   -0.001495
     25          6           0        8.690797   -1.690164   -0.365897
     26          6           0       -6.816630   -1.006984    0.039631
     27          6           0        7.364609   -2.026622   -0.213831
     28          6           0       -6.250463    1.510634   -0.295443
     29          6           0        7.075896   -3.529980    0.161132
     30          6           0        6.370775   -1.164903   -0.375367
     31          6           0       -4.844828    1.353046   -0.463534
     32          6           0        4.983484   -1.362219   -0.213961
     33          6           0       -4.036814    2.492589   -0.536572
     34          6           0       -2.688924    2.609954   -0.616861
     35          6           0        4.088975   -0.459751   -0.389564
     36          6           0        2.625827   -0.631498   -0.280902
     37          6           0       -2.164949    3.996890   -0.888662
     38          6           0       -1.777722    1.566335   -0.405863
     39          6           0        1.807965    0.438192   -0.652958
     40          6           0        2.150200   -1.981810    0.290678
     41          6           0       -0.393445    1.585346   -0.649906
     42          6           0        0.407618    0.423129   -0.291921
     43          1           0      -10.984215    1.319031    0.230243
     44          1           0      -12.539783   -1.725524    2.093453
     45          1           0      -11.059072   -1.947079    1.200003
     46          1           0      -12.389234   -3.178910   -0.074615
     47          1           0       -9.935756   -0.067586    2.627063
     48          1           0      -10.990387    1.432757    2.338657
     49          1           0      -11.749946    0.139300    3.392068
     50          1           0      -13.638561    0.402822    0.412137
     51          1           0      -13.824919    0.425337    2.114376
     52          1           0      -12.724801    1.646355    1.569656
     53          1           0       12.563734    2.076155    0.241531
     54          1           0       12.748727    1.850221    1.900414
     55          1           0      -12.689292   -1.889710   -2.066778
     56          1           0       13.680265   -0.665034    1.086555
     57          1           0       -9.226021   -1.154061   -0.009620
     58          1           0       13.623621   -1.193779   -1.221288
     59          1           0       13.707940    0.588117   -1.569981
     60          1           0        9.132405    1.868410    1.616012
     61          1           0       10.088930    2.362923    0.056559
     62          1           0       10.386525    2.753039    2.122564
     63          1           0       11.789693   -0.755214    2.659366
     64          1           0        9.908193   -0.416070    2.555061
     65          1           0       11.247560    0.760988    3.142557
     66          1           0      -10.265159    0.379688   -2.664708
     67          1           0      -11.637657    1.587656   -2.310360
     68          1           0      -11.870185    0.062415   -3.252114
     69          1           0      -14.489943   -2.269788   -0.556931
     70          1           0        8.696222    0.248945    0.520614
     71          1           0       -8.641146    1.985144    0.060136
     72          1           0       11.716716   -2.136672   -2.229989
     73          1           0       10.291994   -1.183253   -2.840124
     74          1           0       11.892539   -0.754417   -2.930895
     75          1           0       15.267117    0.810636    1.353077
     76          1           0        9.349962   -2.411286   -0.757817
     77          1           0       -5.685185   -1.138923   -0.142545
     78          1           0       -7.186454   -1.419053    0.940919
     79          1           0       -7.328015   -1.553412   -0.646785
     80          1           0       -6.591442    2.497260   -0.265845
     81          1           0        6.760238   -3.689144    1.040943
     82          1           0        6.086672   -3.746769   -0.349117
     83          1           0        7.962959   -4.210472   -0.085527
     84          1           0        6.787588   -0.068311   -0.508034
     85          1           0       -4.548974    0.499910   -0.286698
     86          1           0        4.536583   -2.222722    0.102147
     87          1           0       -4.540936    3.455272   -0.748253
     88          1           0        4.485115    0.491345   -0.901824
     89          1           0       -1.424827    4.102891   -1.606571
     90          1           0       -1.417291    4.460725   -0.096523
     91          1           0       -2.974752    4.690227   -1.239934
     92          1           0       -2.170290    0.656550   -0.189132
     93          1           0        2.347907    1.382595   -0.914163
     94          1           0        2.152230   -1.984082    1.491551
     95          1           0        1.075123   -1.825608   -0.283978
     96          1           0        2.831450   -2.681944   -0.237642
     97          1           0        0.066293    2.547970   -0.937225
     98          1           0       -0.064760   -0.518307    0.444599
 ---------------------------------------------------------------------

 SCF Done:  E(RCAM-B3LYP) =  -1706.84881559     A.U. after   15 cycles

 Excitation energies and oscillator strengths:

 Excited State   1:      Singlet-A      2.1275 eV  582.77 nm  f=2.9353  <S**2>=0.000
     155 ->158        -0.13552
     156 ->157         0.69669
     156 <-157        -0.10003
 This state for optimization and/or second-order correction.
 Total Energy, E(TD-HF/TD-DFT) =  -1706.77063088
 Copying the excited state density for this state as the 1-particle RhoCI density.

 The electronic state is 1-A.
 Alpha  occ. eigenvalues --  -19.21832 -19.21815 -10.31095 -10.29535 -10.28889
 Alpha  occ. eigenvalues --  -10.28317 -10.27902 -10.27563 -10.27477 -10.27321
 Alpha  occ. eigenvalues --  -10.27297 -10.27096 -10.27074 -10.26923 -10.26797
 Alpha  occ. eigenvalues --  -10.26689 -10.26494 -10.26330 -10.26154 -10.26090
 Alpha  occ. eigenvalues --  -10.26081 -10.25990 -10.25806 -10.25778 -10.25762
 Alpha  occ. eigenvalues --  -10.25630 -10.25618 -10.25491 -10.25227 -10.25120
 Alpha  occ. eigenvalues --  -10.25119 -10.25084 -10.25079 -10.24975 -10.24922
 Alpha  occ. eigenvalues --  -10.24901 -10.24546 -10.24374 -10.24368 -10.24285
 Alpha  occ. eigenvalues --  -10.22810 -10.21104  -1.08503  -1.07221  -0.94996
 Alpha  occ. eigenvalues --   -0.93849  -0.92511  -0.92295  -0.90802  -0.90173
 Alpha  occ. eigenvalues --   -0.87485  -0.87158  -0.86964  -0.85857  -0.84500
 Alpha  occ. eigenvalues --   -0.83788  -0.82613  -0.80573  -0.80405  -0.78170
 Alpha  occ. eigenvalues --   -0.77609  -0.77486  -0.76852  -0.76043  -0.75931
 Alpha  occ. eigenvalues --   -0.75687  -0.74857  -0.73910  -0.73157  -0.71464
 Alpha  occ. eigenvalues --   -0.69906  -0.68528  -0.66469  -0.64539  -0.64257
 Alpha  occ. eigenvalues --   -0.64174  -0.62693  -0.61942  -0.61239  -0.60324
 Alpha  occ. eigenvalues --   -0.59573  -0.58722  -0.58096  -0.57699  -0.56440
 Alpha  occ. eigenvalues --   -0.55834  -0.55148  -0.54980  -0.54371  -0.54190
 Alpha  occ. eigenvalues --   -0.53653  -0.53066  -0.52226  -0.51417  -0.51015
 Alpha  occ. eigenvalues --   -0.50905  -0.50604  -0.50328  -0.49986  -0.49790
 Alpha  occ. eigenvalues --   -0.49130  -0.48992  -0.48510  -0.48332  -0.47979
 Alpha  occ. eigenvalues --   -0.47562  -0.47220  -0.47055  -0.46660  -0.46238
 Alpha  occ. eigenvalues --   -0.46034  -0.45892  -0.45470  -0.45408  -0.45118
 Alpha  occ. eigenvalues --   -0.44900  -0.44774  -0.44491  -0.44301  -0.43954
 Alpha  occ. eigenvalues --   -0.43723  -0.43350  -0.42915  -0.42594  -0.42195
 Alpha  occ. eigenvalues --   -0.41946  -0.41704  -0.41365  -0.41119  -0.41044
 Alpha  occ. eigenvalues --   -0.40510  -0.40439  -0.40334  -0.39941  -0.39465
 Alpha  occ. eigenvalues --   -0.39105  -0.38692  -0.38589  -0.37641  -0.37272
 Alpha  occ. eigenvalues --   -0.36892  -0.36724  -0.36357  -0.36152  -0.35614
 Alpha  occ. eigenvalues --   -0.34540  -0.34075  -0.32722  -0.32169  -0.32001
 Alpha  occ. eigenvalues --   -0.31686  -0.30263  -0.29720  -0.26817  -0.23629
 Alpha  occ. eigenvalues --   -0.19375
 Alpha virt. eigenvalues --   -0.06076  -0.00993   0.02550   0.05392   0.06689
 Alpha virt. eigenvalues --    0.08985   0.09961   0.10482   0.11615   0.11999
 Alpha virt. eigenvalues --    0.12197   0.12501   0.13417   0.14057   0.14270

 Mulliken charges:
               1
     1  O   -0.552655
     2  O   -0.573928
     3  C   -0.052323
     4  C   -0.131000
     5  C   -0.081954
     6  C    0.149056
     7  C    0.133309
     8  C   -0.030671
     9  C   -0.283361
    10  C   -0.295830
    11  C   -0.166311
    12  C   -0.156725
    13  C    0.165280
    14  C    0.079942
    15  C   -0.102352
    16  C   -0.240764
    17  C    0.035866
    18  C   -0.318233
    19  C   -0.271461
    20  C   -0.354049
    21  C   -0.077955
    22  C   -0.116675
    23  C   -0.369865
    24  C    0.102525
    25  C   -0.126638
    26  C   -0.379329
    27  C    0.105363
    28  C   -0.126407
    29  C   -0.360264
    30  C   -0.132236
    31  C   -0.015940
    32  C   -0.055492
    33  C   -0.144227
    34  C    0.133450
    35  C   -0.092845
    36  C    0.055959
    37  C   -0.394771
    38  C   -0.101122
    39  C   -0.114906
    40  C   -0.350163
    41  C   -0.092789
    42  C   -0.119873
    43  H    0.076742
    44  H    0.105229
    45  H    0.049858
    46  H    0.077257
    47  H    0.075695
    48  H    0.093756
    49  H    0.111825
    50  H    0.112776
    51  H    0.101530
    52  H    0.089716
    53  H    0.110304
    54  H    0.085123
    55  H    0.063232
    56  H    0.066915
    57  H    0.075214
    58  H    0.092206
    59  H    0.115028
    60  H    0.095636
    61  H    0.108589
    62  H    0.101433
    63  H    0.077303
    64  H    0.095246
    65  H    0.105999
    66  H    0.132075
    67  H    0.112080
    68  H    0.103026
    69  H    0.301699
    70  H    0.080337
    71  H    0.070127
    72  H    0.129743
    73  H    0.114969
    74  H    0.121333
    75  H    0.311881
    76  H    0.089367
    77  H    0.097090
    78  H    0.129886
    79  H    0.137479
    80  H    0.078358
    81  H    0.139554
    82  H    0.102095
    83  H    0.103301
    84  H    0.075277
    85  H    0.046898
    86  H    0.060416
    87  H    0.074996
    88  H    0.064645
    89  H    0.128473
    90  H    0.106264
    91  H    0.105660
    92  H    0.070337
    93  H    0.098580
    94  H    0.124636
    95  H    0.106535
    96  H    0.124896
    97  H    0.089481
    98  H    0.104265
 Sum of Mulliken charges =  -0.00000

 Dipole moment (field-independent basis, Debye):
    X=              1.5218    Y=             -0.7098    Z=             -0.1713  Tot=              1.6879
 Quadrupole moment (field-independent basis, Debye-Ang):
   XX=           -283.0747   YY=           -249.1331   ZZ=           -258.8913
   XY=             -6.7704   XZ=             43.8409   YZ=              2.7549

 Normal termination of Gaussian 16 at Fri Jul 12 17:40:08 2019.
