 Gaussian 16, Revision A.03,
 Gaussian 16:  ES64L-G16RevA.03 25-Dec-2016

 -------------------------------------
 # td=(NStates=1) CAM-B3LYP/6-31G(d,p)
 -------------------------------------

 --
 TD
 --
 Symbolic Z-matrix:
 Charge =  0 Multiplicity = 1

                         Standard orientation:
 ---------------------------------------------------------------------
 Center     Atomic      Atomic             Coordinates (Angstroms)
 Number     Number       Type             X           Y           Z
 ---------------------------------------------------------------------
      1          8           0      -14.201617   -1.880587    0.385901
      2          8           0       14.861892    0.731524    0.041700
      3          6           0      -11.741892   -0.050558    1.294998
      4          6           0      -10.931477    0.291196   -0.100554
      5          6           0      -12.045187   -1.543179    1.327749
      6          6           0      -12.831694   -2.128751    0.190992
      7          6           0      -11.726020   -0.420844   -1.176238
      8          6           0       11.284362    0.894899    1.028077
      9          6           0      -10.838233    0.330649    2.492063
     10          6           0      -13.040963    0.781945    1.363637
     11          6           0       12.669463    1.317594    0.786516
     12          6           0      -12.389512   -1.491880   -1.150838
     13          6           0       13.586653    0.163602    0.267057
     14          6           0       10.718912   -0.074393   -0.080948
     15          6           0       -9.505405   -0.088343   -0.167078
     16          6           0       12.941667   -0.308723   -1.077933
     17          6           0       11.490938   -0.603335   -0.979986
     18          6           0       10.361807    2.163819    1.162691
     19          6           0       11.130954    0.219213    2.433425
     20          6           0      -11.381677    0.334661   -2.455443
     21          6           0       -8.423231    0.746767   -0.276159
     22          6           0        9.257457   -0.421149    0.038066
     23          6           0       11.046606   -1.213826   -2.310848
     24          6           0       -7.130570    0.405480   -0.245783
     25          6           0        8.760652   -1.704766   -0.098958
     26          6           0       -6.737174   -1.028680   -0.057451
     27          6           0        7.391650   -1.972076   -0.141253
     28          6           0       -6.111715    1.469666   -0.454115
     29          6           0        7.011865   -3.437523    0.291849
     30          6           0        6.379895   -1.080273   -0.136620
     31          6           0       -4.732915    1.534233   -0.341399
     32          6           0        5.009414   -1.452673    0.006489
     33          6           0       -3.926265    2.648070   -0.455621
     34          6           0       -2.597455    2.761956   -0.458557
     35          6           0        3.948429   -0.542728   -0.365845
     36          6           0        2.612125   -0.790917   -0.075372
     37          6           0       -1.991746    4.075072   -0.748600
     38          6           0       -1.817881    1.593050   -0.269546
     39          6           0        1.684373    0.315699   -0.310122
     40          6           0        2.149859   -2.166570    0.214028
     41          6           0       -0.476808    1.615208   -0.195783
     42          6           0        0.374191    0.384667   -0.267501
     43          1           0      -11.283670    1.431504   -0.253683
     44          1           0      -12.559385   -2.127088    2.367700
     45          1           0      -11.071321   -2.257907    1.259460
     46          1           0      -12.619919   -3.259652    0.221545
     47          1           0       -9.889014   -0.501867    2.602240
     48          1           0      -10.453481    1.337799    2.246802
     49          1           0      -11.212441    0.092889    3.687465
     50          1           0      -13.695614    0.626226    0.314207
     51          1           0      -13.549930    0.209455    2.198326
     52          1           0      -12.825510    1.718121    1.545431
     53          1           0       12.685842    2.380805    0.316631
     54          1           0       13.165348    1.727787    1.850156
     55          1           0      -13.091559   -1.851953   -2.159404
     56          1           0       13.629129   -0.527481    1.049285
     57          1           0       -9.102602   -1.187097   -0.154546
     58          1           0       13.298334   -1.232941   -1.339968
     59          1           0       13.298448    0.364110   -1.864960
     60          1           0        9.375080    2.223443    1.537930
     61          1           0       10.349813    2.681915    0.272916
     62          1           0       10.897003    2.818305    1.846274
     63          1           0       11.616520   -0.888561    2.218028
     64          1           0        9.909906   -0.253174    2.369081
     65          1           0       11.278437    0.762714    3.232697
     66          1           0      -10.235324    0.116453   -2.625580
     67          1           0      -11.681418    1.411388   -2.111526
     68          1           0      -11.730962   -0.048283   -3.565873
     69          1           0      -14.725148   -2.104726   -0.309912
     70          1           0        8.542168    0.576192    0.258012
     71          1           0       -8.499720    1.950249   -0.396334
     72          1           0       11.366747   -2.305085   -2.641497
     73          1           0        9.947092   -1.197430   -2.371835
     74          1           0       11.442774   -0.568749   -3.056562
     75          1           0       15.161993    1.097663    0.814877
     76          1           0        9.440410   -2.430455   -0.104673
     77          1           0       -5.681246   -0.971758   -0.118923
     78          1           0       -7.087133   -1.367186    0.949463
     79          1           0       -7.329206   -1.429431   -0.893974
     80          1           0       -6.576966    2.596543   -0.764362
     81          1           0        6.395438   -3.542079    1.221772
     82          1           0        6.190985   -3.735342   -0.404185
     83          1           0        8.012464   -4.053663    0.236367
     84          1           0        6.706626    0.051127   -0.523290
     85          1           0       -4.292398    0.596865   -0.200254
     86          1           0        4.810572   -2.501249    0.331678
     87          1           0       -4.454411    3.555197   -0.885899
     88          1           0        4.029769    0.628686   -0.656425
     89          1           0       -1.358851    3.922283   -1.709237
     90          1           0       -1.271819    4.591020    0.118630
     91          1           0       -2.821949    4.682607   -0.768588
     92          1           0       -2.394858    0.718546   -0.142559
     93          1           0        2.115882    1.246157   -0.173323
     94          1           0        2.847981   -2.577068    1.041960
     95          1           0        0.952967   -2.412251    0.667502
     96          1           0        2.118615   -2.780088   -0.622013
     97          1           0        0.250324    2.503662   -0.195306
     98          1           0       -0.223719   -0.472195   -0.177078
 ---------------------------------------------------------------------

 SCF Done:  E(RCAM-B3LYP) =  -1706.76804363     A.U. after   19 cycles

 Excitation energies and oscillator strengths:

 Excited State   1:      Singlet-A      1.3876 eV  893.53 nm  f=2.8103  <S**2>=0.000
     156 ->157         0.73367
     156 <-157        -0.22448
 This state for optimization and/or second-order correction.
 Total Energy, E(TD-HF/TD-DFT) =  -1706.71705113
 Copying the excited state density for this state as the 1-particle RhoCI density.

 The electronic state is 1-A.
 Alpha  occ. eigenvalues --  -19.20410 -19.20171 -10.31067 -10.30757 -10.28741
 Alpha  occ. eigenvalues --  -10.28459 -10.28147 -10.28048 -10.27974 -10.27926
 Alpha  occ. eigenvalues --  -10.27862 -10.27773 -10.27675 -10.27581 -10.27465
 Alpha  occ. eigenvalues --  -10.27450 -10.27352 -10.27275 -10.27251 -10.26778
 Alpha  occ. eigenvalues --  -10.26707 -10.26638 -10.26628 -10.26559 -10.26533
 Alpha  occ. eigenvalues --  -10.26429 -10.26325 -10.26264 -10.26226 -10.26155
 Alpha  occ. eigenvalues --  -10.26123 -10.25975 -10.25971 -10.25819 -10.25714
 Alpha  occ. eigenvalues --  -10.25698 -10.25565 -10.25476 -10.25265 -10.24744
 Alpha  occ. eigenvalues --  -10.24259 -10.23518  -1.10701  -1.10681  -0.93964
 Alpha  occ. eigenvalues --   -0.93857  -0.93304  -0.91934  -0.91478  -0.90712
 Alpha  occ. eigenvalues --   -0.87761  -0.87389  -0.86619  -0.85559  -0.84606
 Alpha  occ. eigenvalues --   -0.83552  -0.82034  -0.80580  -0.80243  -0.78924
 Alpha  occ. eigenvalues --   -0.76870  -0.76815  -0.75796  -0.75683  -0.75405
 Alpha  occ. eigenvalues --   -0.75017  -0.74094  -0.73818  -0.72296  -0.70760
 Alpha  occ. eigenvalues --   -0.69658  -0.67958  -0.67375  -0.66183  -0.63778
 Alpha  occ. eigenvalues --   -0.63178  -0.62664  -0.60583  -0.60380  -0.59642
 Alpha  occ. eigenvalues --   -0.59618  -0.58342  -0.57910  -0.57366  -0.56881
 Alpha  occ. eigenvalues --   -0.55733  -0.55042  -0.54719  -0.54291  -0.53544
 Alpha  occ. eigenvalues --   -0.53104  -0.52537  -0.52507  -0.52069  -0.51313
 Alpha  occ. eigenvalues --   -0.50718  -0.50205  -0.50187  -0.49984  -0.49694
 Alpha  occ. eigenvalues --   -0.48878  -0.48780  -0.48560  -0.48404  -0.47877
 Alpha  occ. eigenvalues --   -0.47627  -0.47223  -0.47090  -0.46507  -0.46146
 Alpha  occ. eigenvalues --   -0.45886  -0.45663  -0.45574  -0.45064  -0.45006
 Alpha  occ. eigenvalues --   -0.44520  -0.44061  -0.43807  -0.43305  -0.43176
 Alpha  occ. eigenvalues --   -0.42786  -0.42318  -0.42272  -0.42147  -0.41673
 Alpha  occ. eigenvalues --   -0.41213  -0.40927  -0.40515  -0.40493  -0.40418
 Alpha  occ. eigenvalues --   -0.40115  -0.39879  -0.39368  -0.39033  -0.38527
 Alpha  occ. eigenvalues --   -0.38376  -0.38237  -0.37910  -0.37457  -0.37146
 Alpha  occ. eigenvalues --   -0.36957  -0.36855  -0.36641  -0.35831  -0.35299
 Alpha  occ. eigenvalues --   -0.34953  -0.34152  -0.33403  -0.32306  -0.31904
 Alpha  occ. eigenvalues --   -0.31509  -0.31066  -0.30117  -0.26983  -0.23981
 Alpha  occ. eigenvalues --   -0.16987
 Alpha virt. eigenvalues --   -0.09121  -0.01575   0.01951   0.06063   0.07864
 Alpha virt. eigenvalues --    0.08823   0.10531   0.11006   0.11115   0.11615
 Alpha virt. eigenvalues --    0.12022   0.12629   0.12939   0.13247   0.13467

 Mulliken charges:
               1
     1  O   -0.527912
     2  O   -0.551362
     3  C    0.029465
     4  C   -0.146090
     5  C   -0.166254
     6  C    0.156194
     7  C    0.126047
     8  C    0.013425
     9  C   -0.278130
    10  C   -0.272698
    11  C   -0.209205
    12  C   -0.154023
    13  C    0.171469
    14  C    0.073520
    15  C   -0.105811
    16  C   -0.218536
    17  C    0.021835
    18  C   -0.332541
    19  C   -0.263356
    20  C   -0.318829
    21  C   -0.040875
    22  C   -0.129596
    23  C   -0.360918
    24  C    0.078216
    25  C   -0.084097
    26  C   -0.358380
    27  C    0.099345
    28  C   -0.140198
    29  C   -0.380325
    30  C   -0.095675
    31  C   -0.056425
    32  C   -0.125049
    33  C   -0.146991
    34  C    0.125088
    35  C   -0.107746
    36  C    0.119210
    37  C   -0.355047
    38  C   -0.088535
    39  C   -0.128251
    40  C   -0.362856
    41  C   -0.107827
    42  C   -0.073795
    43  H    0.094003
    44  H    0.073632
    45  H    0.075375
    46  H    0.063866
    47  H    0.067227
    48  H    0.105781
    49  H    0.078098
    50  H    0.089423
    51  H    0.116059
    52  H    0.104032
    53  H    0.100744
    54  H    0.037618
    55  H    0.050863
    56  H    0.096713
    57  H    0.091929
    58  H    0.117726
    59  H    0.128998
    60  H    0.111874
    61  H    0.109540
    62  H    0.093599
    63  H    0.079068
    64  H    0.066039
    65  H    0.111352
    66  H    0.115666
    67  H    0.098435
    68  H    0.083292
    69  H    0.292350
    70  H    0.087433
    71  H    0.068072
    72  H    0.094738
    73  H    0.118488
    74  H    0.123700
    75  H    0.296465
    76  H    0.086798
    77  H    0.111426
    78  H    0.129045
    79  H    0.131509
    80  H    0.052986
    81  H    0.126107
    82  H    0.117630
    83  H    0.096647
    84  H    0.069625
    85  H    0.077646
    86  H    0.093077
    87  H    0.075009
    88  H    0.087920
    89  H    0.124067
    90  H    0.094874
    91  H    0.115981
    92  H    0.084250
    93  H    0.074008
    94  H    0.113187
    95  H    0.072927
    96  H    0.145782
    97  H    0.084060
    98  H    0.066759
 Sum of Mulliken charges =  -0.00000

 Dipole moment (field-independent basis, Debye):
    X=              0.8707    Y=             -0.5678    Z=             -0.1601  Tot=              1.0517
 Quadrupole moment (field-independent basis, Debye-Ang):
   XX=           -280.6478   YY=           -246.8294   ZZ=           -265.0150
   XY=              8.1515   XZ=             31.1288   YZ=              2.4393

 Normal termination of Gaussian 16 at Fri Jul 12 16:13:57 2019.
