 Gaussian 16, Revision A.03,
 Gaussian 16:  ES64L-G16RevA.03 25-Dec-2016

 -------------------------------------
 # td=(NStates=1) CAM-B3LYP/6-31G(d,p)
 -------------------------------------

 --
 TD
 --
 Symbolic Z-matrix:
 Charge =  0 Multiplicity = 1

                         Standard orientation:
 ---------------------------------------------------------------------
 Center     Atomic      Atomic             Coordinates (Angstroms)
 Number     Number       Type             X           Y           Z
 ---------------------------------------------------------------------
      1          8           0      -14.113630   -1.991881    0.592872
      2          8           0       14.839171    0.982289    0.005259
      3          6           0      -11.815606    0.009276    1.278696
      4          6           0      -10.964712    0.328017   -0.113919
      5          6           0      -11.983719   -1.525909    1.380047
      6          6           0      -12.733454   -2.127716    0.262137
      7          6           0      -11.716217   -0.410420   -1.234939
      8          6           0       11.168004    0.975564    1.073742
      9          6           0      -10.927708    0.638115    2.353823
     10          6           0      -13.044982    0.777236    1.332371
     11          6           0       12.605741    1.503600    0.811664
     12          6           0      -12.418810   -1.483682   -1.116363
     13          6           0       13.467191    0.408473    0.291105
     14          6           0       10.682487   -0.015973   -0.010596
     15          6           0       -9.498956   -0.037524    0.021925
     16          6           0       12.908378   -0.218027   -1.001294
     17          6           0       11.410299   -0.554462   -0.961883
     18          6           0       10.233193    2.140280    1.107286
     19          6           0       11.132271    0.346785    2.495699
     20          6           0      -11.365645    0.130421   -2.579182
     21          6           0       -8.527855    0.858050    0.010293
     22          6           0        9.282819   -0.525157    0.167962
     23          6           0       11.081389   -1.472358   -2.119275
     24          6           0       -7.127263    0.568175   -0.087263
     25          6           0        8.872237   -1.781377   -0.109463
     26          6           0       -6.607410   -0.831663    0.279523
     27          6           0        7.489605   -2.108057    0.008108
     28          6           0       -6.231606    1.521597   -0.447600
     29          6           0        7.064942   -3.518360    0.079816
     30          6           0        6.379655   -1.211653   -0.158586
     31          6           0       -4.811620    1.439664   -0.419737
     32          6           0        4.990754   -1.460731   -0.060751
     33          6           0       -4.005282    2.569347   -0.699526
     34          6           0       -2.574131    2.572314   -0.777170
     35          6           0        3.967879   -0.567802   -0.223539
     36          6           0        2.599598   -0.770073   -0.136061
     37          6           0       -1.946593    3.894118   -1.056254
     38          6           0       -1.760572    1.506313   -0.440731
     39          6           0        1.799935    0.285170   -0.330945
     40          6           0        2.221503   -2.208961    0.104563
     41          6           0       -0.369192    1.493449   -0.477238
     42          6           0        0.430019    0.314933   -0.328101
     43          1           0      -11.025650    1.244775   -0.200847
     44          1           0      -12.553138   -1.698825    2.285888
     45          1           0      -11.056487   -2.107163    1.450926
     46          1           0      -12.477834   -3.186973    0.073985
     47          1           0       -9.995591   -0.211855    2.512192
     48          1           0      -10.569708    1.638696    2.341735
     49          1           0      -11.421717    0.613531    3.278943
     50          1           0      -13.870905    0.529708    0.548072
     51          1           0      -13.563210    0.661439    2.343468
     52          1           0      -12.965881    1.869004    1.370913
     53          1           0       12.308117    2.188976    0.019180
     54          1           0       12.797512    2.082877    1.599897
     55          1           0      -12.715812   -1.953243   -1.923184
     56          1           0       13.505785   -0.410734    1.149633
     57          1           0       -9.321606   -1.179252    0.215213
     58          1           0       13.463129   -0.986669   -1.249195
     59          1           0       13.094860    0.715731   -1.630010
     60          1           0        9.233014    2.109986    1.506412
     61          1           0        9.974236    2.777537    0.240178
     62          1           0       10.655939    2.891172    1.861495
     63          1           0       12.039845   -0.553332    2.538485
     64          1           0       10.102687    0.053674    2.702072
     65          1           0       11.570720    1.004910    3.347203
     66          1           0      -10.320858    0.140730   -2.730443
     67          1           0      -11.953445    1.186609   -2.704047
     68          1           0      -11.981540   -0.688633   -3.292681
     69          1           0      -14.585881   -2.149811   -0.280508
     70          1           0        8.745265    0.102227    0.893931
     71          1           0       -8.835468    1.864908   -0.497174
     72          1           0       11.264623   -2.625031   -1.625173
     73          1           0        9.988329   -1.370739   -2.416796
     74          1           0       11.538619   -1.168921   -3.146536
     75          1           0       15.213505    1.082260    1.013757
     76          1           0        9.516429   -2.657282   -0.448668
     77          1           0       -5.542407   -0.975128    0.561549
     78          1           0       -7.082910   -1.163015    1.280745
     79          1           0       -6.700330   -1.620777   -0.743897
     80          1           0       -6.731330    2.483724   -0.568588
     81          1           0        6.384124   -3.718624    1.036142
     82          1           0        6.326378   -3.818454   -0.821045
     83          1           0        7.800991   -4.246970   -0.063335
     84          1           0        6.652419   -0.241670   -0.442001
     85          1           0       -4.375336    0.479425    0.001489
     86          1           0        4.645610   -2.346920    0.204054
     87          1           0       -4.541827    3.542856   -0.829746
     88          1           0        4.241309    0.616366   -0.163530
     89          1           0       -1.506369    4.201990   -2.070217
     90          1           0       -1.011061    3.970953   -0.330461
     91          1           0       -2.646982    4.783255   -0.779826
     92          1           0       -2.318198    0.457011   -0.377569
     93          1           0        2.181438    1.211960   -0.617948
     94          1           0        1.981627   -2.123637    1.553406
     95          1           0        1.197936   -2.616423   -0.492898
     96          1           0        3.211941   -2.953617   -0.224770
     97          1           0        0.011313    2.384801   -0.847277
     98          1           0        0.080076   -0.746613   -0.207715
 ---------------------------------------------------------------------

 SCF Done:  E(RCAM-B3LYP) =  -1706.85108544     A.U. after   15 cycles

 Excitation energies and oscillator strengths:

 Excited State   1:      Singlet-A      1.9683 eV  629.91 nm  f=3.0277  <S**2>=0.000
     155 ->158        -0.14985
     156 ->157         0.69385
 This state for optimization and/or second-order correction.
 Total Energy, E(TD-HF/TD-DFT) =  -1706.77875191
 Copying the excited state density for this state as the 1-particle RhoCI density.

 The electronic state is 1-A.
 Alpha  occ. eigenvalues --  -19.21889 -19.21408 -10.31824 -10.31472 -10.30441
 Alpha  occ. eigenvalues --  -10.28271 -10.28148 -10.27995 -10.27428 -10.27414
 Alpha  occ. eigenvalues --  -10.27341 -10.27173 -10.27144 -10.27125 -10.27105
 Alpha  occ. eigenvalues --  -10.27054 -10.26994 -10.26956 -10.26898 -10.26708
 Alpha  occ. eigenvalues --  -10.26680 -10.26586 -10.26573 -10.26517 -10.26426
 Alpha  occ. eigenvalues --  -10.26383 -10.26128 -10.25995 -10.25968 -10.25737
 Alpha  occ. eigenvalues --  -10.25648 -10.25225 -10.25037 -10.24951 -10.24818
 Alpha  occ. eigenvalues --  -10.24689 -10.24679 -10.24678 -10.24479 -10.24176
 Alpha  occ. eigenvalues --  -10.23813 -10.23545  -1.08990  -1.05207  -0.94079
 Alpha  occ. eigenvalues --   -0.93707  -0.92949  -0.91645  -0.90667  -0.90225
 Alpha  occ. eigenvalues --   -0.87817  -0.87814  -0.87065  -0.85881  -0.84681
 Alpha  occ. eigenvalues --   -0.83281  -0.82208  -0.80627  -0.79805  -0.78036
 Alpha  occ. eigenvalues --   -0.76305  -0.76286  -0.76202  -0.75408  -0.75300
 Alpha  occ. eigenvalues --   -0.75238  -0.74621  -0.73797  -0.72672  -0.70341
 Alpha  occ. eigenvalues --   -0.68570  -0.68017  -0.66754  -0.65381  -0.64264
 Alpha  occ. eigenvalues --   -0.62778  -0.62443  -0.62092  -0.60129  -0.59730
 Alpha  occ. eigenvalues --   -0.59659  -0.58726  -0.57575  -0.57539  -0.56692
 Alpha  occ. eigenvalues --   -0.56189  -0.55691  -0.54903  -0.53718  -0.53565
 Alpha  occ. eigenvalues --   -0.53209  -0.52731  -0.52556  -0.52228  -0.50885
 Alpha  occ. eigenvalues --   -0.50584  -0.49782  -0.49505  -0.49337  -0.49216
 Alpha  occ. eigenvalues --   -0.48952  -0.48292  -0.47962  -0.47797  -0.47349
 Alpha  occ. eigenvalues --   -0.47060  -0.46627  -0.46568  -0.46151  -0.45847
 Alpha  occ. eigenvalues --   -0.45532  -0.45446  -0.45085  -0.44796  -0.44676
 Alpha  occ. eigenvalues --   -0.44661  -0.44356  -0.43978  -0.43719  -0.43141
 Alpha  occ. eigenvalues --   -0.42415  -0.42389  -0.42267  -0.42103  -0.41761
 Alpha  occ. eigenvalues --   -0.41559  -0.41283  -0.41179  -0.41025  -0.40483
 Alpha  occ. eigenvalues --   -0.40267  -0.40217  -0.39581  -0.39365  -0.39173
 Alpha  occ. eigenvalues --   -0.38802  -0.38738  -0.38288  -0.38220  -0.37878
 Alpha  occ. eigenvalues --   -0.37367  -0.37117  -0.36473  -0.36242  -0.35625
 Alpha  occ. eigenvalues --   -0.35284  -0.33998  -0.33275  -0.32160  -0.32020
 Alpha  occ. eigenvalues --   -0.31452  -0.30611  -0.29350  -0.26974  -0.23476
 Alpha  occ. eigenvalues --   -0.18978
 Alpha virt. eigenvalues --   -0.06522  -0.01341   0.02383   0.05963   0.07159
 Alpha virt. eigenvalues --    0.07802   0.08790   0.10055   0.10691   0.11272
 Alpha virt. eigenvalues --    0.11317   0.11734   0.12636   0.12732   0.12880

 Mulliken charges:
               1
     1  O   -0.541487
     2  O   -0.564670
     3  C    0.027437
     4  C   -0.078707
     5  C   -0.180534
     6  C    0.149957
     7  C    0.123990
     8  C   -0.049996
     9  C   -0.294250
    10  C   -0.300206
    11  C   -0.146372
    12  C   -0.147937
    13  C    0.123556
    14  C    0.109039
    15  C   -0.065470
    16  C   -0.206182
    17  C    0.032401
    18  C   -0.327599
    19  C   -0.273852
    20  C   -0.338011
    21  C   -0.118472
    22  C   -0.130638
    23  C   -0.357196
    24  C    0.123021
    25  C   -0.095322
    26  C   -0.358923
    27  C    0.095328
    28  C   -0.122605
    29  C   -0.376175
    30  C   -0.117982
    31  C   -0.071191
    32  C   -0.071949
    33  C   -0.131925
    34  C    0.118648
    35  C   -0.111470
    36  C    0.150519
    37  C   -0.391074
    38  C   -0.099929
    39  C   -0.098848
    40  C   -0.324085
    41  C   -0.104997
    42  C   -0.090337
    43  H    0.061667
    44  H    0.117304
    45  H    0.092610
    46  H    0.075632
    47  H    0.058039
    48  H    0.113613
    49  H    0.096681
    50  H    0.101492
    51  H    0.094736
    52  H    0.093892
    53  H    0.104569
    54  H    0.092627
    55  H    0.066456
    56  H    0.061872
    57  H    0.089019
    58  H    0.115092
    59  H    0.119973
    60  H    0.110031
    61  H    0.110784
    62  H    0.086841
    63  H    0.064642
    64  H    0.112214
    65  H    0.094095
    66  H    0.134101
    67  H    0.098448
    68  H    0.068321
    69  H    0.302357
    70  H    0.091585
    71  H    0.078885
    72  H    0.098046
    73  H    0.124735
    74  H    0.114903
    75  H    0.305309
    76  H    0.092698
    77  H    0.113209
    78  H    0.111775
    79  H    0.087287
    80  H    0.074197
    81  H    0.109592
    82  H    0.095078
    83  H    0.106130
    84  H    0.070299
    85  H    0.092046
    86  H    0.064348
    87  H    0.089739
    88  H    0.065739
    89  H    0.120957
    90  H    0.106092
    91  H    0.101172
    92  H    0.072084
    93  H    0.076293
    94  H    0.061396
    95  H    0.101002
    96  H    0.106473
    97  H    0.092501
    98  H    0.073819
 Sum of Mulliken charges =  -0.00000

 Dipole moment (field-independent basis, Debye):
    X=             -0.6973    Y=             -0.4249    Z=             -0.0367  Tot=              0.8174
 Quadrupole moment (field-independent basis, Debye-Ang):
   XX=           -276.9325   YY=           -246.3425   ZZ=           -262.7011
   XY=             -5.1197   XZ=             37.9413   YZ=              5.2557

 Normal termination of Gaussian 16 at Sat Jul 13 23:21:34 2019.
