 Gaussian 16, Revision A.03,
 Gaussian 16:  ES64L-G16RevA.03 25-Dec-2016

 -------------------------------------
 # td=(NStates=1) CAM-B3LYP/6-31G(d,p)
 -------------------------------------

 --
 TD
 --
 Symbolic Z-matrix:
 Charge =  0 Multiplicity = 1

                         Standard orientation:
 ---------------------------------------------------------------------
 Center     Atomic      Atomic             Coordinates (Angstroms)
 Number     Number       Type             X           Y           Z
 ---------------------------------------------------------------------
      1          8           0      -14.036268   -2.149862    0.574007
      2          8           0       14.721021    0.827187    0.235051
      3          6           0      -11.804385    0.084744    1.266144
      4          6           0      -10.968953    0.316888   -0.081835
      5          6           0      -11.910670   -1.402139    1.460069
      6          6           0      -12.594492   -2.229066    0.315390
      7          6           0      -11.475645   -0.635459   -1.238616
      8          6           0       11.081653    0.913558    1.107859
      9          6           0      -10.991520    0.591445    2.530203
     10          6           0      -13.190285    0.711239    1.133911
     11          6           0       12.490891    1.382489    0.894459
     12          6           0      -12.213607   -1.718649   -1.057011
     13          6           0       13.426804    0.275968    0.411330
     14          6           0       10.722630   -0.034423   -0.024438
     15          6           0       -9.563703    0.033708    0.115360
     16          6           0       13.045005   -0.252637   -0.970173
     17          6           0       11.562046   -0.532420   -0.908921
     18          6           0       10.200685    2.096386    0.990095
     19          6           0       10.878453    0.122789    2.524208
     20          6           0      -11.239719   -0.138631   -2.642189
     21          6           0       -8.612000    0.895898   -0.217163
     22          6           0        9.254120   -0.383448   -0.012529
     23          6           0       11.142353   -1.313017   -2.167817
     24          6           0       -7.161026    0.653868   -0.252884
     25          6           0        8.790940   -1.704952   -0.170346
     26          6           0       -6.659783   -0.727984    0.253051
     27          6           0        7.386442   -2.116829   -0.113954
     28          6           0       -6.243007    1.563378   -0.357183
     29          6           0        7.125264   -3.501242    0.122233
     30          6           0        6.368991   -1.129808   -0.131792
     31          6           0       -4.819676    1.460202   -0.377787
     32          6           0        5.012882   -1.389756   -0.015532
     33          6           0       -4.027545    2.602495   -0.664378
     34          6           0       -2.633381    2.672113   -0.723078
     35          6           0        4.050161   -0.414384   -0.117264
     36          6           0        2.632249   -0.585930   -0.128007
     37          6           0       -2.018640    3.988593   -0.970205
     38          6           0       -1.824147    1.522190   -0.524345
     39          6           0        1.728603    0.441640   -0.222644
     40          6           0        2.185147   -2.084454   -0.046366
     41          6           0       -0.423036    1.553890   -0.514656
     42          6           0        0.303465    0.379135   -0.241890
     43          1           0      -11.244329    1.404867   -0.257045
     44          1           0      -12.641117   -1.339786    2.216350
     45          1           0      -10.915407   -2.010304    1.681826
     46          1           0      -12.288172   -3.245656    0.385798
     47          1           0       -9.840541    0.141756    2.649709
     48          1           0      -10.934888    1.673104    2.438873
     49          1           0      -11.608155    0.474899    3.259310
     50          1           0      -13.707077    0.202121    0.411715
     51          1           0      -13.745716    0.643165    2.135276
     52          1           0      -13.081183    1.750630    0.957659
     53          1           0       12.406751    2.199543   -0.012607
     54          1           0       12.987340    1.772518    1.890707
     55          1           0      -12.540500   -2.313327   -1.904094
     56          1           0       13.686822   -0.531461    1.054606
     57          1           0       -9.208739   -0.993406    0.503617
     58          1           0       13.461842   -1.241780   -1.162028
     59          1           0       13.258329    0.493340   -1.705903
     60          1           0        9.098564    2.029642    1.463973
     61          1           0       10.239091    2.471671   -0.180242
     62          1           0       10.639015    2.963155    1.643086
     63          1           0       11.577012   -0.822754    2.542082
     64          1           0        9.857174   -0.008267    2.572899
     65          1           0       11.106550    0.869455    3.320881
     66          1           0      -10.096217   -0.151616   -2.640128
     67          1           0      -11.631032    0.818105   -2.812822
     68          1           0      -11.500141   -0.745232   -3.307930
     69          1           0      -14.559249   -2.425894   -0.258056
     70          1           0        8.737021    0.535030    0.362085
     71          1           0       -8.661449    1.997000   -0.649763
     72          1           0       11.613769   -2.361799   -2.071913
     73          1           0       10.164900   -1.486948   -2.194650
     74          1           0       11.391723   -0.913531   -3.258549
     75          1           0       15.347981    0.870622    1.004233
     76          1           0        9.582490   -2.544886   -0.290046
     77          1           0       -5.552040   -0.651910    0.726616
     78          1           0       -7.226855   -0.981594    1.209515
     79          1           0       -6.729338   -1.391902   -0.607846
     80          1           0       -6.534041    2.625379   -0.567712
     81          1           0        7.099866   -3.797771    1.264181
     82          1           0        6.462371   -3.920964   -0.425579
     83          1           0        8.148430   -3.933675   -0.275222
     84          1           0        6.631548   -0.204200   -0.453940
     85          1           0       -4.132628    0.599358   -0.079665
     86          1           0        4.555998   -2.462923    0.069783
     87          1           0       -4.534300    3.443408   -0.785570
     88          1           0        4.383602    0.685230   -0.419567
     89          1           0       -1.340173    3.855221   -1.812504
     90          1           0       -1.205767    4.255443   -0.233571
     91          1           0       -2.629859    4.825783   -1.466252
     92          1           0       -2.308059    0.499868   -0.502802
     93          1           0        2.341324    1.231394   -0.274056
     94          1           0        2.398568   -2.585628    1.038828
     95          1           0        1.069684   -2.257236   -0.357224
     96          1           0        2.718860   -2.828978   -0.836194
     97          1           0        0.063546    2.292677   -0.615494
     98          1           0       -0.192635   -0.693889   -0.244939
 ---------------------------------------------------------------------

 SCF Done:  E(RCAM-B3LYP) =  -1706.91715887     A.U. after   15 cycles

 Excitation energies and oscillator strengths:

 Excited State   1:      Singlet-A      2.0801 eV  596.05 nm  f=2.9577  <S**2>=0.000
     155 ->158         0.15574
     156 ->157         0.69169
 This state for optimization and/or second-order correction.
 Total Energy, E(TD-HF/TD-DFT) =  -1706.84071627
 Copying the excited state density for this state as the 1-particle RhoCI density.

 The electronic state is 1-A.
 Alpha  occ. eigenvalues --  -19.21117 -19.19455 -10.29988 -10.29645 -10.28028
 Alpha  occ. eigenvalues --  -10.27743 -10.27732 -10.27323 -10.27241 -10.27213
 Alpha  occ. eigenvalues --  -10.27122 -10.26979 -10.26851 -10.26850 -10.26730
 Alpha  occ. eigenvalues --  -10.26663 -10.26612 -10.26561 -10.26468 -10.26407
 Alpha  occ. eigenvalues --  -10.26344 -10.26328 -10.26284 -10.26245 -10.26168
 Alpha  occ. eigenvalues --  -10.25948 -10.25770 -10.25677 -10.25421 -10.25188
 Alpha  occ. eigenvalues --  -10.25186 -10.25054 -10.24970 -10.24817 -10.24742
 Alpha  occ. eigenvalues --  -10.24724 -10.24669 -10.24412 -10.24372 -10.24032
 Alpha  occ. eigenvalues --  -10.23306 -10.23147  -1.07772  -1.06744  -0.93935
 Alpha  occ. eigenvalues --   -0.93231  -0.92170  -0.91489  -0.90620  -0.89812
 Alpha  occ. eigenvalues --   -0.87330  -0.87117  -0.86954  -0.85422  -0.84317
 Alpha  occ. eigenvalues --   -0.83128  -0.81721  -0.80562  -0.79242  -0.77822
 Alpha  occ. eigenvalues --   -0.76574  -0.76000  -0.75941  -0.75604  -0.75470
 Alpha  occ. eigenvalues --   -0.74977  -0.74883  -0.74344  -0.73088  -0.70411
 Alpha  occ. eigenvalues --   -0.69246  -0.68015  -0.66821  -0.65201  -0.63668
 Alpha  occ. eigenvalues --   -0.63115  -0.62603  -0.62443  -0.60707  -0.59463
 Alpha  occ. eigenvalues --   -0.58628  -0.58333  -0.57404  -0.56596  -0.56391
 Alpha  occ. eigenvalues --   -0.55470  -0.54316  -0.54261  -0.53778  -0.53702
 Alpha  occ. eigenvalues --   -0.53354  -0.52955  -0.51841  -0.51745  -0.50969
 Alpha  occ. eigenvalues --   -0.50896  -0.50234  -0.50136  -0.49649  -0.49358
 Alpha  occ. eigenvalues --   -0.49136  -0.48872  -0.48657  -0.48443  -0.48133
 Alpha  occ. eigenvalues --   -0.47715  -0.47543  -0.46668  -0.46217  -0.45816
 Alpha  occ. eigenvalues --   -0.45754  -0.45524  -0.44949  -0.44894  -0.44710
 Alpha  occ. eigenvalues --   -0.44361  -0.43644  -0.43358  -0.43073  -0.42987
 Alpha  occ. eigenvalues --   -0.42749  -0.42389  -0.42251  -0.42013  -0.41937
 Alpha  occ. eigenvalues --   -0.41518  -0.41315  -0.41047  -0.40983  -0.40732
 Alpha  occ. eigenvalues --   -0.40519  -0.39754  -0.39645  -0.39426  -0.39271
 Alpha  occ. eigenvalues --   -0.39081  -0.38846  -0.38467  -0.38315  -0.37602
 Alpha  occ. eigenvalues --   -0.37238  -0.36616  -0.35790  -0.35460  -0.34985
 Alpha  occ. eigenvalues --   -0.34736  -0.33939  -0.33325  -0.32156  -0.31466
 Alpha  occ. eigenvalues --   -0.31259  -0.29854  -0.29118  -0.27246  -0.23354
 Alpha  occ. eigenvalues --   -0.19055
 Alpha virt. eigenvalues --   -0.05855  -0.01162   0.03308   0.05985   0.07750
 Alpha virt. eigenvalues --    0.09272   0.10901   0.11667   0.11786   0.12055
 Alpha virt. eigenvalues --    0.12315   0.12817   0.13246   0.13574   0.13831

 Mulliken charges:
               1
     1  O   -0.565363
     2  O   -0.592456
     3  C   -0.014714
     4  C   -0.133766
     5  C   -0.164613
     6  C    0.142907
     7  C    0.088090
     8  C   -0.000001
     9  C   -0.280989
    10  C   -0.301546
    11  C   -0.164041
    12  C   -0.150473
    13  C    0.172946
    14  C    0.069436
    15  C   -0.090444
    16  C   -0.189925
    17  C    0.000897
    18  C   -0.316021
    19  C   -0.294945
    20  C   -0.325212
    21  C   -0.060966
    22  C   -0.104808
    23  C   -0.346095
    24  C    0.087156
    25  C   -0.129401
    26  C   -0.364670
    27  C    0.081168
    28  C   -0.130452
    29  C   -0.351951
    30  C   -0.097860
    31  C   -0.054797
    32  C   -0.072798
    33  C   -0.117437
    34  C    0.117482
    35  C   -0.133427
    36  C    0.108150
    37  C   -0.407166
    38  C   -0.132281
    39  C   -0.090609
    40  C   -0.370002
    41  C   -0.002868
    42  C   -0.104084
    43  H    0.090365
    44  H    0.116361
    45  H    0.077704
    46  H    0.086926
    47  H    0.087285
    48  H    0.091818
    49  H    0.108650
    50  H    0.134707
    51  H    0.089628
    52  H    0.095471
    53  H    0.085996
    54  H    0.072267
    55  H    0.073981
    56  H    0.079359
    57  H    0.101597
    58  H    0.104701
    59  H    0.128717
    60  H    0.094392
    61  H    0.099637
    62  H    0.094648
    63  H    0.101241
    64  H    0.122249
    65  H    0.095116
    66  H    0.105558
    67  H    0.119740
    68  H    0.109159
    69  H    0.302265
    70  H    0.093586
    71  H    0.070149
    72  H    0.088794
    73  H    0.123853
    74  H    0.094324
    75  H    0.301066
    76  H    0.092806
    77  H    0.094458
    78  H    0.109021
    79  H    0.125049
    80  H    0.069799
    81  H    0.119211
    82  H    0.129052
    83  H    0.085322
    84  H    0.081741
    85  H    0.083148
    86  H    0.085288
    87  H    0.064392
    88  H    0.065942
    89  H    0.129916
    90  H    0.127826
    91  H    0.114553
    92  H    0.084895
    93  H    0.062477
    94  H    0.106425
    95  H    0.093186
    96  H    0.098734
    97  H    0.036556
    98  H    0.086841
 Sum of Mulliken charges =  -0.00000

 Dipole moment (field-independent basis, Debye):
    X=              0.7678    Y=             -0.5523    Z=             -0.4738  Tot=              1.0578
 Quadrupole moment (field-independent basis, Debye-Ang):
   XX=           -255.9421   YY=           -245.3571   ZZ=           -260.9743
   XY=             -6.2331   XZ=             42.7094   YZ=              2.2928

 Normal termination of Gaussian 16 at Mon Jul 15 01:20:10 2019.
