 Gaussian 16, Revision A.03,
 Gaussian 16:  ES64L-G16RevA.03 25-Dec-2016

 -------------------------------------
 # td=(NStates=1) CAM-B3LYP/6-31G(d,p)
 -------------------------------------

 --
 TD
 --
 Symbolic Z-matrix:
 Charge =  0 Multiplicity = 1

                         Standard orientation:
 ---------------------------------------------------------------------
 Center     Atomic      Atomic             Coordinates (Angstroms)
 Number     Number       Type             X           Y           Z
 ---------------------------------------------------------------------
      1          8           0      -14.230323   -1.938949    0.527424
      2          8           0       14.892302    0.754912    0.237476
      3          6           0      -11.916868    0.097381    1.277314
      4          6           0      -10.953611    0.268351    0.020566
      5          6           0      -12.140091   -1.346565    1.508991
      6          6           0      -12.746550   -2.095335    0.339584
      7          6           0      -11.488663   -0.489314   -1.173100
      8          6           0       11.121671    1.145267    0.940046
      9          6           0      -11.096550    0.677548    2.418557
     10          6           0      -13.186060    0.921240    1.033502
     11          6           0       12.588875    1.505240    0.573678
     12          6           0      -12.347764   -1.518793   -0.992347
     13          6           0       13.555265    0.299410    0.488896
     14          6           0       10.766637   -0.096215    0.043916
     15          6           0       -9.539533   -0.111974    0.090942
     16          6           0       13.180326   -0.535082   -0.604246
     17          6           0       11.605611   -0.734049   -0.752925
     18          6           0       10.277929    2.348035    0.584647
     19          6           0       10.871922    0.811162    2.393410
     20          6           0      -11.071071   -0.008944   -2.554984
     21          6           0       -8.462910    0.760651   -0.074037
     22          6           0        9.250137   -0.394910    0.036146
     23          6           0       11.366930   -1.753462   -1.811527
     24          6           0       -7.081681    0.401778   -0.146013
     25          6           0        8.802481   -1.649051   -0.015660
     26          6           0       -6.697794   -0.996636    0.347013
     27          6           0        7.413536   -2.065313    0.013860
     28          6           0       -6.171879    1.447981   -0.364850
     29          6           0        7.103565   -3.404485    0.332888
     30          6           0        6.386268   -1.071785   -0.090451
     31          6           0       -4.842188    1.308861   -0.410577
     32          6           0        4.983562   -1.362806   -0.095380
     33          6           0       -4.106723    2.458680   -0.639115
     34          6           0       -2.674512    2.503144   -0.736311
     35          6           0        4.008787   -0.464197   -0.341984
     36          6           0        2.654039   -0.717422   -0.275646
     37          6           0       -1.956293    3.870016   -0.975385
     38          6           0       -1.849835    1.408988   -0.552777
     39          6           0        1.725852    0.258695   -0.540076
     40          6           0        2.205079   -2.054241    0.035187
     41          6           0       -0.491741    1.344854   -0.526712
     42          6           0        0.361853    0.315688   -0.425757
     43          1           0      -10.949537    1.313230   -0.263310
     44          1           0      -12.742562   -1.439896    2.494559
     45          1           0      -11.339411   -1.921222    1.768494
     46          1           0      -12.473550   -3.177148    0.484190
     47          1           0      -10.318876    0.009052    2.639766
     48          1           0      -10.705246    1.646225    2.137483
     49          1           0      -11.770464    0.836626    3.339141
     50          1           0      -13.708851    0.791196    0.026972
     51          1           0      -14.039025    0.779013    1.789290
     52          1           0      -12.920465    2.049920    0.922953
     53          1           0       12.721522    2.177374   -0.307649
     54          1           0       13.048398    2.361488    1.354203
     55          1           0      -12.844603   -1.912643   -1.995003
     56          1           0       13.495136   -0.215917    1.388603
     57          1           0       -9.341228   -1.142635    0.267872
     58          1           0       13.663341   -1.682673   -0.511119
     59          1           0       13.593713   -0.128181   -1.770968
     60          1           0        9.223518    2.199996    1.070331
     61          1           0       10.428741    2.629407   -0.525039
     62          1           0       10.726706    3.291078    0.980470
     63          1           0       11.672807   -0.075044    2.700115
     64          1           0        9.816213    0.355493    2.616663
     65          1           0       11.131823    1.345722    3.112415
     66          1           0      -10.154392    0.066942   -2.709198
     67          1           0      -11.610947    0.856624   -3.075545
     68          1           0      -11.315999   -0.790238   -3.331744
     69          1           0      -14.608286   -1.827494   -0.546513
     70          1           0        8.501972    0.505288    0.344704
     71          1           0       -8.677014    1.905722   -0.121484
     72          1           0       11.323565   -2.821323   -1.543812
     73          1           0       10.219728   -1.498088   -2.255737
     74          1           0       12.258196   -1.537704   -2.711108
     75          1           0       14.913860    1.712375    0.810886
     76          1           0        9.475239   -2.295897   -0.328372
     77          1           0       -5.635791   -1.244996   -0.085413
     78          1           0       -6.898853   -0.978926    1.502653
     79          1           0       -7.390664   -1.920510    0.056548
     80          1           0       -6.421608    2.600353   -0.544079
     81          1           0        6.566830   -3.786716    1.408688
     82          1           0        6.501276   -3.898934   -0.283514
     83          1           0        7.947925   -3.911073    0.189003
     84          1           0        6.806261   -0.150864   -0.082097
     85          1           0       -4.310378    0.319256   -0.238984
     86          1           0        4.629946   -2.293589    0.097848
     87          1           0       -4.618711    3.465426   -0.881283
     88          1           0        4.210064    0.719954   -0.466840
     89          1           0       -1.046580    3.791037   -1.782333
     90          1           0       -1.491568    4.191690   -0.136307
     91          1           0       -2.647019    4.721477   -1.347739
     92          1           0       -2.351266    0.428952   -0.310899
     93          1           0        2.252177    1.222164   -0.671070
     94          1           0        2.245853   -2.321602    1.078709
     95          1           0        1.065237   -2.330202   -0.379939
     96          1           0        2.579380   -2.798197   -0.707776
     97          1           0       -0.150466    2.385174   -0.697867
     98          1           0       -0.279960   -0.798600   -0.364730
 ---------------------------------------------------------------------

 SCF Done:  E(RCAM-B3LYP) =  -1706.85324661     A.U. after   15 cycles

 Excitation energies and oscillator strengths:

 Excited State   1:      Singlet-A      2.0389 eV  608.08 nm  f=3.2404  <S**2>=0.000
     155 ->158         0.15160
     156 ->157         0.69236
 This state for optimization and/or second-order correction.
 Total Energy, E(TD-HF/TD-DFT) =  -1706.77831675
 Copying the excited state density for this state as the 1-particle RhoCI density.

 The electronic state is 1-A.
 Alpha  occ. eigenvalues --  -19.21809 -19.21499 -10.31111 -10.29498 -10.28850
 Alpha  occ. eigenvalues --  -10.28659 -10.28303 -10.28126 -10.28109 -10.28020
 Alpha  occ. eigenvalues --  -10.27559 -10.27524 -10.27501 -10.27496 -10.27269
 Alpha  occ. eigenvalues --  -10.27026 -10.27016 -10.26974 -10.26874 -10.26870
 Alpha  occ. eigenvalues --  -10.26865 -10.26760 -10.26648 -10.26645 -10.26542
 Alpha  occ. eigenvalues --  -10.26475 -10.26472 -10.26244 -10.26183 -10.25990
 Alpha  occ. eigenvalues --  -10.25903 -10.25711 -10.25641 -10.25570 -10.25370
 Alpha  occ. eigenvalues --  -10.25303 -10.25274 -10.24895 -10.24625 -10.24276
 Alpha  occ. eigenvalues --  -10.24110 -10.23793  -1.07134  -1.04253  -0.94062
 Alpha  occ. eigenvalues --   -0.93711  -0.93109  -0.92440  -0.91288  -0.90461
 Alpha  occ. eigenvalues --   -0.87884  -0.87290  -0.87061  -0.85821  -0.84784
 Alpha  occ. eigenvalues --   -0.83606  -0.82632  -0.80922  -0.80436  -0.78782
 Alpha  occ. eigenvalues --   -0.77189  -0.77125  -0.76675  -0.76026  -0.75717
 Alpha  occ. eigenvalues --   -0.75092  -0.75050  -0.74465  -0.73496  -0.70600
 Alpha  occ. eigenvalues --   -0.68795  -0.67597  -0.66647  -0.64740  -0.64486
 Alpha  occ. eigenvalues --   -0.63371  -0.62763  -0.62307  -0.60422  -0.59806
 Alpha  occ. eigenvalues --   -0.59381  -0.58314  -0.57804  -0.57171  -0.56058
 Alpha  occ. eigenvalues --   -0.55697  -0.54876  -0.54599  -0.54095  -0.53436
 Alpha  occ. eigenvalues --   -0.53315  -0.52821  -0.52479  -0.52135  -0.51681
 Alpha  occ. eigenvalues --   -0.51287  -0.50139  -0.50093  -0.49680  -0.49481
 Alpha  occ. eigenvalues --   -0.49054  -0.48919  -0.48438  -0.48212  -0.47948
 Alpha  occ. eigenvalues --   -0.47642  -0.47183  -0.46780  -0.46632  -0.46332
 Alpha  occ. eigenvalues --   -0.45901  -0.45518  -0.45315  -0.44879  -0.44633
 Alpha  occ. eigenvalues --   -0.44067  -0.43839  -0.43520  -0.43412  -0.43287
 Alpha  occ. eigenvalues --   -0.43055  -0.42539  -0.42247  -0.41690  -0.41535
 Alpha  occ. eigenvalues --   -0.41344  -0.41230  -0.40681  -0.40621  -0.40249
 Alpha  occ. eigenvalues --   -0.40193  -0.39941  -0.39532  -0.39521  -0.39406
 Alpha  occ. eigenvalues --   -0.39277  -0.38836  -0.38682  -0.38570  -0.37935
 Alpha  occ. eigenvalues --   -0.37664  -0.37260  -0.36577  -0.36389  -0.36269
 Alpha  occ. eigenvalues --   -0.35843  -0.35159  -0.34126  -0.32186  -0.31883
 Alpha  occ. eigenvalues --   -0.31517  -0.30081  -0.29516  -0.27261  -0.23602
 Alpha  occ. eigenvalues --   -0.19309
 Alpha virt. eigenvalues --   -0.06508  -0.01702   0.02542   0.04970   0.06724
 Alpha virt. eigenvalues --    0.08685   0.09246   0.10299   0.10792   0.11171
 Alpha virt. eigenvalues --    0.11761   0.11823   0.12355   0.12682   0.12858

 Mulliken charges:
               1
     1  O   -0.560445
     2  O   -0.570273
     3  C    0.036767
     4  C   -0.147983
     5  C   -0.166752
     6  C    0.152514
     7  C    0.113817
     8  C    0.003493
     9  C   -0.288848
    10  C   -0.287867
    11  C   -0.235010
    12  C   -0.164373
    13  C    0.213763
    14  C    0.069873
    15  C   -0.082639
    16  C   -0.192235
    17  C    0.059960
    18  C   -0.296273
    19  C   -0.280262
    20  C   -0.355893
    21  C   -0.099683
    22  C   -0.125373
    23  C   -0.353347
    24  C    0.079259
    25  C   -0.072780
    26  C   -0.360585
    27  C    0.064288
    28  C   -0.104664
    29  C   -0.360186
    30  C   -0.071868
    31  C   -0.026953
    32  C   -0.096461
    33  C   -0.153391
    34  C    0.088741
    35  C   -0.094442
    36  C    0.158668
    37  C   -0.385321
    38  C   -0.102069
    39  C   -0.133949
    40  C   -0.395950
    41  C   -0.052239
    42  C   -0.083026
    43  H    0.092846
    44  H    0.103256
    45  H    0.094020
    46  H    0.089945
    47  H    0.106243
    48  H    0.099600
    49  H    0.084408
    50  H    0.097112
    51  H    0.107430
    52  H    0.075410
    53  H    0.111969
    54  H    0.038506
    55  H    0.070286
    56  H    0.098303
    57  H    0.080758
    58  H    0.085716
    59  H    0.082070
    60  H    0.095103
    61  H    0.103885
    62  H    0.101484
    63  H    0.062993
    64  H    0.104478
    65  H    0.118254
    66  H    0.135995
    67  H    0.108578
    68  H    0.095819
    69  H    0.290938
    70  H    0.079886
    71  H    0.076042
    72  H    0.130357
    73  H    0.093573
    74  H    0.082772
    75  H    0.297462
    76  H    0.075737
    77  H    0.105256
    78  H    0.131009
    79  H    0.107490
    80  H    0.085675
    81  H    0.091105
    82  H    0.130723
    83  H    0.107599
    84  H    0.060824
    85  H    0.098118
    86  H    0.085276
    87  H    0.085088
    88  H    0.067369
    89  H    0.104511
    90  H    0.148259
    91  H    0.098556
    92  H    0.058822
    93  H    0.069709
    94  H    0.135320
    95  H    0.080057
    96  H    0.121990
    97  H    0.065031
    98  H    0.050977
 Sum of Mulliken charges =  -0.00000

 Dipole moment (field-independent basis, Debye):
    X=             -0.1174    Y=              0.7029    Z=             -0.1830  Tot=              0.7358
 Quadrupole moment (field-independent basis, Debye-Ang):
   XX=           -321.3562   YY=           -241.7536   ZZ=           -262.7897
   XY=              3.5055   XZ=             34.5585   YZ=              2.1319

 Normal termination of Gaussian 16 at Mon Jul 15 03:00:45 2019.
