 Gaussian 16, Revision A.03,
 Gaussian 16:  ES64L-G16RevA.03 25-Dec-2016

 -------------------------------------
 # td=(NStates=1) CAM-B3LYP/6-31G(d,p)
 -------------------------------------

 --
 TD
 --
 Symbolic Z-matrix:
 Charge =  0 Multiplicity = 1

                         Standard orientation:
 ---------------------------------------------------------------------
 Center     Atomic      Atomic             Coordinates (Angstroms)
 Number     Number       Type             X           Y           Z
 ---------------------------------------------------------------------
      1          8           0       14.068507    1.919680    0.720390
      2          8           0      -14.765188   -1.006909    0.244303
      3          6           0       11.829825   -0.274472    1.344603
      4          6           0       10.920221   -0.311230   -0.072565
      5          6           0       11.981521    1.156768    1.584169
      6          6           0       12.611327    1.986253    0.618624
      7          6           0       11.645296    0.432260   -1.211871
      8          6           0      -11.000886   -1.244878    0.993826
      9          6           0       11.044018   -0.930333    2.406192
     10          6           0       13.163194   -0.968797    1.020233
     11          6           0      -12.517359   -1.650003    0.764394
     12          6           0       12.276330    1.567786   -0.776151
     13          6           0      -13.435117   -0.553631    0.440960
     14          6           0      -10.629928    0.038116    0.165388
     15          6           0        9.527053    0.052184   -0.022306
     16          6           0      -12.934685    0.105149   -0.876441
     17          6           0      -11.445701    0.417715   -0.780521
     18          6           0      -10.128332   -2.365953    0.729842
     19          6           0      -10.855674   -0.726660    2.536226
     20          6           0       11.271005    0.101878   -2.514961
     21          6           0        8.472658   -0.756076   -0.185031
     22          6           0       -9.235906    0.515175    0.169077
     23          6           0      -11.185364    1.488655   -1.989054
     24          6           0        7.057246   -0.467720   -0.162157
     25          6           0       -8.743651    1.784815   -0.032078
     26          6           0        6.648295    0.914697    0.346549
     27          6           0       -7.383805    2.254087    0.153633
     28          6           0        6.169606   -1.418363   -0.549867
     29          6           0       -7.253441    3.755283    0.187956
     30          6           0       -6.366352    1.399001    0.058668
     31          6           0        4.728007   -1.352856   -0.440136
     32          6           0       -4.968362    1.548632    0.042108
     33          6           0        3.925903   -2.392065   -0.886474
     34          6           0        2.576937   -2.497883   -0.746817
     35          6           0       -4.021071    0.713411   -0.350668
     36          6           0       -2.597576    0.936539   -0.304770
     37          6           0        1.862146   -3.727244   -1.115231
     38          6           0        1.780775   -1.288316   -0.553582
     39          6           0       -1.754947   -0.138786   -0.570897
     40          6           0       -2.181768    2.329474   -0.175051
     41          6           0        0.352913   -1.321957   -0.697203
     42          6           0       -0.456492   -0.258367   -0.439204
     43          1           0       10.917997   -1.499217   -0.371330
     44          1           0       12.614349    1.042107    2.504469
     45          1           0       10.925772    1.570431    1.414755
     46          1           0       12.364552    2.991303    0.691591
     47          1           0        9.990719   -0.524464    2.513985
     48          1           0       10.615373   -1.956529    2.085319
     49          1           0       11.560492   -1.196477    3.241572
     50          1           0       13.814028   -0.432081    0.305931
     51          1           0       13.770620   -0.911371    1.995947
     52          1           0       12.938652   -2.051935    0.725068
     53          1           0      -12.481702   -2.429560    0.141058
     54          1           0      -12.841947   -2.178461    1.684896
     55          1           0       12.865798    2.198992   -1.711507
     56          1           0      -13.549689    0.152316    1.174289
     57          1           0        9.252806    1.102123    0.205510
     58          1           0      -13.470770    1.076341   -0.804372
     59          1           0      -12.899696   -0.406000   -1.638787
     60          1           0       -9.175810   -2.312874    1.328618
     61          1           0      -10.015001   -2.666881   -0.389769
     62          1           0      -10.441923   -3.365295    1.109410
     63          1           0      -11.533265   -0.001075    2.740096
     64          1           0       -9.791698   -0.182833    2.733209
     65          1           0      -10.860745   -1.658359    3.286804
     66          1           0       10.209338    0.067535   -2.508590
     67          1           0       11.696347   -0.934322   -2.665601
     68          1           0       11.518429    0.877643   -3.383460
     69          1           0       14.399876    2.325043   -0.083816
     70          1           0       -8.445992   -0.218643    0.398319
     71          1           0        8.695122   -1.942078   -0.356763
     72          1           0      -11.429921    2.513089   -1.497956
     73          1           0      -10.148641    1.656455   -2.138290
     74          1           0      -11.998631    1.367223   -2.786906
     75          1           0      -14.980662   -1.685195    1.009233
     76          1           0       -9.674446    2.449985   -0.109670
     77          1           0        5.536727    1.141706    0.388967
     78          1           0        7.138419    0.844035    1.360330
     79          1           0        7.111873    1.891195   -0.237703
     80          1           0        6.710923   -2.198617   -1.022235
     81          1           0       -6.765124    4.261611    1.079764
     82          1           0       -6.666838    4.470703   -0.703000
     83          1           0       -8.263986    4.172152    0.109564
     84          1           0       -6.694824    0.421276   -0.421987
     85          1           0        4.320207   -0.424465    0.104469
     86          1           0       -4.745893    2.671078    0.305904
     87          1           0        4.450909   -3.240450   -1.288428
     88          1           0       -4.278042   -0.202733   -0.651331
     89          1           0        1.602832   -3.568101   -2.125742
     90          1           0        1.066508   -4.095667   -0.434800
     91          1           0        2.566132   -4.500594   -1.332499
     92          1           0        2.345259   -0.332925   -0.220518
     93          1           0       -2.394535   -1.163810   -0.959134
     94          1           0       -1.823905    2.383018    1.105958
     95          1           0       -1.085611    2.662700   -0.546699
     96          1           0       -3.184951    3.162991   -0.487620
     97          1           0       -0.074425   -2.256696   -1.161088
     98          1           0       -0.195088    0.648757   -0.079455
 ---------------------------------------------------------------------

 SCF Done:  E(RCAM-B3LYP) =  -1706.84763179     A.U. after   15 cycles

 Excitation energies and oscillator strengths:

 Excited State   1:      Singlet-A      2.0074 eV  617.62 nm  f=2.8500  <S**2>=0.000
     155 ->158        -0.13265
     156 ->157         0.69803
     156 <-157        -0.10335
 This state for optimization and/or second-order correction.
 Total Energy, E(TD-HF/TD-DFT) =  -1706.77385957
 Copying the excited state density for this state as the 1-particle RhoCI density.

 The electronic state is 1-A.
 Alpha  occ. eigenvalues --  -19.20908 -19.20279 -10.30446 -10.29649 -10.29199
 Alpha  occ. eigenvalues --  -10.28325 -10.27813 -10.27710 -10.27680 -10.27639
 Alpha  occ. eigenvalues --  -10.27457 -10.27406 -10.27357 -10.27356 -10.27236
 Alpha  occ. eigenvalues --  -10.27192 -10.27123 -10.26771 -10.26717 -10.26711
 Alpha  occ. eigenvalues --  -10.26695 -10.26500 -10.26389 -10.26316 -10.26275
 Alpha  occ. eigenvalues --  -10.26254 -10.26177 -10.26150 -10.26030 -10.25953
 Alpha  occ. eigenvalues --  -10.25713 -10.25691 -10.25658 -10.25559 -10.25196
 Alpha  occ. eigenvalues --  -10.25128 -10.24670 -10.24591 -10.24499 -10.24284
 Alpha  occ. eigenvalues --  -10.24104 -10.23846  -1.08468  -1.08015  -0.94554
 Alpha  occ. eigenvalues --   -0.93598  -0.93060  -0.92329  -0.91140  -0.90677
 Alpha  occ. eigenvalues --   -0.88672  -0.88103  -0.86938  -0.85848  -0.85085
 Alpha  occ. eigenvalues --   -0.83852  -0.82814  -0.81595  -0.79819  -0.78722
 Alpha  occ. eigenvalues --   -0.76890  -0.76455  -0.76134  -0.75819  -0.75615
 Alpha  occ. eigenvalues --   -0.75600  -0.75246  -0.74776  -0.72535  -0.70904
 Alpha  occ. eigenvalues --   -0.69284  -0.68514  -0.67608  -0.65765  -0.63883
 Alpha  occ. eigenvalues --   -0.62831  -0.62227  -0.62031  -0.60088  -0.59560
 Alpha  occ. eigenvalues --   -0.59095  -0.58214  -0.57728  -0.57440  -0.55995
 Alpha  occ. eigenvalues --   -0.55804  -0.55599  -0.55239  -0.54770  -0.54133
 Alpha  occ. eigenvalues --   -0.53769  -0.53528  -0.53106  -0.52484  -0.51502
 Alpha  occ. eigenvalues --   -0.51053  -0.50901  -0.50842  -0.50338  -0.49881
 Alpha  occ. eigenvalues --   -0.49304  -0.49012  -0.48946  -0.48332  -0.47888
 Alpha  occ. eigenvalues --   -0.47293  -0.47133  -0.46757  -0.46462  -0.46314
 Alpha  occ. eigenvalues --   -0.45979  -0.45686  -0.45108  -0.44958  -0.44904
 Alpha  occ. eigenvalues --   -0.44598  -0.43831  -0.43717  -0.43417  -0.43385
 Alpha  occ. eigenvalues --   -0.43097  -0.42884  -0.42498  -0.42432  -0.41966
 Alpha  occ. eigenvalues --   -0.41713  -0.41181  -0.41066  -0.40896  -0.40364
 Alpha  occ. eigenvalues --   -0.40110  -0.40034  -0.39784  -0.39427  -0.39276
 Alpha  occ. eigenvalues --   -0.38826  -0.38517  -0.38423  -0.38248  -0.37699
 Alpha  occ. eigenvalues --   -0.37589  -0.36404  -0.36099  -0.35675  -0.35620
 Alpha  occ. eigenvalues --   -0.35057  -0.34084  -0.33576  -0.32301  -0.32201
 Alpha  occ. eigenvalues --   -0.31047  -0.29590  -0.28761  -0.26960  -0.24106
 Alpha  occ. eigenvalues --   -0.19155
 Alpha virt. eigenvalues --   -0.06451  -0.01036   0.02410   0.05477   0.06889
 Alpha virt. eigenvalues --    0.08229   0.09844   0.10746   0.11229   0.11673
 Alpha virt. eigenvalues --    0.11985   0.12437   0.12850   0.13381   0.13503

 Mulliken charges:
               1
     1  O   -0.563131
     2  O   -0.579671
     3  C    0.035809
     4  C   -0.186033
     5  C   -0.153979
     6  C    0.175520
     7  C    0.144652
     8  C    0.014918
     9  C   -0.305937
    10  C   -0.295094
    11  C   -0.212396
    12  C   -0.166027
    13  C    0.189538
    14  C    0.066839
    15  C   -0.065179
    16  C   -0.175257
    17  C   -0.009319
    18  C   -0.327178
    19  C   -0.305182
    20  C   -0.355429
    21  C   -0.112101
    22  C   -0.102950
    23  C   -0.359129
    24  C    0.119157
    25  C   -0.143838
    26  C   -0.363315
    27  C    0.125334
    28  C   -0.122147
    29  C   -0.373895
    30  C   -0.134929
    31  C   -0.076031
    32  C   -0.077823
    33  C   -0.112085
    34  C    0.080827
    35  C   -0.089056
    36  C    0.143492
    37  C   -0.391771
    38  C   -0.104669
    39  C   -0.117864
    40  C   -0.354826
    41  C   -0.103409
    42  C   -0.035186
    43  H    0.053897
    44  H    0.105821
    45  H    0.089566
    46  H    0.100892
    47  H    0.105431
    48  H    0.085266
    49  H    0.111991
    50  H    0.133205
    51  H    0.084577
    52  H    0.087898
    53  H    0.109541
    54  H    0.072864
    55  H    0.030833
    56  H    0.086463
    57  H    0.085389
    58  H    0.116545
    59  H    0.118435
    60  H    0.108601
    61  H    0.102015
    62  H    0.100911
    63  H    0.118395
    64  H    0.086995
    65  H    0.077190
    66  H    0.136543
    67  H    0.113500
    68  H    0.098034
    69  H    0.300165
    70  H    0.083556
    71  H    0.066527
    72  H    0.103193
    73  H    0.132646
    74  H    0.112084
    75  H    0.300753
    76  H    0.083333
    77  H    0.105428
    78  H    0.123147
    79  H    0.101177
    80  H    0.079080
    81  H    0.119367
    82  H    0.080929
    83  H    0.118908
    84  H    0.078820
    85  H    0.086885
    86  H    0.067702
    87  H    0.086257
    88  H    0.074088
    89  H    0.143761
    90  H    0.132520
    91  H    0.106902
    92  H    0.080544
    93  H    0.042174
    94  H    0.073519
    95  H    0.115143
    96  H    0.104135
    97  H    0.095015
    98  H    0.060191
 Sum of Mulliken charges =  -0.00000

 Dipole moment (field-independent basis, Debye):
    X=             -0.5024    Y=             -0.5944    Z=             -0.5475  Tot=              0.9516
 Quadrupole moment (field-independent basis, Debye-Ang):
   XX=           -301.2185   YY=           -241.5366   ZZ=           -263.5696
   XY=              9.4257   XZ=            -30.9314   YZ=             -1.0289

 Normal termination of Gaussian 16 at Sun Jul 14 20:56:10 2019.
