 Gaussian 16, Revision A.03,
 Gaussian 16:  ES64L-G16RevA.03 25-Dec-2016

 -------------------------------------
 # td=(NStates=1) CAM-B3LYP/6-31G(d,p)
 -------------------------------------

 --
 TD
 --
 Symbolic Z-matrix:
 Charge =  0 Multiplicity = 1

                         Standard orientation:
 ---------------------------------------------------------------------
 Center     Atomic      Atomic             Coordinates (Angstroms)
 Number     Number       Type             X           Y           Z
 ---------------------------------------------------------------------
      1          8           0      -13.951720   -2.220709    0.266584
      2          8           0       14.802420    0.843533    0.068976
      3          6           0      -11.800034   -0.245297    1.367925
      4          6           0      -10.918392    0.326984    0.139023
      5          6           0      -11.829694   -1.689989    1.219127
      6          6           0      -12.512417   -2.264697   -0.014193
      7          6           0      -11.496035   -0.221448   -1.271404
      8          6           0       11.151433    0.730600    1.221986
      9          6           0      -10.870635    0.101749    2.610332
     10          6           0      -13.131418    0.336544    1.435051
     11          6           0       12.563364    1.255787    0.907493
     12          6           0      -12.190569   -1.347556   -1.244777
     13          6           0       13.512395    0.265916    0.374114
     14          6           0       10.688544   -0.130787    0.112938
     15          6           0       -9.514242   -0.076397    0.041164
     16          6           0       12.952642   -0.209876   -1.024554
     17          6           0       11.530893   -0.567460   -0.877852
     18          6           0       10.248728    2.060873    1.349240
     19          6           0       11.097707   -0.023898    2.554142
     20          6           0      -11.234748    0.531442   -2.463408
     21          6           0       -8.523725    0.754086    0.068149
     22          6           0        9.336060   -0.519277    0.103755
     23          6           0       11.099837   -1.272337   -2.164557
     24          6           0       -7.121433    0.577917    0.106172
     25          6           0        8.782720   -1.701611   -0.272566
     26          6           0       -6.671379   -0.849854    0.226424
     27          6           0        7.320549   -1.930137   -0.228409
     28          6           0       -6.229567    1.703743   -0.230697
     29          6           0        7.100070   -3.444474   -0.208076
     30          6           0        6.264589   -1.085661   -0.235758
     31          6           0       -4.857970    1.590644   -0.489882
     32          6           0        4.957477   -1.452776   -0.274671
     33          6           0       -4.082608    2.726252   -0.605747
     34          6           0       -2.668066    2.837807   -0.689560
     35          6           0        3.905369   -0.473627   -0.347260
     36          6           0        2.565910   -0.704157   -0.216545
     37          6           0       -2.102489    4.236431   -0.829078
     38          6           0       -1.816992    1.656909   -0.438681
     39          6           0        1.746180    0.500004   -0.409259
     40          6           0        2.007898   -1.948221   -0.014522
     41          6           0       -0.432462    1.691408   -0.518397
     42          6           0        0.356988    0.519647   -0.298296
     43          1           0      -11.224016    1.505180    0.092792
     44          1           0      -12.429606   -2.308986    1.905819
     45          1           0      -10.828582   -2.193874    1.228579
     46          1           0      -12.152262   -3.280683   -0.304398
     47          1           0       -9.863053   -0.248681    2.256036
     48          1           0      -11.201458    1.168057    2.788421
     49          1           0      -11.285554   -0.540883    3.532547
     50          1           0      -13.819878    0.304004    0.576544
     51          1           0      -13.525012   -0.149262    2.402817
     52          1           0      -12.896220    1.348890    1.571622
     53          1           0       12.514625    1.987807    0.147446
     54          1           0       13.164509    1.758217    1.793760
     55          1           0      -12.578698   -1.614785   -2.199154
     56          1           0       13.500356   -0.662798    1.046493
     57          1           0       -9.281692   -1.080676    0.303318
     58          1           0       13.881742   -0.853138   -1.365407
     59          1           0       12.931786    0.584759   -1.587862
     60          1           0        9.327994    1.601012    1.733030
     61          1           0        9.885830    2.654194    0.543697
     62          1           0       10.520173    2.779920    2.139300
     63          1           0       11.869019   -0.698074    2.780813
     64          1           0       10.287028   -0.584735    2.854570
     65          1           0       11.362019    0.801663    3.332129
     66          1           0      -10.114652    0.573269   -2.493660
     67          1           0      -11.630184    1.500838   -2.408079
     68          1           0      -11.708473   -0.062646   -3.360984
     69          1           0      -14.337850   -2.875831   -0.564686
     70          1           0        8.543551    0.115239    0.371988
     71          1           0       -8.633088    1.911954   -0.198359
     72          1           0       11.349583   -2.351655   -2.129377
     73          1           0       10.051655   -1.450573   -2.328698
     74          1           0       11.740298   -1.047341   -3.063508
     75          1           0       15.240899    0.854930    0.889026
     76          1           0        9.382256   -2.439007   -0.560271
     77          1           0       -5.605544   -0.964781    0.394830
     78          1           0       -7.169522   -1.298303    1.105257
     79          1           0       -6.883729   -1.527629   -0.741694
     80          1           0       -6.638700    2.562250   -0.202160
     81          1           0        6.756270   -3.765553    0.805572
     82          1           0        6.309099   -3.764185   -0.801560
     83          1           0        7.994560   -4.067067   -0.477012
     84          1           0        6.501986   -0.061644    0.003614
     85          1           0       -4.419428    0.677108   -0.678057
     86          1           0        4.691843   -2.588542   -0.246113
     87          1           0       -4.644510    3.770440   -0.264905
     88          1           0        4.145722    0.456325   -0.450216
     89          1           0       -1.017818    4.309102   -1.643658
     90          1           0       -1.811016    4.703934    0.335812
     91          1           0       -3.274172    4.664655   -1.377905
     92          1           0       -2.446362    0.804939    0.020365
     93          1           0        2.349286    1.312780   -0.438169
     94          1           0        2.388245   -2.384827    0.978165
     95          1           0        0.915448   -2.101189    0.279220
     96          1           0        2.291917   -2.626456   -0.858221
     97          1           0        0.014591    2.776563   -0.852048
     98          1           0       -0.403667   -0.348058   -0.115235
 ---------------------------------------------------------------------

 SCF Done:  E(RCAM-B3LYP) =  -1706.85417910     A.U. after   17 cycles

 Excitation energies and oscillator strengths:

 Excited State   1:      Singlet-A      1.6786 eV  738.64 nm  f=2.9696  <S**2>=0.000
     155 ->158        -0.12242
     156 ->157         0.70623
     156 <-157        -0.13947
 This state for optimization and/or second-order correction.
 Total Energy, E(TD-HF/TD-DFT) =  -1706.79249352
 Copying the excited state density for this state as the 1-particle RhoCI density.

 The electronic state is 1-A.
 Alpha  occ. eigenvalues --  -19.22331 -19.21631 -10.31529 -10.30725 -10.30342
 Alpha  occ. eigenvalues --  -10.28603 -10.27888 -10.27820 -10.27722 -10.27638
 Alpha  occ. eigenvalues --  -10.27525 -10.27517 -10.27443 -10.27283 -10.27239
 Alpha  occ. eigenvalues --  -10.27193 -10.26889 -10.26187 -10.26110 -10.26100
 Alpha  occ. eigenvalues --  -10.26040 -10.25922 -10.25852 -10.25731 -10.25461
 Alpha  occ. eigenvalues --  -10.25425 -10.25361 -10.25282 -10.25279 -10.25219
 Alpha  occ. eigenvalues --  -10.25179 -10.25133 -10.24890 -10.24881 -10.24847
 Alpha  occ. eigenvalues --  -10.24832 -10.24821 -10.24620 -10.24517 -10.23897
 Alpha  occ. eigenvalues --  -10.23207 -10.22960  -1.10155  -1.06062  -0.94847
 Alpha  occ. eigenvalues --   -0.93420  -0.93007  -0.91347  -0.91006  -0.89721
 Alpha  occ. eigenvalues --   -0.87610  -0.87380  -0.87173  -0.86528  -0.84636
 Alpha  occ. eigenvalues --   -0.83106  -0.81913  -0.80681  -0.80491  -0.78812
 Alpha  occ. eigenvalues --   -0.77415  -0.77104  -0.76826  -0.75936  -0.75836
 Alpha  occ. eigenvalues --   -0.75512  -0.74630  -0.73471  -0.72119  -0.69652
 Alpha  occ. eigenvalues --   -0.68831  -0.66975  -0.66310  -0.66115  -0.64960
 Alpha  occ. eigenvalues --   -0.63769  -0.62061  -0.61191  -0.60974  -0.60145
 Alpha  occ. eigenvalues --   -0.59511  -0.59229  -0.57318  -0.56568  -0.56400
 Alpha  occ. eigenvalues --   -0.56297  -0.55277  -0.54741  -0.54040  -0.53928
 Alpha  occ. eigenvalues --   -0.53555  -0.53183  -0.52615  -0.52106  -0.50711
 Alpha  occ. eigenvalues --   -0.50299  -0.50223  -0.50058  -0.49617  -0.49559
 Alpha  occ. eigenvalues --   -0.49234  -0.48814  -0.48498  -0.47974  -0.47748
 Alpha  occ. eigenvalues --   -0.47569  -0.47087  -0.46883  -0.46592  -0.46069
 Alpha  occ. eigenvalues --   -0.45807  -0.45515  -0.45227  -0.44838  -0.44643
 Alpha  occ. eigenvalues --   -0.44306  -0.44005  -0.43972  -0.43746  -0.43421
 Alpha  occ. eigenvalues --   -0.43158  -0.43021  -0.42654  -0.42365  -0.41983
 Alpha  occ. eigenvalues --   -0.41908  -0.41566  -0.41491  -0.41266  -0.41134
 Alpha  occ. eigenvalues --   -0.40244  -0.39570  -0.39349  -0.39248  -0.39172
 Alpha  occ. eigenvalues --   -0.38848  -0.38641  -0.38467  -0.38001  -0.37843
 Alpha  occ. eigenvalues --   -0.37711  -0.37342  -0.37236  -0.35662  -0.35404
 Alpha  occ. eigenvalues --   -0.34936  -0.34708  -0.32866  -0.32420  -0.32093
 Alpha  occ. eigenvalues --   -0.31285  -0.29142  -0.28548  -0.26402  -0.23400
 Alpha  occ. eigenvalues --   -0.17820
 Alpha virt. eigenvalues --   -0.07422  -0.01529   0.02085   0.05346   0.07636
 Alpha virt. eigenvalues --    0.08550   0.08902   0.10114   0.11325   0.12382
 Alpha virt. eigenvalues --    0.12550   0.12873   0.12968   0.13184   0.13375

 Mulliken charges:
               1
     1  O   -0.537392
     2  O   -0.548710
     3  C    0.010963
     4  C   -0.131577
     5  C   -0.172337
     6  C    0.106988
     7  C    0.107033
     8  C   -0.024868
     9  C   -0.276059
    10  C   -0.280009
    11  C   -0.158735
    12  C   -0.121626
    13  C    0.113807
    14  C    0.089129
    15  C   -0.114521
    16  C   -0.227582
    17  C    0.055672
    18  C   -0.324138
    19  C   -0.308740
    20  C   -0.347594
    21  C   -0.044887
    22  C   -0.101205
    23  C   -0.379694
    24  C    0.080501
    25  C   -0.095634
    26  C   -0.375545
    27  C    0.062969
    28  C   -0.093420
    29  C   -0.387027
    30  C   -0.091082
    31  C   -0.057595
    32  C   -0.105170
    33  C   -0.135275
    34  C    0.079051
    35  C   -0.105216
    36  C    0.165701
    37  C   -0.309928
    38  C   -0.107468
    39  C   -0.120670
    40  C   -0.407223
    41  C   -0.074577
    42  C   -0.102595
    43  H    0.066995
    44  H    0.107178
    45  H    0.077299
    46  H    0.086697
    47  H    0.111398
    48  H    0.098460
    49  H    0.076826
    50  H    0.130848
    51  H    0.095907
    52  H    0.085872
    53  H    0.111778
    54  H    0.057002
    55  H    0.047383
    56  H    0.075102
    57  H    0.094436
    58  H    0.110962
    59  H    0.140016
    60  H    0.100192
    61  H    0.115247
    62  H    0.105125
    63  H    0.108518
    64  H    0.120782
    65  H    0.086071
    66  H    0.119668
    67  H    0.121033
    68  H    0.091906
    69  H    0.298548
    70  H    0.078253
    71  H    0.055448
    72  H    0.111923
    73  H    0.122249
    74  H    0.111988
    75  H    0.302607
    76  H    0.077504
    77  H    0.105392
    78  H    0.116224
    79  H    0.105447
    80  H    0.064601
    81  H    0.120394
    82  H    0.122868
    83  H    0.104361
    84  H    0.082340
    85  H    0.089938
    86  H    0.084708
    87  H    0.076654
    88  H    0.061741
    89  H    0.082236
    90  H    0.109534
    91  H    0.078367
    92  H    0.085844
    93  H    0.083210
    94  H    0.114027
    95  H    0.112046
    96  H    0.125947
    97  H    0.075344
    98  H    0.093844
 Sum of Mulliken charges =  -0.00000

 Dipole moment (field-independent basis, Debye):
    X=              2.9634    Y=             -2.4161    Z=              0.5861  Tot=              3.8682
 Quadrupole moment (field-independent basis, Debye-Ang):
   XX=           -270.1130   YY=           -245.5655   ZZ=           -264.3190
   XY=              1.7023   XZ=             34.9980   YZ=              4.7351

 Normal termination of Gaussian 16 at Sat Jul 13 21:20:07 2019.
