 Gaussian 16, Revision A.03,
 Gaussian 16:  ES64L-G16RevA.03 25-Dec-2016

 -------------------------------------
 # td=(NStates=1) CAM-B3LYP/6-31G(d,p)
 -------------------------------------

 --
 TD
 --
 Symbolic Z-matrix:
 Charge =  0 Multiplicity = 1

                         Standard orientation:
 ---------------------------------------------------------------------
 Center     Atomic      Atomic             Coordinates (Angstroms)
 Number     Number       Type             X           Y           Z
 ---------------------------------------------------------------------
      1          8           0      -13.981381   -2.046547    0.623679
      2          8           0       14.821419    0.937068    0.155120
      3          6           0      -11.608143   -0.031370    1.301307
      4          6           0      -10.986936    0.411758    0.091849
      5          6           0      -11.863654   -1.419309    1.489800
      6          6           0      -12.638052   -2.036648    0.318952
      7          6           0      -11.712076   -0.244799   -0.994669
      8          6           0       11.085419    1.112003    1.063776
      9          6           0      -10.941149    0.534190    2.559739
     10          6           0      -12.993954    0.730999    1.433220
     11          6           0       12.449430    1.538522    0.853528
     12          6           0      -12.511156   -1.323633   -0.928447
     13          6           0       13.472519    0.434844    0.525408
     14          6           0       10.697803    0.014220    0.032804
     15          6           0       -9.541082   -0.029962    0.057232
     16          6           0       12.985950   -0.240624   -0.735903
     17          6           0       11.572227   -0.597110   -0.775367
     18          6           0       10.212190    2.402554    0.798910
     19          6           0       10.734795    0.631856    2.465110
     20          6           0      -11.518984    0.396772   -2.381345
     21          6           0       -8.483097    0.788065   -0.266494
     22          6           0        9.259862   -0.421567    0.068633
     23          6           0       11.304879   -1.605311   -1.829463
     24          6           0       -7.061811    0.423163   -0.227948
     25          6           0        8.826142   -1.761852    0.148454
     26          6           0       -6.602864   -1.066193   -0.303773
     27          6           0        7.358398   -2.133427   -0.003218
     28          6           0       -6.202779    1.430322   -0.437359
     29          6           0        7.106149   -3.634163   -0.097608
     30          6           0        6.370329   -1.240663   -0.119984
     31          6           0       -4.827216    1.387150   -0.561575
     32          6           0        5.068756   -1.498268   -0.036602
     33          6           0       -4.058149    2.473162   -0.530397
     34          6           0       -2.659236    2.525522   -0.856433
     35          6           0        4.027932   -0.617985   -0.267506
     36          6           0        2.630949   -0.812498   -0.346320
     37          6           0       -1.892472    3.847329   -1.093624
     38          6           0       -1.802963    1.405077   -0.660922
     39          6           0        1.775087    0.303439   -0.384312
     40          6           0        2.177175   -2.210559   -0.115775
     41          6           0       -0.424850    1.388671   -0.583279
     42          6           0        0.404751    0.247839   -0.438298
     43          1           0      -11.131135    1.576644   -0.128804
     44          1           0      -12.573411   -1.855687    2.382015
     45          1           0      -10.792774   -2.025718    1.651068
     46          1           0      -12.288832   -3.035812    0.176170
     47          1           0       -9.831884    0.202102    2.624216
     48          1           0      -11.057463    1.750961    2.412814
     49          1           0      -11.378986    0.198725    3.586828
     50          1           0      -13.746995    0.542116    0.762152
     51          1           0      -13.341644    0.521895    2.353629
     52          1           0      -12.816023    1.863795    1.446351
     53          1           0       12.624506    2.372981    0.203363
     54          1           0       12.938448    2.059501    1.717417
     55          1           0      -13.188569   -1.622613   -1.866285
     56          1           0       13.566664   -0.304475    1.387913
     57          1           0       -9.423529   -1.151968    0.069451
     58          1           0       13.487655   -1.141640   -1.004924
     59          1           0       13.507028    0.310910   -1.659961
     60          1           0        9.122456    2.390614    1.126388
     61          1           0       10.303729    2.756072   -0.271929
     62          1           0       10.803731    3.235609    1.382921
     63          1           0       11.242873   -0.314988    2.753164
     64          1           0        9.808255    0.363745    2.584642
     65          1           0       11.081542    1.246078    3.258662
     66          1           0      -10.410761    0.396979   -2.785637
     67          1           0      -11.798922    1.352607   -2.397206
     68          1           0      -12.093322   -0.064327   -3.180567
     69          1           0      -14.666541   -2.465626    0.063347
     70          1           0        8.489154    0.319987    0.468598
     71          1           0       -8.614540    1.968258   -0.402149
     72          1           0       11.669172   -2.698141   -1.478891
     73          1           0       10.137549   -1.855406   -1.983806
     74          1           0       11.708040   -1.488171   -2.726055
     75          1           0       14.850855    1.599484    0.983604
     76          1           0        9.505516   -2.535527   -0.067944
     77          1           0       -5.556737   -1.129105   -0.334564
     78          1           0       -6.959225   -1.514504    0.570779
     79          1           0       -7.344850   -1.719576   -0.936080
     80          1           0       -6.702628    2.422881   -0.603321
     81          1           0        6.655579   -4.001483    0.908712
     82          1           0        6.343768   -3.950222   -0.944964
     83          1           0        8.056970   -4.289470   -0.200187
     84          1           0        6.661639   -0.077098   -0.144203
     85          1           0       -4.361988    0.572264   -0.504520
     86          1           0        4.939316   -2.453670   -0.071918
     87          1           0       -4.615128    3.328112   -0.685529
     88          1           0        4.203432    0.469446   -0.163077
     89          1           0       -1.636057    4.093331   -2.065726
     90          1           0       -0.945053    3.898395   -0.339381
     91          1           0       -2.657535    4.685823   -0.869903
     92          1           0       -2.211172    0.322687   -0.464851
     93          1           0        2.307988    1.054447   -0.765200
     94          1           0        3.112267   -2.784876    0.653276
     95          1           0        1.118981   -2.204082    0.336721
     96          1           0        2.060612   -2.854367   -1.111688
     97          1           0        0.097742    2.230723   -0.949640
     98          1           0       -0.120775   -0.701881   -0.378282
 ---------------------------------------------------------------------

 SCF Done:  E(RCAM-B3LYP) =  -1706.89571950     A.U. after   15 cycles

 Excitation energies and oscillator strengths:

 Excited State   1:      Singlet-A      1.9933 eV  622.01 nm  f=3.0536  <S**2>=0.000
     155 ->158        -0.13791
     156 ->157         0.69765
     156 <-157        -0.10563
 This state for optimization and/or second-order correction.
 Total Energy, E(TD-HF/TD-DFT) =  -1706.82246747
 Copying the excited state density for this state as the 1-particle RhoCI density.

 The electronic state is 1-A.
 Alpha  occ. eigenvalues --  -19.22486 -19.20363 -10.31108 -10.29583 -10.28272
 Alpha  occ. eigenvalues --  -10.28236 -10.28156 -10.27797 -10.27549 -10.27339
 Alpha  occ. eigenvalues --  -10.27322 -10.27246 -10.27092 -10.26964 -10.26914
 Alpha  occ. eigenvalues --  -10.26847 -10.26690 -10.26688 -10.26648 -10.26562
 Alpha  occ. eigenvalues --  -10.26519 -10.26485 -10.26389 -10.25942 -10.25929
 Alpha  occ. eigenvalues --  -10.25885 -10.25845 -10.25837 -10.25768 -10.25547
 Alpha  occ. eigenvalues --  -10.25530 -10.25336 -10.25197 -10.25156 -10.25148
 Alpha  occ. eigenvalues --  -10.25120 -10.24808 -10.24139 -10.24060 -10.24010
 Alpha  occ. eigenvalues --  -10.23357 -10.21882  -1.10047  -1.07158  -0.95986
 Alpha  occ. eigenvalues --   -0.94449  -0.92665  -0.92385  -0.90877  -0.89571
 Alpha  occ. eigenvalues --   -0.88417  -0.87226  -0.86663  -0.85626  -0.84613
 Alpha  occ. eigenvalues --   -0.83460  -0.82132  -0.80470  -0.79792  -0.78111
 Alpha  occ. eigenvalues --   -0.77562  -0.77357  -0.76266  -0.76182  -0.75424
 Alpha  occ. eigenvalues --   -0.75196  -0.75028  -0.73452  -0.72816  -0.71033
 Alpha  occ. eigenvalues --   -0.69093  -0.68405  -0.66963  -0.65493  -0.64872
 Alpha  occ. eigenvalues --   -0.63925  -0.63703  -0.63208  -0.61150  -0.60351
 Alpha  occ. eigenvalues --   -0.59624  -0.59140  -0.57915  -0.57493  -0.56265
 Alpha  occ. eigenvalues --   -0.55833  -0.55136  -0.55016  -0.54372  -0.54313
 Alpha  occ. eigenvalues --   -0.53437  -0.52894  -0.52470  -0.51930  -0.51333
 Alpha  occ. eigenvalues --   -0.50464  -0.50352  -0.49689  -0.49327  -0.48836
 Alpha  occ. eigenvalues --   -0.48613  -0.48268  -0.48197  -0.47798  -0.47413
 Alpha  occ. eigenvalues --   -0.47140  -0.46664  -0.46538  -0.46420  -0.46045
 Alpha  occ. eigenvalues --   -0.45950  -0.45744  -0.45544  -0.45133  -0.44816
 Alpha  occ. eigenvalues --   -0.44408  -0.44076  -0.43420  -0.43343  -0.43276
 Alpha  occ. eigenvalues --   -0.43074  -0.42738  -0.42476  -0.42026  -0.41870
 Alpha  occ. eigenvalues --   -0.41816  -0.41586  -0.41039  -0.40866  -0.40583
 Alpha  occ. eigenvalues --   -0.40187  -0.39876  -0.39652  -0.39545  -0.39319
 Alpha  occ. eigenvalues --   -0.39103  -0.39015  -0.38975  -0.38854  -0.38587
 Alpha  occ. eigenvalues --   -0.37700  -0.37542  -0.37120  -0.36228  -0.35389
 Alpha  occ. eigenvalues --   -0.34566  -0.34219  -0.33731  -0.32970  -0.32009
 Alpha  occ. eigenvalues --   -0.31915  -0.29289  -0.28543  -0.26824  -0.23914
 Alpha  occ. eigenvalues --   -0.18952
 Alpha virt. eigenvalues --   -0.06564  -0.00999   0.02341   0.05616   0.07201
 Alpha virt. eigenvalues --    0.08843   0.10386   0.10559   0.11446   0.11723
 Alpha virt. eigenvalues --    0.12212   0.12797   0.13099   0.13443   0.13501

 Mulliken charges:
               1
     1  O   -0.563711
     2  O   -0.555346
     3  C    0.014965
     4  C   -0.109285
     5  C   -0.182119
     6  C    0.162932
     7  C    0.103704
     8  C    0.010658
     9  C   -0.279702
    10  C   -0.285898
    11  C   -0.222259
    12  C   -0.113360
    13  C    0.139346
    14  C    0.051186
    15  C   -0.087820
    16  C   -0.233200
    17  C    0.102524
    18  C   -0.307190
    19  C   -0.295770
    20  C   -0.359052
    21  C   -0.107248
    22  C   -0.122478
    23  C   -0.371671
    24  C    0.120389
    25  C   -0.108546
    26  C   -0.371729
    27  C    0.080462
    28  C   -0.135830
    29  C   -0.381496
    30  C   -0.086032
    31  C   -0.005949
    32  C   -0.062046
    33  C   -0.109708
    34  C    0.059079
    35  C   -0.123913
    36  C    0.124683
    37  C   -0.368466
    38  C   -0.107259
    39  C   -0.107757
    40  C   -0.358569
    41  C   -0.082873
    42  C   -0.094096
    43  H    0.094712
    44  H    0.116802
    45  H    0.060791
    46  H    0.078571
    47  H    0.088290
    48  H    0.070787
    49  H    0.093151
    50  H    0.117162
    51  H    0.107903
    52  H    0.067923
    53  H    0.120210
    54  H    0.068826
    55  H    0.071145
    56  H    0.089467
    57  H    0.089897
    58  H    0.109236
    59  H    0.111477
    60  H    0.101512
    61  H    0.110509
    62  H    0.085943
    63  H    0.093393
    64  H    0.120926
    65  H    0.103882
    66  H    0.100081
    67  H    0.116530
    68  H    0.099772
    69  H    0.311377
    70  H    0.087475
    71  H    0.076445
    72  H    0.091732
    73  H    0.103745
    74  H    0.128864
    75  H    0.299006
    76  H    0.087627
    77  H    0.120528
    78  H    0.128951
    79  H    0.116418
    80  H    0.071699
    81  H    0.116526
    82  H    0.116099
    83  H    0.106295
    84  H    0.060944
    85  H    0.051772
    86  H    0.064406
    87  H    0.072740
    88  H    0.070224
    89  H    0.137147
    90  H    0.113296
    91  H    0.093829
    92  H    0.066068
    93  H    0.086714
    94  H    0.077032
    95  H    0.107848
    96  H    0.110696
    97  H    0.083634
    98  H    0.082417
 Sum of Mulliken charges =  -0.00000

 Dipole moment (field-independent basis, Debye):
    X=             -1.3032    Y=             -1.0704    Z=             -0.4460  Tot=              1.7444
 Quadrupole moment (field-independent basis, Debye-Ang):
   XX=           -258.3131   YY=           -241.7241   ZZ=           -263.3024
   XY=             16.2941   XZ=             32.3712   YZ=              1.8516

 Normal termination of Gaussian 16 at Sun Jul 14 16:03:46 2019.
