 Gaussian 16, Revision A.03,
 Gaussian 16:  ES64L-G16RevA.03 25-Dec-2016

 -------------------------------------
 # td=(NStates=1) CAM-B3LYP/6-31G(d,p)
 -------------------------------------

 --
 TD
 --
 Symbolic Z-matrix:
 Charge =  0 Multiplicity = 1

                         Standard orientation:
 ---------------------------------------------------------------------
 Center     Atomic      Atomic             Coordinates (Angstroms)
 Number     Number       Type             X           Y           Z
 ---------------------------------------------------------------------
      1          8           0      -14.070182   -1.968466    0.456801
      2          8           0       14.790405    0.940975    0.180992
      3          6           0      -11.715283    0.042585    1.341900
      4          6           0      -11.001188    0.341495    0.017149
      5          6           0      -12.000188   -1.425996    1.446760
      6          6           0      -12.744581   -2.122054    0.347828
      7          6           0      -11.601767   -0.363857   -1.227849
      8          6           0       11.081258    1.056350    1.035393
      9          6           0      -11.011442    0.590441    2.542703
     10          6           0      -13.210333    0.726042    1.208359
     11          6           0       12.528137    1.569014    0.716309
     12          6           0      -12.264237   -1.542278   -1.095192
     13          6           0       13.448553    0.455422    0.427219
     14          6           0       10.663034   -0.027739    0.007134
     15          6           0       -9.489945    0.037720    0.099184
     16          6           0       13.023284   -0.208788   -0.873687
     17          6           0       11.591197   -0.535977   -0.894135
     18          6           0       10.192032    2.271136    1.078768
     19          6           0       10.912987    0.411805    2.407728
     20          6           0      -11.274472    0.120196   -2.488043
     21          6           0       -8.475118    0.959904   -0.115829
     22          6           0        9.211955   -0.430379    0.126462
     23          6           0       11.171037   -1.506984   -2.057767
     24          6           0       -7.127978    0.562959   -0.094536
     25          6           0        8.713122   -1.826641   -0.054768
     26          6           0       -6.656259   -0.869995    0.147384
     27          6           0        7.388357   -2.119439   -0.009503
     28          6           0       -6.192159    1.558305   -0.362379
     29          6           0        7.058468   -3.639325    0.072527
     30          6           0        6.423307   -1.258995   -0.237516
     31          6           0       -4.808565    1.479821   -0.388651
     32          6           0        4.997809   -1.519629   -0.130328
     33          6           0       -3.975243    2.573308   -0.682315
     34          6           0       -2.606861    2.531955   -0.816202
     35          6           0        4.083010   -0.480300   -0.192685
     36          6           0        2.687640   -0.725487   -0.149519
     37          6           0       -1.891789    3.882454   -1.079063
     38          6           0       -1.793613    1.344164   -0.593177
     39          6           0        1.758182    0.284202   -0.357416
     40          6           0        2.231445   -2.151811    0.141938
     41          6           0       -0.452894    1.327288   -0.571738
     42          6           0        0.401601    0.189263   -0.263120
     43          1           0      -11.078402    1.312488    0.038313
     44          1           0      -12.654875   -1.491691    2.406835
     45          1           0      -11.075380   -1.881466    1.182359
     46          1           0      -12.573509   -3.328002    0.248264
     47          1           0      -10.069547    0.038688    2.629176
     48          1           0      -10.624068    1.761032    2.461625
     49          1           0      -11.630226    0.240181    3.440932
     50          1           0      -13.793646    0.369692    0.336206
     51          1           0      -13.535723    0.590807    2.164127
     52          1           0      -13.064048    1.992725    1.129257
     53          1           0       12.655608    2.309961   -0.054296
     54          1           0       12.989531    1.964986    1.589216
     55          1           0      -12.807357   -2.039430   -1.945793
     56          1           0       13.437632   -0.450351    1.152164
     57          1           0       -9.385803   -1.068713    0.411495
     58          1           0       13.645655   -1.031993   -0.941425
     59          1           0       13.276632    0.258719   -1.797008
     60          1           0        9.277759    1.902231    1.477199
     61          1           0       10.072631    2.668494    0.095825
     62          1           0       10.551593    3.223387    1.666068
     63          1           0       11.591845   -0.632004    2.503312
     64          1           0        9.960042    0.273690    2.597241
     65          1           0       11.183771    1.290700    3.219556
     66          1           0      -10.157657    0.097630   -2.958303
     67          1           0      -11.694141    1.156252   -2.533902
     68          1           0      -11.957346   -0.453817   -3.207971
     69          1           0      -14.496093   -2.262266   -0.425881
     70          1           0        8.367533    0.322268    0.405395
     71          1           0       -8.926002    1.892913   -0.494445
     72          1           0       11.511513   -2.391595   -1.813437
     73          1           0       10.138038   -1.618215   -2.203757
     74          1           0       11.605324   -1.080824   -2.995326
     75          1           0       15.372340    1.261066    1.031082
     76          1           0        9.286639   -2.691389   -0.097850
     77          1           0       -5.485502   -0.825614    0.540543
     78          1           0       -7.281159   -1.550770    0.917885
     79          1           0       -6.524602   -1.572662   -0.847359
     80          1           0       -6.520490    2.441556   -0.771270
     81          1           0        6.610514   -3.984019    1.076602
     82          1           0        6.498344   -3.995889   -0.693589
     83          1           0        7.968495   -4.374656    0.200910
     84          1           0        6.593085   -0.299099   -0.332886
     85          1           0       -4.258860    0.513135   -0.271136
     86          1           0        4.573989   -2.559065    0.028634
     87          1           0       -4.471829    3.541593   -0.779839
     88          1           0        4.344700    0.564362   -0.247520
     89          1           0       -1.428269    3.784899   -2.024442
     90          1           0       -1.079873    4.141817   -0.449076
     91          1           0       -2.608792    4.596139   -1.240488
     92          1           0       -2.229655    0.505175   -0.328051
     93          1           0        2.040634    1.337569   -0.889329
     94          1           0        3.023362   -2.771519    0.775641
     95          1           0        1.128779   -1.883994    0.642331
     96          1           0        2.182859   -2.609762   -1.038836
     97          1           0        0.083431    2.203502   -0.711299
     98          1           0        0.043798   -0.849849    0.048035
 ---------------------------------------------------------------------

 SCF Done:  E(RCAM-B3LYP) =  -1706.87491028     A.U. after   17 cycles

 Excitation energies and oscillator strengths:

 Excited State   1:      Singlet-A      1.6603 eV  746.78 nm  f=3.0277  <S**2>=0.000
     155 ->158        -0.12678
     156 ->157         0.70771
     156 <-157        -0.14643
 This state for optimization and/or second-order correction.
 Total Energy, E(TD-HF/TD-DFT) =  -1706.81389709
 Copying the excited state density for this state as the 1-particle RhoCI density.

 The electronic state is 1-A.
 Alpha  occ. eigenvalues --  -19.22061 -19.21345 -10.31976 -10.30300 -10.29276
 Alpha  occ. eigenvalues --  -10.29162 -10.28441 -10.28005 -10.27666 -10.27171
 Alpha  occ. eigenvalues --  -10.27074 -10.27040 -10.26955 -10.26916 -10.26788
 Alpha  occ. eigenvalues --  -10.26665 -10.26610 -10.26594 -10.26442 -10.26433
 Alpha  occ. eigenvalues --  -10.26395 -10.26285 -10.26094 -10.26093 -10.26092
 Alpha  occ. eigenvalues --  -10.25875 -10.25858 -10.25827 -10.25763 -10.25745
 Alpha  occ. eigenvalues --  -10.25547 -10.25186 -10.25032 -10.25017 -10.24706
 Alpha  occ. eigenvalues --  -10.24416 -10.24322 -10.24171 -10.23993 -10.23679
 Alpha  occ. eigenvalues --  -10.23661 -10.23511  -1.11983  -1.06306  -0.93938
 Alpha  occ. eigenvalues --   -0.93120  -0.92272  -0.91895  -0.91001  -0.90044
 Alpha  occ. eigenvalues --   -0.88042  -0.87282  -0.87071  -0.85047  -0.83872
 Alpha  occ. eigenvalues --   -0.82899  -0.81944  -0.79953  -0.79516  -0.78607
 Alpha  occ. eigenvalues --   -0.76853  -0.76517  -0.76147  -0.75598  -0.75150
 Alpha  occ. eigenvalues --   -0.74962  -0.74528  -0.74382  -0.72150  -0.70281
 Alpha  occ. eigenvalues --   -0.69211  -0.67333  -0.66536  -0.65074  -0.63431
 Alpha  occ. eigenvalues --   -0.63407  -0.62445  -0.62262  -0.60932  -0.60570
 Alpha  occ. eigenvalues --   -0.59976  -0.59113  -0.58024  -0.57096  -0.56407
 Alpha  occ. eigenvalues --   -0.55148  -0.55063  -0.54574  -0.54479  -0.53794
 Alpha  occ. eigenvalues --   -0.53360  -0.53114  -0.52903  -0.52269  -0.50954
 Alpha  occ. eigenvalues --   -0.50246  -0.49915  -0.49881  -0.49617  -0.49380
 Alpha  occ. eigenvalues --   -0.48989  -0.48812  -0.48074  -0.47891  -0.47623
 Alpha  occ. eigenvalues --   -0.47151  -0.47057  -0.46746  -0.46047  -0.45788
 Alpha  occ. eigenvalues --   -0.45674  -0.45442  -0.45186  -0.44957  -0.44820
 Alpha  occ. eigenvalues --   -0.44556  -0.44274  -0.43822  -0.43727  -0.43671
 Alpha  occ. eigenvalues --   -0.43349  -0.43100  -0.42741  -0.42398  -0.42335
 Alpha  occ. eigenvalues --   -0.42048  -0.41925  -0.41516  -0.41322  -0.40845
 Alpha  occ. eigenvalues --   -0.40670  -0.40082  -0.39458  -0.39403  -0.39314
 Alpha  occ. eigenvalues --   -0.38887  -0.38533  -0.38418  -0.38121  -0.37963
 Alpha  occ. eigenvalues --   -0.37341  -0.37271  -0.36302  -0.35837  -0.35271
 Alpha  occ. eigenvalues --   -0.34401  -0.34050  -0.33281  -0.31970  -0.31597
 Alpha  occ. eigenvalues --   -0.30699  -0.29463  -0.29115  -0.26278  -0.23031
 Alpha  occ. eigenvalues --   -0.17572
 Alpha virt. eigenvalues --   -0.07343  -0.01708   0.02342   0.05193   0.06932
 Alpha virt. eigenvalues --    0.09321   0.10297   0.10467   0.11071   0.11544
 Alpha virt. eigenvalues --    0.12142   0.12491   0.12863   0.13020   0.13257

 Mulliken charges:
               1
     1  O   -0.515271
     2  O   -0.592952
     3  C   -0.000868
     4  C   -0.116082
     5  C   -0.167356
     6  C    0.170501
     7  C    0.160992
     8  C   -0.037013
     9  C   -0.289292
    10  C   -0.275502
    11  C   -0.157192
    12  C   -0.187013
    13  C    0.159365
    14  C    0.078595
    15  C   -0.090771
    16  C   -0.213409
    17  C    0.014586
    18  C   -0.300000
    19  C   -0.263367
    20  C   -0.362282
    21  C   -0.111417
    22  C   -0.156267
    23  C   -0.348430
    24  C    0.126708
    25  C   -0.102741
    26  C   -0.353375
    27  C    0.119907
    28  C   -0.116823
    29  C   -0.387664
    30  C   -0.097655
    31  C   -0.062088
    32  C   -0.106347
    33  C   -0.136510
    34  C    0.069592
    35  C   -0.089047
    36  C    0.075003
    37  C   -0.376754
    38  C   -0.074224
    39  C   -0.105486
    40  C   -0.337876
    41  C   -0.092049
    42  C   -0.092600
    43  H    0.080183
    44  H    0.097950
    45  H    0.098710
    46  H    0.042331
    47  H    0.110037
    48  H    0.091356
    49  H    0.093951
    50  H    0.125558
    51  H    0.104756
    52  H    0.034549
    53  H    0.109000
    54  H    0.078336
    55  H    0.065505
    56  H    0.075144
    57  H    0.081377
    58  H    0.117200
    59  H    0.119909
    60  H    0.096110
    61  H    0.108964
    62  H    0.092522
    63  H    0.076225
    64  H    0.124185
    65  H    0.064581
    66  H    0.116756
    67  H    0.107767
    68  H    0.097415
    69  H    0.308884
    70  H    0.098979
    71  H    0.096250
    72  H    0.127018
    73  H    0.123959
    74  H    0.099695
    75  H    0.306169
    76  H    0.084447
    77  H    0.094518
    78  H    0.105342
    79  H    0.109697
    80  H    0.079657
    81  H    0.107569
    82  H    0.137413
    83  H    0.089534
    84  H    0.063954
    85  H    0.081901
    86  H    0.082542
    87  H    0.080612
    88  H    0.082842
    89  H    0.128382
    90  H    0.129662
    91  H    0.111340
    92  H    0.062848
    93  H    0.070646
    94  H    0.112637
    95  H    0.095160
    96  H    0.107423
    97  H    0.072561
    98  H    0.078458
 Sum of Mulliken charges =  -0.00000

 Dipole moment (field-independent basis, Debye):
    X=             -0.1557    Y=             -0.5810    Z=             -0.7825  Tot=              0.9870
 Quadrupole moment (field-independent basis, Debye-Ang):
   XX=           -256.7658   YY=           -244.8310   ZZ=           -263.0431
   XY=              3.9608   XZ=             37.2970   YZ=              1.0677

 Normal termination of Gaussian 16 at Sat Jul 13 13:36:48 2019.
