 Gaussian 16, Revision A.03,
 Gaussian 16:  ES64L-G16RevA.03 25-Dec-2016

 -------------------------------------
 # td=(NStates=1) CAM-B3LYP/6-31G(d,p)
 -------------------------------------

 --
 TD
 --
 Symbolic Z-matrix:
 Charge =  0 Multiplicity = 1

                         Standard orientation:
 ---------------------------------------------------------------------
 Center     Atomic      Atomic             Coordinates (Angstroms)
 Number     Number       Type             X           Y           Z
 ---------------------------------------------------------------------
      1          8           0      -14.083800   -1.952334    0.662445
      2          8           0       14.840713    0.836395    0.189332
      3          6           0      -11.771129    0.151425    1.368799
      4          6           0      -11.035214    0.267525   -0.024951
      5          6           0      -11.942187   -1.500242    1.551789
      6          6           0      -12.679023   -2.168815    0.455527
      7          6           0      -11.725952   -0.495313   -1.185586
      8          6           0       11.046421    1.108347    1.054499
      9          6           0      -10.736528    0.666313    2.383188
     10          6           0      -13.017140    0.877685    1.340341
     11          6           0       12.520889    1.552890    0.778604
     12          6           0      -12.374686   -1.617011   -0.957655
     13          6           0       13.509465    0.367832    0.445834
     14          6           0       10.639767    0.025768   -0.036618
     15          6           0       -9.608190   -0.015453   -0.043649
     16          6           0       13.007501   -0.270802   -0.918791
     17          6           0       11.564723   -0.578561   -0.899403
     18          6           0       10.119932    2.289245    0.879852
     19          6           0       10.994809    0.425645    2.559432
     20          6           0      -11.512582    0.111745   -2.610417
     21          6           0       -8.563977    0.797866   -0.313521
     22          6           0        9.338756   -0.434941    0.105606
     23          6           0       11.145404   -1.499354   -2.065437
     24          6           0       -7.084591    0.485419   -0.232213
     25          6           0        8.844646   -1.648929   -0.049200
     26          6           0       -6.779854   -0.933582   -0.048588
     27          6           0        7.458438   -2.065985   -0.020843
     28          6           0       -6.198342    1.553741   -0.459097
     29          6           0        7.139235   -3.592862    0.000861
     30          6           0        6.411736   -1.228034   -0.135848
     31          6           0       -4.802501    1.354025   -0.571285
     32          6           0        5.008580   -1.545554   -0.117667
     33          6           0       -3.988385    2.519962   -0.654958
     34          6           0       -2.569625    2.574615   -0.684718
     35          6           0        4.001327   -0.675128   -0.270772
     36          6           0        2.615802   -0.844591   -0.170375
     37          6           0       -1.902676    3.945532   -1.008502
     38          6           0       -1.746674    1.480078   -0.364743
     39          6           0        1.769794    0.306780   -0.475352
     40          6           0        2.081173   -2.147234    0.269266
     41          6           0       -0.411708    1.538024   -0.414709
     42          6           0        0.464161    0.340838   -0.307154
     43          1           0      -11.140152    1.240939   -0.326712
     44          1           0      -12.518688   -1.512430    2.576366
     45          1           0      -10.840786   -2.001944    1.852331
     46          1           0      -12.498589   -3.085414    0.483810
     47          1           0       -9.812549    0.153134    2.293706
     48          1           0      -10.549388    1.708548    2.146024
     49          1           0      -11.105369    0.472748    3.503878
     50          1           0      -13.429405    0.772318    0.374717
     51          1           0      -13.729356    0.542297    2.207818
     52          1           0      -12.986081    2.074152    1.450169
     53          1           0       12.682965    2.274986   -0.003951
     54          1           0       12.880293    1.981214    1.739908
     55          1           0      -12.815175   -2.146891   -1.806022
     56          1           0       13.688937   -0.443318    1.155619
     57          1           0       -9.246112   -0.997013    0.417337
     58          1           0       13.689369   -1.015870   -1.116152
     59          1           0       13.216912    0.488578   -1.583894
     60          1           0        9.067155    2.046816    1.207232
     61          1           0       10.165856    2.718801   -0.246438
     62          1           0       10.500271    3.057118    1.646800
     63          1           0       11.566452   -0.622003    2.596611
     64          1           0        9.793525    0.098951    2.751730
     65          1           0       11.248547    1.113741    3.359305
     66          1           0      -10.441104    0.356785   -3.012235
     67          1           0      -12.314850    0.973936   -2.507628
     68          1           0      -12.123230   -0.378118   -3.376184
     69          1           0      -14.487818   -2.083252   -0.255541
     70          1           0        8.696715    0.330675    0.510976
     71          1           0       -8.920144    1.894707   -0.721853
     72          1           0       11.492027   -2.551027   -1.775128
     73          1           0       10.054520   -1.607049   -2.325951
     74          1           0       11.627445   -1.189071   -3.028466
     75          1           0       14.934750    1.349593    1.086029
     76          1           0        9.461330   -2.487611   -0.267079
     77          1           0       -5.673265   -1.215687   -0.140597
     78          1           0       -7.022679   -1.473824    0.948586
     79          1           0       -7.206020   -1.475549   -0.965551
     80          1           0       -6.660350    2.470047   -0.847611
     81          1           0        6.374028   -3.843548    0.828058
     82          1           0        6.481074   -3.998946   -0.845626
     83          1           0        8.070141   -4.182586   -0.058345
     84          1           0        6.743888   -0.209725   -0.306576
     85          1           0       -4.372849    0.399800   -0.503578
     86          1           0        5.045585   -2.586985   -0.065452
     87          1           0       -4.369922    3.711085   -0.711148
     88          1           0        4.326823    0.399664   -0.396419
     89          1           0       -1.019914    3.672651   -1.647713
     90          1           0       -1.480117    4.316164   -0.092527
     91          1           0       -2.612039    4.700198   -1.339931
     92          1           0       -2.207705    0.424929   -0.386433
     93          1           0        2.296722    1.146391   -0.672120
     94          1           0        2.448615   -2.360607    1.314466
     95          1           0        1.028400   -2.128778    0.231056
     96          1           0        2.351561   -2.985993   -0.374178
     97          1           0        0.202457    2.475286   -0.654576
     98          1           0        0.002414   -0.728947   -0.044410
 ---------------------------------------------------------------------

 SCF Done:  E(RCAM-B3LYP) =  -1707.00022734     A.U. after   16 cycles

 Excitation energies and oscillator strengths:

 Excited State   1:      Singlet-A      1.7659 eV  702.10 nm  f=2.9823  <S**2>=0.000
     155 ->158         0.11639
     156 ->157         0.70896
     156 <-157        -0.14573
 This state for optimization and/or second-order correction.
 Total Energy, E(TD-HF/TD-DFT) =  -1706.93533184
 Copying the excited state density for this state as the 1-particle RhoCI density.

 The electronic state is 1-A.
 Alpha  occ. eigenvalues --  -19.21820 -19.20775 -10.30588 -10.29086 -10.29053
 Alpha  occ. eigenvalues --  -10.28109 -10.28098 -10.28059 -10.27579 -10.27553
 Alpha  occ. eigenvalues --  -10.27421 -10.27418 -10.27290 -10.27280 -10.27166
 Alpha  occ. eigenvalues --  -10.27102 -10.27097 -10.27078 -10.27047 -10.26926
 Alpha  occ. eigenvalues --  -10.26833 -10.26652 -10.26633 -10.26553 -10.26148
 Alpha  occ. eigenvalues --  -10.26089 -10.26085 -10.25957 -10.25863 -10.25782
 Alpha  occ. eigenvalues --  -10.25769 -10.25396 -10.25279 -10.25220 -10.25208
 Alpha  occ. eigenvalues --  -10.25077 -10.24966 -10.24596 -10.24560 -10.24454
 Alpha  occ. eigenvalues --  -10.24030 -10.23927  -1.08638  -1.08242  -0.93165
 Alpha  occ. eigenvalues --   -0.93121  -0.92136  -0.91248  -0.90266  -0.89615
 Alpha  occ. eigenvalues --   -0.86886  -0.86529  -0.86312  -0.85590  -0.84533
 Alpha  occ. eigenvalues --   -0.83010  -0.81804  -0.80605  -0.79523  -0.79160
 Alpha  occ. eigenvalues --   -0.76210  -0.76083  -0.75828  -0.75679  -0.75628
 Alpha  occ. eigenvalues --   -0.75190  -0.74689  -0.74583  -0.72194  -0.70344
 Alpha  occ. eigenvalues --   -0.68640  -0.67999  -0.66363  -0.65134  -0.63413
 Alpha  occ. eigenvalues --   -0.62371  -0.61991  -0.61830  -0.60688  -0.59435
 Alpha  occ. eigenvalues --   -0.58815  -0.58238  -0.57510  -0.57245  -0.56345
 Alpha  occ. eigenvalues --   -0.55675  -0.55276  -0.54819  -0.54399  -0.53649
 Alpha  occ. eigenvalues --   -0.53055  -0.52749  -0.52551  -0.51531  -0.50541
 Alpha  occ. eigenvalues --   -0.50307  -0.49713  -0.49520  -0.49131  -0.49035
 Alpha  occ. eigenvalues --   -0.48832  -0.48528  -0.48237  -0.48007  -0.47894
 Alpha  occ. eigenvalues --   -0.47760  -0.47366  -0.46804  -0.46254  -0.46217
 Alpha  occ. eigenvalues --   -0.46039  -0.45686  -0.45479  -0.45403  -0.44961
 Alpha  occ. eigenvalues --   -0.44634  -0.44372  -0.44120  -0.43714  -0.43574
 Alpha  occ. eigenvalues --   -0.43124  -0.42996  -0.42629  -0.42430  -0.41909
 Alpha  occ. eigenvalues --   -0.41730  -0.41176  -0.41013  -0.40495  -0.40339
 Alpha  occ. eigenvalues --   -0.40178  -0.39957  -0.39702  -0.39578  -0.39108
 Alpha  occ. eigenvalues --   -0.39009  -0.38940  -0.38443  -0.38265  -0.38147
 Alpha  occ. eigenvalues --   -0.37574  -0.37454  -0.37126  -0.36165  -0.35912
 Alpha  occ. eigenvalues --   -0.34791  -0.34276  -0.33634  -0.32500  -0.31899
 Alpha  occ. eigenvalues --   -0.31451  -0.30078  -0.29322  -0.26200  -0.23701
 Alpha  occ. eigenvalues --   -0.17849
 Alpha virt. eigenvalues --   -0.07179  -0.00594   0.02333   0.06010   0.07544
 Alpha virt. eigenvalues --    0.09065   0.11004   0.11437   0.11759   0.12101
 Alpha virt. eigenvalues --    0.12493   0.12858   0.13181   0.13559   0.14138

 Mulliken charges:
               1
     1  O   -0.557761
     2  O   -0.557107
     3  C    0.046097
     4  C   -0.128267
     5  C   -0.200737
     6  C    0.213222
     7  C    0.102305
     8  C   -0.001152
     9  C   -0.289371
    10  C   -0.281466
    11  C   -0.199805
    12  C   -0.184374
    13  C    0.130784
    14  C    0.062954
    15  C   -0.075954
    16  C   -0.226582
    17  C    0.036540
    18  C   -0.298215
    19  C   -0.303132
    20  C   -0.359390
    21  C   -0.106464
    22  C   -0.087555
    23  C   -0.362253
    24  C    0.108243
    25  C   -0.101776
    26  C   -0.387370
    27  C    0.092864
    28  C   -0.104903
    29  C   -0.396782
    30  C   -0.124402
    31  C   -0.086235
    32  C   -0.054073
    33  C   -0.112536
    34  C    0.066789
    35  C   -0.122009
    36  C    0.092707
    37  C   -0.370681
    38  C   -0.091465
    39  C   -0.075271
    40  C   -0.367775
    41  C   -0.104224
    42  C   -0.101106
    43  H    0.085335
    44  H    0.101007
    45  H    0.071149
    46  H    0.087252
    47  H    0.111465
    48  H    0.102413
    49  H    0.071809
    50  H    0.111469
    51  H    0.102364
    52  H    0.070901
    53  H    0.115258
    54  H    0.071715
    55  H    0.072720
    56  H    0.088011
    57  H    0.075781
    58  H    0.117857
    59  H    0.130746
    60  H    0.110022
    61  H    0.103901
    62  H    0.092084
    63  H    0.108086
    64  H    0.079516
    65  H    0.112469
    66  H    0.129717
    67  H    0.104449
    68  H    0.111784
    69  H    0.303624
    70  H    0.071358
    71  H    0.055849
    72  H    0.107113
    73  H    0.121724
    74  H    0.106945
    75  H    0.304006
    76  H    0.075755
    77  H    0.097741
    78  H    0.119950
    79  H    0.129861
    80  H    0.097289
    81  H    0.119011
    82  H    0.116279
    83  H    0.106522
    84  H    0.063940
    85  H    0.096236
    86  H    0.061669
    87  H    0.067570
    88  H    0.077031
    89  H    0.121946
    90  H    0.133808
    91  H    0.110303
    92  H    0.083669
    93  H    0.071041
    94  H    0.124550
    95  H    0.106678
    96  H    0.123309
    97  H    0.085931
    98  H    0.067703
 Sum of Mulliken charges =  -0.00000

 Dipole moment (field-independent basis, Debye):
    X=              0.6903    Y=             -0.3449    Z=             -0.7329  Tot=              1.0642
 Quadrupole moment (field-independent basis, Debye-Ang):
   XX=           -285.9709   YY=           -244.1604   ZZ=           -261.6612
   XY=              6.1742   XZ=             42.2343   YZ=              2.6374

 Normal termination of Gaussian 16 at Sat Jul 13 08:25:41 2019.
