 Gaussian 16, Revision A.03,
 Gaussian 16:  ES64L-G16RevA.03 25-Dec-2016

 -------------------------------------
 # td=(NStates=1) CAM-B3LYP/6-31G(d,p)
 -------------------------------------

 --
 TD
 --
 Symbolic Z-matrix:
 Charge =  0 Multiplicity = 1

                         Standard orientation:
 ---------------------------------------------------------------------
 Center     Atomic      Atomic             Coordinates (Angstroms)
 Number     Number       Type             X           Y           Z
 ---------------------------------------------------------------------
      1          8           0      -14.033400   -1.934388    0.600486
      2          8           0       14.836490    0.752392    0.282427
      3          6           0      -11.664685    0.102808    1.238850
      4          6           0      -10.903162    0.287544   -0.021992
      5          6           0      -11.928111   -1.440907    1.476559
      6          6           0      -12.610908   -2.194914    0.335923
      7          6           0      -11.564252   -0.511912   -1.254426
      8          6           0       11.050347    1.016550    1.017033
      9          6           0      -10.957127    0.474044    2.468752
     10          6           0      -13.017511    0.842171    1.176412
     11          6           0       12.455519    1.520419    0.713652
     12          6           0      -12.223874   -1.608687   -0.983319
     13          6           0       13.462254    0.376178    0.468243
     14          6           0       10.673909   -0.021413    0.037526
     15          6           0       -9.403476   -0.078779    0.094594
     16          6           0       13.048368   -0.235497   -0.838724
     17          6           0       11.590399   -0.628112   -0.906338
     18          6           0       10.163936    2.324124    0.912236
     19          6           0       10.799662    0.479861    2.478914
     20          6           0      -11.321176    0.114970   -2.699568
     21          6           0       -8.433199    0.785826   -0.171184
     22          6           0        9.230199   -0.370757   -0.079381
     23          6           0       11.141049   -1.632171   -2.052390
     24          6           0       -7.080902    0.472142   -0.121182
     25          6           0        8.831549   -1.668332    0.023253
     26          6           0       -6.755233   -0.968461    0.111329
     27          6           0        7.423205   -2.137683   -0.059418
     28          6           0       -6.226094    1.381591   -0.351508
     29          6           0        7.198782   -3.571125    0.185332
     30          6           0        6.350833   -1.257699   -0.151272
     31          6           0       -4.739240    1.488028   -0.334163
     32          6           0        4.973033   -1.550798   -0.134052
     33          6           0       -4.021830    2.572471   -0.655170
     34          6           0       -2.655585    2.678616   -0.671064
     35          6           0        3.989886   -0.576600   -0.292249
     36          6           0        2.594766   -0.744983   -0.196391
     37          6           0       -2.060240    4.050843   -0.987161
     38          6           0       -1.866273    1.606724   -0.460876
     39          6           0        1.703299    0.342339   -0.394843
     40          6           0        2.093108   -2.056081    0.073633
     41          6           0       -0.427329    1.566747   -0.482233
     42          6           0        0.366977    0.385930   -0.361505
     43          1           0      -10.986494    1.351906   -0.190527
     44          1           0      -12.369692   -1.767067    2.438863
     45          1           0      -10.845448   -1.781723    1.591324
     46          1           0      -12.307000   -3.201131    0.476632
     47          1           0      -10.171367   -0.091342    2.534435
     48          1           0      -10.558654    1.395390    2.436575
     49          1           0      -11.408315    0.308521    3.429992
     50          1           0      -13.651737    0.576131    0.348567
     51          1           0      -13.677401    0.625683    2.119383
     52          1           0      -12.792177    1.888555    1.064020
     53          1           0       12.451038    2.160299   -0.151848
     54          1           0       12.607815    2.111523    1.668225
     55          1           0      -12.540685   -2.088968   -2.001888
     56          1           0       13.135392   -0.421193    1.239117
     57          1           0       -9.051095   -1.067254    0.462650
     58          1           0       13.673641   -1.146346   -1.072999
     59          1           0       13.230047    0.217895   -1.746908
     60          1           0        9.219503    2.140332    1.304355
     61          1           0       10.185786    2.880364   -0.255680
     62          1           0       10.520028    3.047547    1.464658
     63          1           0       11.620854   -0.166280    2.660007
     64          1           0        9.761776    0.211010    2.355434
     65          1           0       10.948727    1.052340    3.253196
     66          1           0      -10.243412    0.241084   -2.826481
     67          1           0      -11.763180    1.060312   -2.720972
     68          1           0      -11.753794   -0.551719   -3.388683
     69          1           0      -14.593529   -2.016843   -0.248040
     70          1           0        8.429834    0.433124    0.051506
     71          1           0       -8.562297    1.671988   -0.546886
     72          1           0       11.286846   -2.691823   -1.715516
     73          1           0       10.146616   -1.704607   -2.315902
     74          1           0       11.769765   -1.422999   -2.941583
     75          1           0       14.884294    1.534409    0.971531
     76          1           0        9.550449   -2.607295   -0.145807
     77          1           0       -5.723435   -1.382812   -0.169163
     78          1           0       -6.789598   -1.119353    1.101065
     79          1           0       -7.330417   -1.747118   -0.343187
     80          1           0       -6.600702    2.368540   -0.760381
     81          1           0        7.100158   -3.644136    1.180794
     82          1           0        6.175143   -3.753194   -0.300992
     83          1           0        8.034935   -4.288035    0.037318
     84          1           0        6.770786   -0.193021   -0.407594
     85          1           0       -4.265129    0.461221    0.034802
     86          1           0        4.783275   -2.622531   -0.042937
     87          1           0       -4.509182    3.543927   -0.895056
     88          1           0        4.519263    0.377389   -0.714429
     89          1           0       -1.456164    4.056189   -1.769392
     90          1           0       -1.593220    4.171895   -0.029265
     91          1           0       -2.760856    4.746750   -1.157796
     92          1           0       -2.441388    0.515851   -0.267792
     93          1           0        2.299467    1.348761   -0.587425
     94          1           0        2.307783   -2.259495    1.049830
     95          1           0        0.978190   -2.394347   -0.229281
     96          1           0        2.388731   -2.899445   -0.561354
     97          1           0       -0.008292    2.621232   -0.575040
     98          1           0       -0.135446   -0.324234   -0.167757
 ---------------------------------------------------------------------

 SCF Done:  E(RCAM-B3LYP) =  -1706.90894873     A.U. after   15 cycles

 Excitation energies and oscillator strengths:

 Excited State   1:      Singlet-A      2.1229 eV  584.03 nm  f=3.0002  <S**2>=0.000
     155 ->158         0.14142
     156 ->157         0.69526
 This state for optimization and/or second-order correction.
 Total Energy, E(TD-HF/TD-DFT) =  -1706.83093303
 Copying the excited state density for this state as the 1-particle RhoCI density.

 The electronic state is 1-A.
 Alpha  occ. eigenvalues --  -19.22920 -19.21052 -10.31287 -10.30514 -10.28202
 Alpha  occ. eigenvalues --  -10.27655 -10.27335 -10.27268 -10.27217 -10.27130
 Alpha  occ. eigenvalues --  -10.27023 -10.26964 -10.26694 -10.26666 -10.26515
 Alpha  occ. eigenvalues --  -10.26461 -10.26366 -10.26339 -10.26314 -10.26285
 Alpha  occ. eigenvalues --  -10.25866 -10.25795 -10.25794 -10.25543 -10.25497
 Alpha  occ. eigenvalues --  -10.25492 -10.25426 -10.25414 -10.25355 -10.25349
 Alpha  occ. eigenvalues --  -10.25112 -10.25063 -10.24819 -10.24666 -10.24472
 Alpha  occ. eigenvalues --  -10.24472 -10.24268 -10.23564 -10.23538 -10.23405
 Alpha  occ. eigenvalues --  -10.22851 -10.20536  -1.08750  -1.06705  -0.93903
 Alpha  occ. eigenvalues --   -0.93611  -0.92802  -0.92165  -0.91719  -0.90413
 Alpha  occ. eigenvalues --   -0.87263  -0.86771  -0.86716  -0.85230  -0.84729
 Alpha  occ. eigenvalues --   -0.82906  -0.82336  -0.80922  -0.80074  -0.79207
 Alpha  occ. eigenvalues --   -0.78573  -0.77635  -0.77466  -0.76422  -0.76152
 Alpha  occ. eigenvalues --   -0.75865  -0.75678  -0.75026  -0.73101  -0.70884
 Alpha  occ. eigenvalues --   -0.68727  -0.68083  -0.66773  -0.65194  -0.64899
 Alpha  occ. eigenvalues --   -0.63712  -0.63075  -0.62277  -0.60639  -0.60402
 Alpha  occ. eigenvalues --   -0.58672  -0.57722  -0.57313  -0.56753  -0.56122
 Alpha  occ. eigenvalues --   -0.55835  -0.55361  -0.54646  -0.54078  -0.53832
 Alpha  occ. eigenvalues --   -0.53461  -0.53108  -0.52840  -0.52497  -0.51430
 Alpha  occ. eigenvalues --   -0.51314  -0.50840  -0.50585  -0.50149  -0.50018
 Alpha  occ. eigenvalues --   -0.49859  -0.49105  -0.48980  -0.48623  -0.48306
 Alpha  occ. eigenvalues --   -0.48156  -0.47906  -0.47196  -0.47083  -0.46591
 Alpha  occ. eigenvalues --   -0.46366  -0.46106  -0.45813  -0.45716  -0.45302
 Alpha  occ. eigenvalues --   -0.45044  -0.44656  -0.44223  -0.44005  -0.43316
 Alpha  occ. eigenvalues --   -0.43118  -0.42918  -0.42833  -0.42442  -0.42325
 Alpha  occ. eigenvalues --   -0.41697  -0.41413  -0.40983  -0.40748  -0.40518
 Alpha  occ. eigenvalues --   -0.40417  -0.40217  -0.40109  -0.39637  -0.39456
 Alpha  occ. eigenvalues --   -0.39044  -0.38235  -0.38002  -0.37789  -0.37442
 Alpha  occ. eigenvalues --   -0.36947  -0.36911  -0.36490  -0.36188  -0.36046
 Alpha  occ. eigenvalues --   -0.35065  -0.34671  -0.34131  -0.32740  -0.31918
 Alpha  occ. eigenvalues --   -0.31525  -0.30640  -0.28508  -0.26459  -0.24033
 Alpha  occ. eigenvalues --   -0.18946
 Alpha virt. eigenvalues --   -0.05859  -0.00297   0.03147   0.06146   0.07394
 Alpha virt. eigenvalues --    0.08739   0.10645   0.11589   0.11639   0.12018
 Alpha virt. eigenvalues --    0.12757   0.13064   0.13936   0.14072   0.14478

 Mulliken charges:
               1
     1  O   -0.559669
     2  O   -0.557143
     3  C    0.011087
     4  C   -0.129999
     5  C   -0.184240
     6  C    0.158534
     7  C    0.097443
     8  C   -0.067726
     9  C   -0.278747
    10  C   -0.276664
    11  C   -0.205397
    12  C   -0.148321
    13  C    0.167851
    14  C    0.065288
    15  C   -0.110482
    16  C   -0.221167
    17  C    0.039512
    18  C   -0.278907
    19  C   -0.289358
    20  C   -0.350038
    21  C   -0.047119
    22  C   -0.150169
    23  C   -0.358580
    24  C    0.180402
    25  C   -0.080272
    26  C   -0.407039
    27  C    0.067771
    28  C   -0.190574
    29  C   -0.375107
    30  C   -0.105776
    31  C   -0.063127
    32  C   -0.088957
    33  C   -0.117904
    34  C    0.079259
    35  C   -0.135147
    36  C    0.121830
    37  C   -0.355772
    38  C   -0.111437
    39  C   -0.115945
    40  C   -0.389512
    41  C   -0.115098
    42  C   -0.007046
    43  H    0.086432
    44  H    0.105551
    45  H    0.068631
    46  H    0.095726
    47  H    0.099546
    48  H    0.092207
    49  H    0.100099
    50  H    0.103099
    51  H    0.089587
    52  H    0.078521
    53  H    0.110639
    54  H    0.072822
    55  H    0.054015
    56  H    0.080671
    57  H    0.089545
    58  H    0.103654
    59  H    0.126756
    60  H    0.100303
    61  H    0.062186
    62  H    0.114673
    63  H    0.102054
    64  H    0.119157
    65  H    0.105395
    66  H    0.126103
    67  H    0.128563
    68  H    0.112713
    69  H    0.305101
    70  H    0.099318
    71  H    0.059204
    72  H    0.111023
    73  H    0.135801
    74  H    0.103496
    75  H    0.311419
    76  H    0.075859
    77  H    0.097003
    78  H    0.139271
    79  H    0.128273
    80  H    0.063489
    81  H    0.149413
    82  H    0.107046
    83  H    0.106739
    84  H    0.065382
    85  H    0.078031
    86  H    0.081193
    87  H    0.080558
    88  H    0.085970
    89  H    0.136407
    90  H    0.136346
    91  H    0.107947
    92  H    0.060962
    93  H    0.067071
    94  H    0.139477
    95  H    0.091544
    96  H    0.118803
    97  H    0.078155
    98  H    0.034514
 Sum of Mulliken charges =  -0.00000

 Dipole moment (field-independent basis, Debye):
    X=              0.3708    Y=              0.1358    Z=             -0.5276  Tot=              0.6590
 Quadrupole moment (field-independent basis, Debye-Ang):
   XX=           -290.9761   YY=           -239.9666   ZZ=           -258.2977
   XY=             10.3785   XZ=             36.4563   YZ=              1.2937

 Normal termination of Gaussian 16 at Tue Jul 16 10:09:45 2019.
