 Gaussian 16, Revision A.03,
 Gaussian 16:  ES64L-G16RevA.03 25-Dec-2016

 -------------------------------------
 # td=(NStates=1) CAM-B3LYP/6-31G(d,p)
 -------------------------------------

 --
 TD
 --
 Symbolic Z-matrix:
 Charge =  0 Multiplicity = 1

                         Standard orientation:
 ---------------------------------------------------------------------
 Center     Atomic      Atomic             Coordinates (Angstroms)
 Number     Number       Type             X           Y           Z
 ---------------------------------------------------------------------
      1          8           0      -14.341313   -1.997279    0.407801
      2          8           0       14.820911    0.725716    0.066174
      3          6           0      -11.723474   -0.021875    1.241770
      4          6           0      -10.955365    0.167368   -0.048363
      5          6           0      -12.125850   -1.455998    1.456766
      6          6           0      -12.934171   -2.077238    0.227032
      7          6           0      -11.447180   -0.510931   -1.245674
      8          6           0       11.235434    0.801925    1.134284
      9          6           0      -10.955517    0.351630    2.422323
     10          6           0      -12.984096    0.819585    1.181431
     11          6           0       12.643155    1.327173    0.828710
     12          6           0      -12.394546   -1.503013   -1.117922
     13          6           0       13.586748    0.216454    0.313102
     14          6           0       10.698172    0.001883   -0.008659
     15          6           0       -9.475806   -0.123999    0.094330
     16          6           0       12.976894   -0.303604   -0.916697
     17          6           0       11.550032   -0.669474   -0.877464
     18          6           0       10.324962    2.069718    1.264047
     19          6           0       11.339545    0.160149    2.447609
     20          6           0      -11.112007    0.026461   -2.608617
     21          6           0       -8.416170    0.736692   -0.087224
     22          6           0        9.238031   -0.408647   -0.046912
     23          6           0       11.023234   -1.265508   -2.176370
     24          6           0       -7.013508    0.481053    0.096780
     25          6           0        8.677678   -1.681714   -0.171751
     26          6           0       -6.612583   -0.883379    0.397612
     27          6           0        7.369054   -2.090397   -0.114556
     28          6           0       -6.187861    1.564703   -0.277645
     29          6           0        7.145242   -3.436770    0.055942
     30          6           0        6.358572   -1.093751   -0.180661
     31          6           0       -4.855137    1.437853   -0.363924
     32          6           0        4.958951   -1.415538   -0.059490
     33          6           0       -4.045415    2.571962   -0.522561
     34          6           0       -2.722148    2.736946   -0.676980
     35          6           0        3.974544   -0.468370   -0.218911
     36          6           0        2.543446   -0.581527   -0.193392
     37          6           0       -2.016945    4.055295   -0.945650
     38          6           0       -1.903875    1.614587   -0.588421
     39          6           0        1.737486    0.507776   -0.476554
     40          6           0        2.067228   -2.001307    0.083634
     41          6           0       -0.463637    1.650233   -0.585502
     42          6           0        0.322252    0.514241   -0.392639
     43          1           0      -10.913730    1.315540   -0.179256
     44          1           0      -12.480637   -1.651612    2.492797
     45          1           0      -11.187643   -1.924748    1.528790
     46          1           0      -12.523245   -3.288709    0.133209
     47          1           0      -10.172640   -0.258344    2.866775
     48          1           0      -10.716688    1.573553    2.483440
     49          1           0      -11.575629    0.411508    3.371668
     50          1           0      -13.785312    0.585358    0.563951
     51          1           0      -13.594467    0.610839    2.167492
     52          1           0      -12.654128    1.741376    1.177649
     53          1           0       12.551497    2.153422    0.272743
     54          1           0       13.041044    1.844091    1.828366
     55          1           0      -12.963658   -2.058649   -1.939796
     56          1           0       13.669440   -0.550992    1.119791
     57          1           0       -9.050693   -1.106857    0.117875
     58          1           0       13.333329   -1.193667   -1.274516
     59          1           0       13.253289    0.349973   -1.723177
     60          1           0        9.377277    2.028072    1.700437
     61          1           0       10.285229    2.592665    0.218018
     62          1           0       10.768622    2.716226    2.019633
     63          1           0       11.913890   -0.841300    2.486473
     64          1           0       10.346482   -0.249379    2.725740
     65          1           0       11.665269    0.805250    3.268604
     66          1           0       -9.995226    0.150754   -2.785979
     67          1           0      -11.655543    0.906606   -2.676251
     68          1           0      -11.486732   -0.697527   -3.450288
     69          1           0      -14.789677   -1.963417   -0.494708
     70          1           0        8.497394    0.497466    0.085782
     71          1           0       -8.742946    1.669428   -0.483097
     72          1           0       11.144256   -2.284801   -2.052844
     73          1           0        9.954170   -1.267832   -2.305101
     74          1           0       11.536790   -0.856310   -2.977895
     75          1           0       15.208051    1.294755    0.766812
     76          1           0        9.506677   -2.420712   -0.203815
     77          1           0       -5.443623   -0.990818    0.059517
     78          1           0       -6.813989   -1.302531    1.328922
     79          1           0       -7.082407   -1.657020   -0.380345
     80          1           0       -6.472943    2.522002   -0.496487
     81          1           0        6.995144   -3.697228    1.249241
     82          1           0        6.194601   -3.811795   -0.437224
     83          1           0        7.977103   -4.267335   -0.334233
     84          1           0        6.608642   -0.036325   -0.394877
     85          1           0       -4.453800    0.463458   -0.336889
     86          1           0        4.444485   -2.398693    0.365608
     87          1           0       -4.558961    3.391643   -0.487533
     88          1           0        4.220689    0.543317   -0.661456
     89          1           0       -1.545227    3.932717   -1.937777
     90          1           0       -1.052314    4.134824   -0.308224
     91          1           0       -2.957675    4.852050   -0.705287
     92          1           0       -2.300461    0.522426   -0.458318
     93          1           0        2.020475    1.508619   -0.774442
     94          1           0        2.239119   -2.187662    1.302800
     95          1           0        1.107586   -2.405954   -0.108070
     96          1           0        2.723722   -2.679669   -0.493055
     97          1           0        0.078820    2.655746   -0.720685
     98          1           0       -0.082091   -0.475172    0.030689
 ---------------------------------------------------------------------

 SCF Done:  E(RCAM-B3LYP) =  -1706.94445482     A.U. after   15 cycles

 Excitation energies and oscillator strengths:

 Excited State   1:      Singlet-A      1.9087 eV  649.56 nm  f=3.0370  <S**2>=0.000
     155 ->158        -0.15314
     156 ->157         0.69382
     156 <-157        -0.10194
 This state for optimization and/or second-order correction.
 Total Energy, E(TD-HF/TD-DFT) =  -1706.87430982
 Copying the excited state density for this state as the 1-particle RhoCI density.

 The electronic state is 1-A.
 Alpha  occ. eigenvalues --  -19.22356 -19.20835 -10.32756 -10.30156 -10.28110
 Alpha  occ. eigenvalues --  -10.28093 -10.27636 -10.27376 -10.27355 -10.27340
 Alpha  occ. eigenvalues --  -10.27246 -10.27213 -10.27149 -10.26986 -10.26969
 Alpha  occ. eigenvalues --  -10.26890 -10.26743 -10.26734 -10.26669 -10.26587
 Alpha  occ. eigenvalues --  -10.26531 -10.26486 -10.26457 -10.26283 -10.26157
 Alpha  occ. eigenvalues --  -10.26106 -10.25903 -10.25742 -10.25697 -10.25200
 Alpha  occ. eigenvalues --  -10.25096 -10.25020 -10.25002 -10.24892 -10.24683
 Alpha  occ. eigenvalues --  -10.24481 -10.24456 -10.24187 -10.24186 -10.23573
 Alpha  occ. eigenvalues --  -10.23338 -10.22081  -1.10775  -1.08877  -0.94550
 Alpha  occ. eigenvalues --   -0.94028  -0.93001  -0.92280  -0.91163  -0.90452
 Alpha  occ. eigenvalues --   -0.88102  -0.87758  -0.87032  -0.85423  -0.84381
 Alpha  occ. eigenvalues --   -0.82732  -0.81943  -0.80114  -0.79932  -0.78200
 Alpha  occ. eigenvalues --   -0.76822  -0.76650  -0.76528  -0.76154  -0.76044
 Alpha  occ. eigenvalues --   -0.75912  -0.75264  -0.74156  -0.72460  -0.70692
 Alpha  occ. eigenvalues --   -0.69692  -0.67398  -0.66897  -0.65535  -0.64314
 Alpha  occ. eigenvalues --   -0.63817  -0.63162  -0.61896  -0.60813  -0.59791
 Alpha  occ. eigenvalues --   -0.59497  -0.58898  -0.58793  -0.57766  -0.56515
 Alpha  occ. eigenvalues --   -0.55965  -0.55025  -0.54973  -0.54574  -0.53550
 Alpha  occ. eigenvalues --   -0.53247  -0.53086  -0.52573  -0.52264  -0.51646
 Alpha  occ. eigenvalues --   -0.51333  -0.50475  -0.50330  -0.49563  -0.49284
 Alpha  occ. eigenvalues --   -0.49192  -0.48759  -0.48476  -0.48070  -0.47921
 Alpha  occ. eigenvalues --   -0.47767  -0.47441  -0.47271  -0.47219  -0.46930
 Alpha  occ. eigenvalues --   -0.45829  -0.45759  -0.45447  -0.45072  -0.44879
 Alpha  occ. eigenvalues --   -0.44637  -0.44414  -0.43948  -0.43701  -0.43475
 Alpha  occ. eigenvalues --   -0.43131  -0.42998  -0.42909  -0.42642  -0.41512
 Alpha  occ. eigenvalues --   -0.41455  -0.41237  -0.40917  -0.40479  -0.40117
 Alpha  occ. eigenvalues --   -0.39964  -0.39659  -0.39378  -0.39097  -0.39005
 Alpha  occ. eigenvalues --   -0.38747  -0.38644  -0.38219  -0.38137  -0.38008
 Alpha  occ. eigenvalues --   -0.37300  -0.36924  -0.36383  -0.36299  -0.35844
 Alpha  occ. eigenvalues --   -0.35397  -0.34947  -0.33889  -0.31790  -0.31299
 Alpha  occ. eigenvalues --   -0.31213  -0.29034  -0.28423  -0.26788  -0.22637
 Alpha  occ. eigenvalues --   -0.18637
 Alpha virt. eigenvalues --   -0.06494  -0.01851   0.02729   0.05303   0.06507
 Alpha virt. eigenvalues --    0.08325   0.10979   0.11662   0.12038   0.12311
 Alpha virt. eigenvalues --    0.12922   0.12996   0.13309   0.13350   0.13671

 Mulliken charges:
               1
     1  O   -0.540720
     2  O   -0.568154
     3  C    0.027307
     4  C   -0.138118
     5  C   -0.175866
     6  C    0.170354
     7  C    0.139733
     8  C   -0.002167
     9  C   -0.311832
    10  C   -0.276683
    11  C   -0.191661
    12  C   -0.170030
    13  C    0.207971
    14  C    0.065515
    15  C   -0.090330
    16  C   -0.209588
    17  C    0.003098
    18  C   -0.318211
    19  C   -0.293813
    20  C   -0.353675
    21  C   -0.092182
    22  C   -0.116970
    23  C   -0.356681
    24  C    0.104160
    25  C   -0.131451
    26  C   -0.380810
    27  C    0.181622
    28  C   -0.090314
    29  C   -0.396433
    30  C   -0.130760
    31  C   -0.029938
    32  C   -0.096336
    33  C   -0.125274
    34  C    0.105041
    35  C   -0.116185
    36  C    0.113521
    37  C   -0.361544
    38  C   -0.110216
    39  C   -0.122387
    40  C   -0.381846
    41  C   -0.110926
    42  C   -0.080021
    43  H    0.084687
    44  H    0.101435
    45  H    0.096345
    46  H    0.037942
    47  H    0.112875
    48  H    0.065201
    49  H    0.095289
    50  H    0.116544
    51  H    0.079491
    52  H    0.095035
    53  H    0.100075
    54  H    0.047671
    55  H    0.073199
    56  H    0.069104
    57  H    0.068591
    58  H    0.108865
    59  H    0.124296
    60  H    0.112396
    61  H    0.094207
    62  H    0.091129
    63  H    0.093047
    64  H    0.096628
    65  H    0.103237
    66  H    0.115356
    67  H    0.134124
    68  H    0.100050
    69  H    0.311422
    70  H    0.071858
    71  H    0.064789
    72  H    0.119913
    73  H    0.125825
    74  H    0.116171
    75  H    0.311629
    76  H    0.079589
    77  H    0.087465
    78  H    0.143751
    79  H    0.109542
    80  H    0.083002
    81  H    0.108542
    82  H    0.117339
    83  H    0.098319
    84  H    0.097945
    85  H    0.068644
    86  H    0.089461
    87  H    0.045634
    88  H    0.072012
    89  H    0.140857
    90  H    0.121466
    91  H    0.090480
    92  H    0.080532
    93  H    0.080721
    94  H    0.097463
    95  H    0.120279
    96  H    0.124579
    97  H    0.075987
    98  H    0.080762
 Sum of Mulliken charges =  -0.00000

 Dipole moment (field-independent basis, Debye):
    X=              1.3374    Y=              0.2573    Z=             -0.5395  Tot=              1.4649
 Quadrupole moment (field-independent basis, Debye-Ang):
   XX=           -275.3366   YY=           -247.5680   ZZ=           -260.2795
   XY=             -0.1748   XZ=             36.0950   YZ=              2.0854

 Normal termination of Gaussian 16 at Sun Jul 14 06:53:25 2019.
