 Gaussian 16, Revision A.03,
 Gaussian 16:  ES64L-G16RevA.03 25-Dec-2016

 -------------------------------------
 # td=(NStates=1) CAM-B3LYP/6-31G(d,p)
 -------------------------------------

 --
 TD
 --
 Symbolic Z-matrix:
 Charge =  0 Multiplicity = 1

                         Standard orientation:
 ---------------------------------------------------------------------
 Center     Atomic      Atomic             Coordinates (Angstroms)
 Number     Number       Type             X           Y           Z
 ---------------------------------------------------------------------
      1          8           0      -14.222179   -1.987389    0.316738
      2          8           0       14.777673    0.870991    0.138570
      3          6           0      -11.713207    0.005366    1.254616
      4          6           0      -10.958331    0.378184   -0.042144
      5          6           0      -12.061422   -1.467944    1.279885
      6          6           0      -12.799469   -2.054481    0.027601
      7          6           0      -11.628549   -0.225953   -1.271295
      8          6           0       11.103966    0.929326    1.043207
      9          6           0      -11.020028    0.558013    2.457519
     10          6           0      -13.212564    0.765156    1.127770
     11          6           0       12.473756    1.517392    0.811638
     12          6           0      -12.434907   -1.359944   -1.229785
     13          6           0       13.443992    0.506500    0.303004
     14          6           0       10.520151   -0.003140   -0.171087
     15          6           0       -9.570099   -0.063978    0.009405
     16          6           0       12.931283   -0.050524   -1.136661
     17          6           0       11.440744   -0.327394   -1.153942
     18          6           0       10.253199    2.222456    1.143307
     19          6           0       11.049542    0.160926    2.413786
     20          6           0      -11.309400    0.512059   -2.579274
     21          6           0       -8.463241    0.729408   -0.131018
     22          6           0        9.283279   -0.361420   -0.048370
     23          6           0       11.083568   -1.134378   -2.335258
     24          6           0       -7.070175    0.435041   -0.036512
     25          6           0        8.810910   -1.689066   -0.130130
     26          6           0       -6.646663   -0.910339    0.294095
     27          6           0        7.502273   -2.174107   -0.164960
     28          6           0       -6.127225    1.456830   -0.253497
     29          6           0        7.223980   -3.580702    0.035986
     30          6           0        6.413643   -1.203736   -0.212742
     31          6           0       -4.696729    1.234877   -0.198672
     32          6           0        5.062869   -1.573684    0.054935
     33          6           0       -3.922320    2.397525   -0.520759
     34          6           0       -2.478468    2.582346   -0.617347
     35          6           0        4.021342   -0.674431   -0.161614
     36          6           0        2.636542   -0.897206    0.083462
     37          6           0       -1.995088    3.887250   -0.945193
     38          6           0       -1.664452    1.448525   -0.422284
     39          6           0        1.838376    0.134627   -0.084404
     40          6           0        2.177285   -2.234575    0.492733
     41          6           0       -0.302340    1.391541   -0.415036
     42          6           0        0.386120    0.165204   -0.265333
     43          1           0      -11.274759    1.500746   -0.142459
     44          1           0      -12.412670   -1.540796    2.228660
     45          1           0      -11.084815   -1.903567    1.372195
     46          1           0      -12.524129   -3.250035   -0.090683
     47          1           0      -10.085186   -0.202548    2.381336
     48          1           0      -10.705569    1.472531    2.390786
     49          1           0      -11.687669    0.189917    3.469032
     50          1           0      -13.765079    0.321881    0.201313
     51          1           0      -13.803253    0.494751    1.857517
     52          1           0      -13.004487    1.866146    1.131606
     53          1           0       12.521902    2.417091    0.187388
     54          1           0       12.697166    2.069604    1.766887
     55          1           0      -12.860012   -1.621997   -2.198172
     56          1           0       13.295331   -0.451807    1.109033
     57          1           0       -9.522930   -0.965120    0.107140
     58          1           0       13.494582   -1.055210   -1.247059
     59          1           0       13.207973    0.636294   -2.123699
     60          1           0        9.233394    2.068500    1.394077
     61          1           0       10.183257    2.711909    0.198548
     62          1           0       10.629069    2.921688    2.059934
     63          1           0       11.696271   -0.693631    2.670248
     64          1           0       10.024534   -0.184028    2.568328
     65          1           0       11.260991    0.991385    3.276410
     66          1           0      -10.331123    0.753124   -2.542453
     67          1           0      -11.834077    1.420463   -2.292372
     68          1           0      -11.833652   -0.009822   -3.441170
     69          1           0      -14.633656   -1.826032   -0.658719
     70          1           0        8.489104    0.444787    0.306859
     71          1           0       -8.768076    1.794476   -0.215109
     72          1           0       11.753689   -2.145632   -2.432567
     73          1           0       10.066205   -1.363467   -2.156938
     74          1           0       11.250086   -0.510532   -3.272707
     75          1           0       15.016378    0.974820    1.074359
     76          1           0        9.521347   -2.485625   -0.340943
     77          1           0       -5.469645   -0.906970    0.051264
     78          1           0       -6.804557   -1.130768    1.607837
     79          1           0       -7.370921   -1.665165   -0.392965
     80          1           0       -6.453116    2.329229   -0.400198
     81          1           0        6.875042   -3.710302    1.003340
     82          1           0        6.612147   -4.034061   -0.697312
     83          1           0        8.084276   -4.191109   -0.236567
     84          1           0        6.452066   -0.100910   -0.537050
     85          1           0       -4.162855    0.289342    0.104084
     86          1           0        4.752736   -2.666517    0.341648
     87          1           0       -4.542000    3.203479   -0.652645
     88          1           0        4.336196    0.365123   -0.303235
     89          1           0       -1.127327    3.663093   -1.620383
     90          1           0       -1.475545    4.236821   -0.016169
     91          1           0       -2.758208    4.496606   -1.195480
     92          1           0       -2.171799    0.439612   -0.013224
     93          1           0        2.317497    1.195943   -0.318931
     94          1           0        3.157781   -2.647423    1.315587
     95          1           0        1.062673   -2.220853    1.197456
     96          1           0        2.294140   -2.957097   -0.489467
     97          1           0        0.558081    2.186855   -0.478128
     98          1           0       -0.313606   -0.673307   -0.342304
 ---------------------------------------------------------------------

 SCF Done:  E(RCAM-B3LYP) =  -1706.80765430     A.U. after   15 cycles

 Excitation energies and oscillator strengths:

 Excited State   1:      Singlet-A      1.9376 eV  639.89 nm  f=3.0393  <S**2>=0.000
     155 ->158        -0.17667
     156 ->157         0.68407
 This state for optimization and/or second-order correction.
 Total Energy, E(TD-HF/TD-DFT) =  -1706.73644893
 Copying the excited state density for this state as the 1-particle RhoCI density.

 The electronic state is 1-A.
 Alpha  occ. eigenvalues --  -19.22093 -19.21867 -10.32494 -10.31944 -10.30682
 Alpha  occ. eigenvalues --  -10.29430 -10.28105 -10.28072 -10.27935 -10.27901
 Alpha  occ. eigenvalues --  -10.27446 -10.27257 -10.27147 -10.27133 -10.27114
 Alpha  occ. eigenvalues --  -10.27048 -10.27010 -10.27009 -10.26942 -10.26798
 Alpha  occ. eigenvalues --  -10.26764 -10.26708 -10.26597 -10.26504 -10.26322
 Alpha  occ. eigenvalues --  -10.26168 -10.26142 -10.25913 -10.25840 -10.25777
 Alpha  occ. eigenvalues --  -10.25771 -10.25655 -10.25639 -10.25451 -10.25421
 Alpha  occ. eigenvalues --  -10.25237 -10.25048 -10.24767 -10.24607 -10.24380
 Alpha  occ. eigenvalues --  -10.23892 -10.22721  -1.11056  -1.07149  -0.94243
 Alpha  occ. eigenvalues --   -0.93679  -0.92649  -0.92058  -0.90992  -0.90475
 Alpha  occ. eigenvalues --   -0.87600  -0.87145  -0.86918  -0.85790  -0.85091
 Alpha  occ. eigenvalues --   -0.83395  -0.82844  -0.80703  -0.79802  -0.78221
 Alpha  occ. eigenvalues --   -0.76764  -0.76619  -0.75818  -0.75610  -0.75584
 Alpha  occ. eigenvalues --   -0.74816  -0.74637  -0.74224  -0.72542  -0.70147
 Alpha  occ. eigenvalues --   -0.69067  -0.67615  -0.66241  -0.65238  -0.64506
 Alpha  occ. eigenvalues --   -0.62823  -0.62109  -0.61779  -0.60796  -0.60061
 Alpha  occ. eigenvalues --   -0.59614  -0.58264  -0.58162  -0.56817  -0.56087
 Alpha  occ. eigenvalues --   -0.55469  -0.55085  -0.54932  -0.54089  -0.53737
 Alpha  occ. eigenvalues --   -0.53162  -0.52911  -0.52460  -0.51718  -0.51559
 Alpha  occ. eigenvalues --   -0.50923  -0.50077  -0.49868  -0.49669  -0.49477
 Alpha  occ. eigenvalues --   -0.49228  -0.48840  -0.48676  -0.48082  -0.48017
 Alpha  occ. eigenvalues --   -0.47783  -0.47397  -0.46681  -0.46544  -0.46370
 Alpha  occ. eigenvalues --   -0.46192  -0.45838  -0.45556  -0.45316  -0.45160
 Alpha  occ. eigenvalues --   -0.44704  -0.44478  -0.43975  -0.43832  -0.43579
 Alpha  occ. eigenvalues --   -0.43450  -0.42677  -0.42547  -0.42237  -0.41899
 Alpha  occ. eigenvalues --   -0.41597  -0.41404  -0.41075  -0.40961  -0.40805
 Alpha  occ. eigenvalues --   -0.40673  -0.40373  -0.39670  -0.39659  -0.39602
 Alpha  occ. eigenvalues --   -0.39552  -0.39065  -0.38683  -0.38237  -0.38078
 Alpha  occ. eigenvalues --   -0.38019  -0.37532  -0.37081  -0.36208  -0.35613
 Alpha  occ. eigenvalues --   -0.33960  -0.33050  -0.32400  -0.31914  -0.31828
 Alpha  occ. eigenvalues --   -0.31473  -0.29048  -0.28663  -0.26615  -0.22550
 Alpha  occ. eigenvalues --   -0.19122
 Alpha virt. eigenvalues --   -0.06472  -0.02597   0.01865   0.04923   0.06067
 Alpha virt. eigenvalues --    0.08264   0.10402   0.10584   0.10822   0.10974
 Alpha virt. eigenvalues --    0.11506   0.12007   0.12396   0.12705   0.12874

 Mulliken charges:
               1
     1  O   -0.545412
     2  O   -0.532036
     3  C   -0.020860
     4  C   -0.134095
     5  C   -0.155387
     6  C    0.156681
     7  C    0.082176
     8  C   -0.017493
     9  C   -0.256659
    10  C   -0.299485
    11  C   -0.165646
    12  C   -0.165337
    13  C    0.158376
    14  C    0.112039
    15  C   -0.033243
    16  C   -0.210266
    17  C    0.048691
    18  C   -0.307716
    19  C   -0.296511
    20  C   -0.333845
    21  C   -0.097258
    22  C   -0.152711
    23  C   -0.344492
    24  C    0.122251
    25  C   -0.108683
    26  C   -0.336296
    27  C    0.067840
    28  C   -0.081187
    29  C   -0.375144
    30  C   -0.124845
    31  C   -0.073219
    32  C   -0.087014
    33  C   -0.138831
    34  C    0.105620
    35  C   -0.126576
    36  C    0.180636
    37  C   -0.365422
    38  C   -0.141463
    39  C   -0.160709
    40  C   -0.347421
    41  C   -0.066089
    42  C   -0.091034
    43  H    0.079116
    44  H    0.111872
    45  H    0.082411
    46  H    0.065964
    47  H    0.077114
    48  H    0.114885
    49  H    0.076314
    50  H    0.089315
    51  H    0.111141
    52  H    0.073144
    53  H    0.100918
    54  H    0.076912
    55  H    0.074213
    56  H    0.033300
    57  H    0.056466
    58  H    0.111548
    59  H    0.094903
    60  H    0.099652
    61  H    0.116463
    62  H    0.078090
    63  H    0.110127
    64  H    0.114177
    65  H    0.070172
    66  H    0.133941
    67  H    0.121361
    68  H    0.108559
    69  H    0.303224
    70  H    0.085371
    71  H    0.068305
    72  H    0.089190
    73  H    0.117789
    74  H    0.105683
    75  H    0.308734
    76  H    0.076376
    77  H    0.096191
    78  H    0.082752
    79  H    0.097023
    80  H    0.062749
    81  H    0.141631
    82  H    0.127664
    83  H    0.105678
    84  H    0.090119
    85  H    0.099201
    86  H    0.080076
    87  H    0.073865
    88  H    0.079926
    89  H    0.130656
    90  H    0.131189
    91  H    0.119490
    92  H    0.078015
    93  H    0.072579
    94  H    0.074312
    95  H    0.097391
    96  H    0.117742
    97  H    0.078608
    98  H    0.084465
 Sum of Mulliken charges =  -0.00000

 Dipole moment (field-independent basis, Debye):
    X=              0.4894    Y=              0.9011    Z=             -0.3676  Tot=              1.0894
 Quadrupole moment (field-independent basis, Debye-Ang):
   XX=           -304.5535   YY=           -248.2620   ZZ=           -262.1982
   XY=            -16.4667   XZ=             39.4027   YZ=              2.3876

 Normal termination of Gaussian 16 at Fri Jul 12 17:25:58 2019.
