 Gaussian 16, Revision A.03,
 Gaussian 16:  ES64L-G16RevA.03 25-Dec-2016

 -------------------------------------
 # td=(NStates=1) CAM-B3LYP/6-31G(d,p)
 -------------------------------------

 --
 TD
 --
 Symbolic Z-matrix:
 Charge =  0 Multiplicity = 1

                         Standard orientation:
 ---------------------------------------------------------------------
 Center     Atomic      Atomic             Coordinates (Angstroms)
 Number     Number       Type             X           Y           Z
 ---------------------------------------------------------------------
      1          8           0      -14.007913   -2.089859    0.502788
      2          8           0       14.812301    0.641795    0.300864
      3          6           0      -11.734410    0.047053    1.217510
      4          6           0      -10.919547    0.256713   -0.052262
      5          6           0      -11.945069   -1.398231    1.473374
      6          6           0      -12.651748   -2.109109    0.378007
      7          6           0      -11.434425   -0.661684   -1.260630
      8          6           0       11.109778    1.004297    0.957354
      9          6           0      -11.047269    0.748677    2.446733
     10          6           0      -13.209257    0.775681    1.000640
     11          6           0       12.550011    1.488537    0.834307
     12          6           0      -12.185485   -1.696653   -0.930473
     13          6           0       13.450270    0.246307    0.411018
     14          6           0       10.678836   -0.049998   -0.044279
     15          6           0       -9.508344   -0.118839    0.034824
     16          6           0       13.057661   -0.319299   -0.900588
     17          6           0       11.523346   -0.592541   -0.930448
     18          6           0       10.169959    2.265368    0.982591
     19          6           0       10.963094    0.358165    2.404015
     20          6           0      -11.148237   -0.139790   -2.600592
     21          6           0       -8.478119    0.841511   -0.059545
     22          6           0        9.208408   -0.323825   -0.039867
     23          6           0       11.180242   -1.539861   -2.120410
     24          6           0       -7.044370    0.619749    0.022570
     25          6           0        8.752782   -1.635112   -0.138265
     26          6           0       -6.699458   -0.792004    0.298514
     27          6           0        7.394309   -2.118990   -0.199081
     28          6           0       -6.236022    1.623137   -0.278116
     29          6           0        7.055593   -3.518528    0.103302
     30          6           0        6.354207   -1.081144   -0.127927
     31          6           0       -4.818746    1.559606   -0.434022
     32          6           0        4.964459   -1.352228   -0.046148
     33          6           0       -4.059911    2.561378   -0.614577
     34          6           0       -2.641157    2.578001   -0.757957
     35          6           0        3.958568   -0.388964   -0.193483
     36          6           0        2.590220   -0.663537   -0.157389
     37          6           0       -1.944719    3.873792   -1.305203
     38          6           0       -1.814767    1.512126   -0.390377
     39          6           0        1.745850    0.328663   -0.232428
     40          6           0        2.123972   -2.055036    0.292141
     41          6           0       -0.426295    1.483114   -0.538741
     42          6           0        0.361825    0.369767   -0.300469
     43          1           0      -10.903669    1.341350   -0.202979
     44          1           0      -12.385314   -1.443133    2.472559
     45          1           0      -10.834937   -1.725236    1.621373
     46          1           0      -12.325784   -3.118587    0.242818
     47          1           0      -10.048043    0.366299    2.791611
     48          1           0      -10.874822    1.702478    2.238349
     49          1           0      -11.944394    0.816299    3.185738
     50          1           0      -13.676689    0.448902    0.042481
     51          1           0      -13.858874    0.508583    1.908631
     52          1           0      -13.094188    1.833382    0.983892
     53          1           0       12.668551    2.137557   -0.081129
     54          1           0       13.005246    1.878684    1.723952
     55          1           0      -12.508200   -2.228547   -1.895349
     56          1           0       13.290598   -0.563378    1.373905
     57          1           0       -9.259095   -1.171490    0.361922
     58          1           0       13.519784   -1.334897   -0.903191
     59          1           0       13.143486    0.166650   -1.775764
     60          1           0        9.177701    2.017874    1.267983
     61          1           0        9.944939    2.669138   -0.201094
     62          1           0       10.518397    3.000839    1.393730
     63          1           0       11.737069   -0.400460    2.487225
     64          1           0        9.884158   -0.058298    2.571083
     65          1           0       11.358319    1.020340    3.172699
     66          1           0      -10.120021   -0.090569   -2.683743
     67          1           0      -11.722686    0.781782   -2.998550
     68          1           0      -11.443714   -0.858224   -3.505841
     69          1           0      -14.438509   -2.709266   -0.269654
     70          1           0        8.562455    0.420435    0.392427
     71          1           0       -8.657643    1.722088   -0.438423
     72          1           0       11.319465   -2.621473   -1.973591
     73          1           0       10.054472   -1.372963   -2.218595
     74          1           0       11.658553   -0.952950   -2.930210
     75          1           0       15.060730    1.139264    1.127331
     76          1           0        9.697801   -2.447405   -0.270007
     77          1           0       -5.595251   -1.058002   -0.008373
     78          1           0       -6.835768   -1.016814    1.370245
     79          1           0       -7.051312   -1.563959   -0.432200
     80          1           0       -6.796135    2.614217   -0.305603
     81          1           0        6.771258   -3.747405    1.331962
     82          1           0        6.133372   -4.052332   -0.457907
     83          1           0        7.948141   -4.151594   -0.248805
     84          1           0        6.594165   -0.038071   -0.355477
     85          1           0       -4.498417    0.617324   -0.473046
     86          1           0        4.797315   -2.417668    0.101990
     87          1           0       -4.490978    3.438065   -0.862062
     88          1           0        4.212499    0.638996   -0.602822
     89          1           0       -1.374415    3.794917   -2.098880
     90          1           0       -1.306997    4.255335   -0.491246
     91          1           0       -2.808645    4.616980   -1.449345
     92          1           0       -2.338147    0.572454    0.036687
     93          1           0        2.191739    1.357423   -0.512430
     94          1           0        2.502854   -2.081861    1.525317
     95          1           0        1.256845   -1.988072    0.293424
     96          1           0        2.422781   -2.914035   -0.487690
     97          1           0        0.094172    2.414525   -0.609875
     98          1           0       -0.245543   -0.498600    0.073575
 ---------------------------------------------------------------------

 SCF Done:  E(RCAM-B3LYP) =  -1706.89355256     A.U. after   15 cycles

 Excitation energies and oscillator strengths:

 Excited State   1:      Singlet-A      2.2055 eV  562.16 nm  f=3.0083  <S**2>=0.000
     155 ->158        -0.16756
     156 ->157         0.68653
 This state for optimization and/or second-order correction.
 Total Energy, E(TD-HF/TD-DFT) =  -1706.81250203
 Copying the excited state density for this state as the 1-particle RhoCI density.

 The electronic state is 1-A.
 Alpha  occ. eigenvalues --  -19.22281 -19.21185 -10.31572 -10.29829 -10.28619
 Alpha  occ. eigenvalues --  -10.28040 -10.27684 -10.27649 -10.27442 -10.26682
 Alpha  occ. eigenvalues --  -10.26638 -10.26631 -10.26514 -10.26511 -10.26417
 Alpha  occ. eigenvalues --  -10.26411 -10.26394 -10.26325 -10.26242 -10.26182
 Alpha  occ. eigenvalues --  -10.26161 -10.26116 -10.26078 -10.25933 -10.25890
 Alpha  occ. eigenvalues --  -10.25866 -10.25772 -10.25717 -10.25487 -10.25443
 Alpha  occ. eigenvalues --  -10.25385 -10.25238 -10.24921 -10.24900 -10.24734
 Alpha  occ. eigenvalues --  -10.24609 -10.24542 -10.24387 -10.24362 -10.24108
 Alpha  occ. eigenvalues --  -10.24100 -10.24003  -1.10376  -1.08625  -0.93851
 Alpha  occ. eigenvalues --   -0.93054  -0.92947  -0.92625  -0.90615  -0.89622
 Alpha  occ. eigenvalues --   -0.87695  -0.86622  -0.86459  -0.85369  -0.84549
 Alpha  occ. eigenvalues --   -0.83438  -0.82140  -0.80468  -0.78993  -0.78639
 Alpha  occ. eigenvalues --   -0.77369  -0.76638  -0.76599  -0.76042  -0.75629
 Alpha  occ. eigenvalues --   -0.75404  -0.75001  -0.74540  -0.72847  -0.70560
 Alpha  occ. eigenvalues --   -0.69073  -0.68248  -0.66142  -0.65156  -0.64240
 Alpha  occ. eigenvalues --   -0.64003  -0.62583  -0.61954  -0.60837  -0.60124
 Alpha  occ. eigenvalues --   -0.59483  -0.58801  -0.57940  -0.56926  -0.56151
 Alpha  occ. eigenvalues --   -0.55401  -0.55225  -0.54543  -0.54123  -0.53887
 Alpha  occ. eigenvalues --   -0.53491  -0.52861  -0.52656  -0.52036  -0.50993
 Alpha  occ. eigenvalues --   -0.50705  -0.50549  -0.50094  -0.49374  -0.49346
 Alpha  occ. eigenvalues --   -0.48910  -0.48685  -0.48530  -0.48252  -0.48055
 Alpha  occ. eigenvalues --   -0.47861  -0.47445  -0.47350  -0.46452  -0.46422
 Alpha  occ. eigenvalues --   -0.46031  -0.45747  -0.45681  -0.45098  -0.44686
 Alpha  occ. eigenvalues --   -0.44386  -0.44337  -0.44035  -0.43544  -0.43201
 Alpha  occ. eigenvalues --   -0.42612  -0.42403  -0.42247  -0.42007  -0.41929
 Alpha  occ. eigenvalues --   -0.41871  -0.41630  -0.41575  -0.41055  -0.40710
 Alpha  occ. eigenvalues --   -0.40624  -0.40064  -0.39917  -0.39645  -0.39502
 Alpha  occ. eigenvalues --   -0.38881  -0.38755  -0.38482  -0.38443  -0.37377
 Alpha  occ. eigenvalues --   -0.37060  -0.36781  -0.36498  -0.36190  -0.35456
 Alpha  occ. eigenvalues --   -0.34932  -0.34388  -0.33713  -0.32177  -0.31785
 Alpha  occ. eigenvalues --   -0.30590  -0.29454  -0.28900  -0.26762  -0.23603
 Alpha  occ. eigenvalues --   -0.19716
 Alpha virt. eigenvalues --   -0.05811  -0.01391   0.02677   0.06168   0.07419
 Alpha virt. eigenvalues --    0.08863   0.10346   0.11226   0.11824   0.12112
 Alpha virt. eigenvalues --    0.12473   0.12899   0.13108   0.13523   0.13717

 Mulliken charges:
               1
     1  O   -0.541812
     2  O   -0.562222
     3  C    0.005896
     4  C   -0.132416
     5  C   -0.171029
     6  C    0.189484
     7  C    0.118836
     8  C   -0.030557
     9  C   -0.304125
    10  C   -0.310990
    11  C   -0.201401
    12  C   -0.156327
    13  C    0.169453
    14  C    0.117189
    15  C   -0.080138
    16  C   -0.176133
    17  C   -0.042584
    18  C   -0.265059
    19  C   -0.302278
    20  C   -0.359318
    21  C   -0.103875
    22  C   -0.124000
    23  C   -0.354469
    24  C    0.142301
    25  C   -0.104011
    26  C   -0.385885
    27  C    0.082338
    28  C   -0.156486
    29  C   -0.356598
    30  C   -0.108140
    31  C   -0.026312
    32  C   -0.086919
    33  C   -0.089313
    34  C    0.058823
    35  C   -0.123877
    36  C    0.112829
    37  C   -0.368275
    38  C   -0.121188
    39  C   -0.124952
    40  C   -0.295505
    41  C   -0.080730
    42  C   -0.095936
    43  H    0.087687
    44  H    0.104797
    45  H    0.082569
    46  H    0.080948
    47  H    0.101415
    48  H    0.111575
    49  H    0.087058
    50  H    0.117321
    51  H    0.095110
    52  H    0.093790
    53  H    0.101357
    54  H    0.081882
    55  H    0.058697
    56  H    0.040496
    57  H    0.091810
    58  H    0.118216
    59  H    0.125762
    60  H    0.103931
    61  H    0.051507
    62  H    0.105055
    63  H    0.099515
    64  H    0.103196
    65  H    0.093230
    66  H    0.130210
    67  H    0.118095
    68  H    0.080384
    69  H    0.312158
    70  H    0.089687
    71  H    0.064467
    72  H    0.122696
    73  H    0.118653
    74  H    0.107044
    75  H    0.303457
    76  H    0.070922
    77  H    0.082399
    78  H    0.132550
    79  H    0.125588
    80  H    0.075007
    81  H    0.100059
    82  H    0.104487
    83  H    0.106540
    84  H    0.085890
    85  H    0.073627
    86  H    0.087371
    87  H    0.069351
    88  H    0.083008
    89  H    0.139669
    90  H    0.125064
    91  H    0.095577
    92  H    0.076461
    93  H    0.066305
    94  H    0.094245
    95  H    0.102145
    96  H    0.102032
    97  H    0.084478
    98  H    0.079155
 Sum of Mulliken charges =  -0.00000

 Dipole moment (field-independent basis, Debye):
    X=             -1.9854    Y=             -0.2458    Z=             -0.2802  Tot=              2.0201
 Quadrupole moment (field-independent basis, Debye-Ang):
   XX=           -286.7023   YY=           -242.7366   ZZ=           -260.8692
   XY=             15.7546   XZ=             35.1559   YZ=              3.0170

 Normal termination of Gaussian 16 at Sat Jul 13 01:10:47 2019.
