 Gaussian 16, Revision A.03,
 Gaussian 16:  ES64L-G16RevA.03 25-Dec-2016

 -------------------------------------
 # td=(NStates=1) CAM-B3LYP/6-31G(d,p)
 -------------------------------------

 --
 TD
 --
 Symbolic Z-matrix:
 Charge =  0 Multiplicity = 1

                         Standard orientation:
 ---------------------------------------------------------------------
 Center     Atomic      Atomic             Coordinates (Angstroms)
 Number     Number       Type             X           Y           Z
 ---------------------------------------------------------------------
      1          8           0      -14.343994   -1.854436    0.224646
      2          8           0       14.878761    1.074090   -0.004998
      3          6           0      -11.879616    0.036287    1.255586
      4          6           0      -11.034573    0.391274    0.069274
      5          6           0      -12.142066   -1.426279    1.268444
      6          6           0      -12.882826   -1.906763    0.024354
      7          6           0      -11.595098   -0.198527   -1.218640
      8          6           0       11.148266    1.043573    0.976795
      9          6           0      -11.157585    0.345605    2.511972
     10          6           0      -13.233358    0.692423    1.266483
     11          6           0       12.718177    1.614880    0.777222
     12          6           0      -12.420236   -1.296880   -1.260837
     13          6           0       13.524357    0.494665    0.285567
     14          6           0       10.599158    0.107703   -0.006634
     15          6           0       -9.653954   -0.125230    0.064733
     16          6           0       12.909338   -0.048542   -1.060208
     17          6           0       11.428144   -0.351686   -0.945539
     18          6           0       10.158225    2.300406    0.880005
     19          6           0       11.048210    0.432590    2.431010
     20          6           0      -11.209957    0.583474   -2.503540
     21          6           0       -8.594272    0.866631   -0.108869
     22          6           0        9.259774   -0.368061    0.041837
     23          6           0       11.194799   -1.377939   -2.042636
     24          6           0       -7.184575    0.538118   -0.072496
     25          6           0        8.888590   -1.737370   -0.036230
     26          6           0       -6.890340   -0.976014    0.099174
     27          6           0        7.581037   -2.204541    0.107197
     28          6           0       -6.174291    1.524688   -0.281060
     29          6           0        7.362600   -3.678645    0.342391
     30          6           0        6.482583   -1.375791   -0.010966
     31          6           0       -4.782679    1.289970   -0.160702
     32          6           0        5.139862   -1.699921   -0.055958
     33          6           0       -3.911953    2.357548   -0.369918
     34          6           0       -2.517662    2.439488   -0.506854
     35          6           0        4.157222   -0.760618   -0.232577
     36          6           0        2.719784   -0.891567   -0.180955
     37          6           0       -1.893530    3.767677   -0.899624
     38          6           0       -1.690212    1.344756   -0.350961
     39          6           0        1.846091    0.167951   -0.423414
     40          6           0        2.140273   -2.325317    0.096641
     41          6           0       -0.313496    1.331793   -0.582641
     42          6           0        0.440649    0.233539   -0.353931
     43          1           0      -11.095498    1.461156   -0.085359
     44          1           0      -12.589477   -1.615473    2.212200
     45          1           0      -11.193610   -2.031493    1.493481
     46          1           0      -12.716617   -3.090362   -0.157226
     47          1           0      -10.091564   -0.104460    2.692662
     48          1           0      -10.829013    1.377733    2.507157
     49          1           0      -11.845820    0.205941    3.301627
     50          1           0      -13.705398    0.595548    0.175707
     51          1           0      -13.666803   -0.030662    2.137885
     52          1           0      -13.368139    1.869179    1.604118
     53          1           0       12.759890    2.320506   -0.128973
     54          1           0       12.972142    2.212316    1.648887
     55          1           0      -12.789370   -1.849624   -2.143803
     56          1           0       13.581655   -0.336562    0.793110
     57          1           0       -9.567051   -1.057930    0.083338
     58          1           0       13.623107   -0.931429   -1.258336
     59          1           0       13.270549    0.578439   -1.896714
     60          1           0        9.042303    2.045135    1.300553
     61          1           0       10.061035    2.644519   -0.133439
     62          1           0       10.701230    3.049010    1.663051
     63          1           0       11.697843   -0.385719    2.416713
     64          1           0        9.977265    0.068326    2.617140
     65          1           0       11.478922    1.262635    3.260550
     66          1           0      -10.105555    0.679085   -2.660171
     67          1           0      -11.643791    1.549705   -2.517927
     68          1           0      -11.828566   -0.006157   -3.265227
     69          1           0      -14.776517   -1.612118   -0.719289
     70          1           0        8.530647    0.231316    0.712645
     71          1           0       -8.861446    1.947312   -0.215745
     72          1           0       11.581669   -2.310370   -1.842555
     73          1           0       10.035805   -1.762782   -2.419411
     74          1           0       11.582477   -1.084098   -3.108155
     75          1           0       15.230335    1.241014    1.001825
     76          1           0        9.682172   -2.393778   -0.232669
     77          1           0       -5.728548   -1.250613    0.102438
     78          1           0       -7.164293   -1.317513    1.140603
     79          1           0       -7.323545   -1.503311   -0.847353
     80          1           0       -6.387360    2.587086   -0.537690
     81          1           0        7.434001   -3.982281    1.614898
     82          1           0        6.288133   -4.111474   -0.197198
     83          1           0        8.214334   -4.266414   -0.116898
     84          1           0        6.727308   -0.509878   -0.278339
     85          1           0       -4.393604    0.304446   -0.088576
     86          1           0        4.736527   -2.770624    0.296595
     87          1           0       -4.317678    3.312768   -0.405601
     88          1           0        4.530149    0.388325   -0.457434
     89          1           0       -1.640132    3.873499   -2.010016
     90          1           0       -1.142879    4.022322   -0.276606
     91          1           0       -2.655641    4.508569   -0.561411
     92          1           0       -2.363124    0.538117    0.099583
     93          1           0        2.490151    1.004936   -0.644640
     94          1           0        1.795275   -2.482019    1.487236
     95          1           0        1.098391   -2.422615   -0.684452
     96          1           0        3.120228   -3.017134   -0.295439
     97          1           0        0.024447    2.380622   -0.896198
     98          1           0       -0.264253   -0.711996   -0.039304
 ---------------------------------------------------------------------

 SCF Done:  E(RCAM-B3LYP) =  -1706.82540773     A.U. after   15 cycles

 Excitation energies and oscillator strengths:

 Excited State   1:      Singlet-A      2.0032 eV  618.93 nm  f=3.3351  <S**2>=0.000
     155 ->158        -0.17020
     156 ->157         0.68578
 This state for optimization and/or second-order correction.
 Total Energy, E(TD-HF/TD-DFT) =  -1706.75179159
 Copying the excited state density for this state as the 1-particle RhoCI density.

 The electronic state is 1-A.
 Alpha  occ. eigenvalues --  -19.21780 -19.21119 -10.31457 -10.31400 -10.29420
 Alpha  occ. eigenvalues --  -10.29184 -10.28501 -10.28274 -10.28224 -10.28116
 Alpha  occ. eigenvalues --  -10.28106 -10.28008 -10.27998 -10.27802 -10.27425
 Alpha  occ. eigenvalues --  -10.27360 -10.27180 -10.27092 -10.27040 -10.26962
 Alpha  occ. eigenvalues --  -10.26885 -10.26783 -10.26731 -10.26574 -10.26564
 Alpha  occ. eigenvalues --  -10.26558 -10.26482 -10.26457 -10.26376 -10.26256
 Alpha  occ. eigenvalues --  -10.26248 -10.26152 -10.26072 -10.26072 -10.25963
 Alpha  occ. eigenvalues --  -10.25929 -10.25687 -10.25555 -10.25416 -10.24777
 Alpha  occ. eigenvalues --  -10.24317 -10.23805  -1.05809  -1.05747  -0.95305
 Alpha  occ. eigenvalues --   -0.94107  -0.92558  -0.92009  -0.90440  -0.89593
 Alpha  occ. eigenvalues --   -0.87951  -0.87238  -0.85813  -0.85728  -0.84881
 Alpha  occ. eigenvalues --   -0.83432  -0.82471  -0.79920  -0.79452  -0.77947
 Alpha  occ. eigenvalues --   -0.76421  -0.75944  -0.75811  -0.75476  -0.74965
 Alpha  occ. eigenvalues --   -0.74556  -0.74408  -0.73939  -0.72538  -0.70400
 Alpha  occ. eigenvalues --   -0.69347  -0.67240  -0.67138  -0.65724  -0.65370
 Alpha  occ. eigenvalues --   -0.63748  -0.62874  -0.62644  -0.60341  -0.59965
 Alpha  occ. eigenvalues --   -0.59128  -0.58382  -0.58064  -0.56712  -0.55486
 Alpha  occ. eigenvalues --   -0.55181  -0.54753  -0.54650  -0.54296  -0.53368
 Alpha  occ. eigenvalues --   -0.52967  -0.52336  -0.52068  -0.51696  -0.50872
 Alpha  occ. eigenvalues --   -0.50255  -0.49844  -0.49634  -0.49294  -0.49117
 Alpha  occ. eigenvalues --   -0.49001  -0.48540  -0.48008  -0.47807  -0.47662
 Alpha  occ. eigenvalues --   -0.47220  -0.47204  -0.46769  -0.46170  -0.46028
 Alpha  occ. eigenvalues --   -0.45289  -0.45247  -0.44925  -0.44830  -0.44599
 Alpha  occ. eigenvalues --   -0.44385  -0.43970  -0.43765  -0.43587  -0.43176
 Alpha  occ. eigenvalues --   -0.42849  -0.42653  -0.42264  -0.41899  -0.41419
 Alpha  occ. eigenvalues --   -0.41139  -0.40981  -0.40910  -0.40535  -0.40421
 Alpha  occ. eigenvalues --   -0.40256  -0.40063  -0.39483  -0.39462  -0.39037
 Alpha  occ. eigenvalues --   -0.38872  -0.38759  -0.38644  -0.38506  -0.38125
 Alpha  occ. eigenvalues --   -0.37177  -0.36970  -0.36919  -0.36551  -0.36199
 Alpha  occ. eigenvalues --   -0.35785  -0.34740  -0.34023  -0.32100  -0.31938
 Alpha  occ. eigenvalues --   -0.31398  -0.29682  -0.28935  -0.26847  -0.23130
 Alpha  occ. eigenvalues --   -0.19531
 Alpha virt. eigenvalues --   -0.06721  -0.02588   0.01374   0.04601   0.06594
 Alpha virt. eigenvalues --    0.08180   0.08936   0.10403   0.10573   0.11064
 Alpha virt. eigenvalues --    0.11586   0.11760   0.12104   0.12631   0.12874

 Mulliken charges:
               1
     1  O   -0.562179
     2  O   -0.571608
     3  C    0.005042
     4  C   -0.113131
     5  C   -0.177545
     6  C    0.166846
     7  C    0.066250
     8  C   -0.075604
     9  C   -0.296588
    10  C   -0.249849
    11  C   -0.169540
    12  C   -0.158499
    13  C    0.148096
    14  C    0.127745
    15  C   -0.033876
    16  C   -0.253763
    17  C    0.045569
    18  C   -0.284828
    19  C   -0.280871
    20  C   -0.352827
    21  C   -0.120797
    22  C   -0.134189
    23  C   -0.366966
    24  C    0.083403
    25  C   -0.100505
    26  C   -0.364442
    27  C    0.103698
    28  C   -0.126808
    29  C   -0.346610
    30  C   -0.071899
    31  C   -0.048768
    32  C   -0.093357
    33  C   -0.117563
    34  C    0.065375
    35  C   -0.107155
    36  C    0.096409
    37  C   -0.380656
    38  C   -0.095832
    39  C   -0.108186
    40  C   -0.303243
    41  C   -0.065780
    42  C   -0.103841
    43  H    0.089317
    44  H    0.109923
    45  H    0.087970
    46  H    0.058430
    47  H    0.091079
    48  H    0.096777
    49  H    0.096792
    50  H    0.092369
    51  H    0.094258
    52  H    0.068469
    53  H    0.109777
    54  H    0.092073
    55  H    0.094111
    56  H    0.099614
    57  H    0.083418
    58  H    0.103417
    59  H    0.127246
    60  H    0.079998
    61  H    0.119623
    62  H    0.076008
    63  H    0.111162
    64  H    0.105651
    65  H    0.071699
    66  H    0.125131
    67  H    0.123829
    68  H    0.099750
    69  H    0.300569
    70  H    0.084368
    71  H    0.088092
    72  H    0.135364
    73  H    0.071817
    74  H    0.100187
    75  H    0.300030
    76  H    0.094553
    77  H    0.089320
    78  H    0.127733
    79  H    0.125464
    80  H    0.088009
    81  H    0.085289
    82  H    0.090146
    83  H    0.109121
    84  H    0.065843
    85  H    0.087149
    86  H    0.090721
    87  H    0.067921
    88  H    0.070243
    89  H    0.127253
    90  H    0.137051
    91  H    0.098777
    92  H    0.069877
    93  H    0.078121
    94  H    0.067750
    95  H    0.092803
    96  H    0.091999
    97  H    0.095211
    98  H    0.090199
 Sum of Mulliken charges =  -0.00000

 Dipole moment (field-independent basis, Debye):
    X=              0.5353    Y=              0.5181    Z=             -0.0476  Tot=              0.7465
 Quadrupole moment (field-independent basis, Debye-Ang):
   XX=           -293.3024   YY=           -252.4552   ZZ=           -261.9866
   XY=            -19.7498   XZ=             43.3988   YZ=              1.7530

 Normal termination of Gaussian 16 at Sun Jul 14 08:15:41 2019.
