 Gaussian 16, Revision A.03,
 Gaussian 16:  ES64L-G16RevA.03 25-Dec-2016

 -------------------------------------
 # td=(NStates=1) CAM-B3LYP/6-31G(d,p)
 -------------------------------------

 --
 TD
 --
 Symbolic Z-matrix:
 Charge =  0 Multiplicity = 1

                         Standard orientation:
 ---------------------------------------------------------------------
 Center     Atomic      Atomic             Coordinates (Angstroms)
 Number     Number       Type             X           Y           Z
 ---------------------------------------------------------------------
      1          8           0      -14.178790   -1.877354    0.400345
      2          8           0       14.806565    1.038720    0.121176
      3          6           0      -11.852767    0.111151    1.299034
      4          6           0      -10.952868    0.311338   -0.063783
      5          6           0      -12.193587   -1.390029    1.503589
      6          6           0      -12.804429   -1.967906    0.297574
      7          6           0      -11.499952   -0.375590   -1.104878
      8          6           0       11.149506    1.122568    1.102348
      9          6           0      -11.098436    0.643937    2.518839
     10          6           0      -13.150871    0.957781    1.091299
     11          6           0       12.547787    1.596450    0.852600
     12          6           0      -12.266146   -1.494061   -1.056866
     13          6           0       13.540673    0.418274    0.419875
     14          6           0       10.590014    0.091079   -0.051612
     15          6           0       -9.525127   -0.041675    0.155789
     16          6           0       13.036659   -0.163551   -0.841827
     17          6           0       11.500117   -0.582732   -0.836768
     18          6           0       10.206382    2.381427    1.007286
     19          6           0       10.970391    0.422999    2.499436
     20          6           0      -11.143909    0.115412   -2.493325
     21          6           0       -8.549967    0.772603   -0.132347
     22          6           0        9.240387   -0.331759    0.019091
     23          6           0       11.174252   -1.459547   -1.972761
     24          6           0       -7.123157    0.502463   -0.101434
     25          6           0        8.832770   -1.624985   -0.001943
     26          6           0       -6.798100   -0.906978    0.305382
     27          6           0        7.475247   -2.231809   -0.023021
     28          6           0       -6.176229    1.489606   -0.299740
     29          6           0        7.210622   -3.569682    0.229453
     30          6           0        6.419674   -1.292241   -0.236798
     31          6           0       -4.780883    1.383026   -0.360580
     32          6           0        4.994045   -1.542240   -0.081138
     33          6           0       -3.928601    2.484597   -0.718384
     34          6           0       -2.535771    2.466931   -0.823477
     35          6           0        4.073085   -0.637753   -0.415159
     36          6           0        2.708212   -0.937147   -0.307813
     37          6           0       -1.866972    3.789307   -1.074517
     38          6           0       -1.808215    1.310735   -0.568659
     39          6           0        1.744513    0.122769   -0.496684
     40          6           0        2.182685   -2.381589    0.109776
     41          6           0       -0.350176    1.318322   -0.574620
     42          6           0        0.355700    0.182193   -0.448122
     43          1           0      -11.140973    1.374477   -0.171006
     44          1           0      -12.900672   -1.437006    2.486431
     45          1           0      -11.228115   -1.989528    1.934405
     46          1           0      -12.483955   -2.930892    0.196463
     47          1           0      -10.030373    0.268042    2.675021
     48          1           0      -10.932532    1.718345    2.349190
     49          1           0      -11.773431    0.345320    3.443497
     50          1           0      -13.655533    0.789187    0.093696
     51          1           0      -14.070063    0.494009    1.818159
     52          1           0      -12.953644    1.953448    1.097012
     53          1           0       12.437099    2.116614   -0.136432
     54          1           0       12.970165    2.038613    1.762946
     55          1           0      -12.779754   -2.038522   -1.901295
     56          1           0       13.679761   -0.208238    1.288000
     57          1           0       -9.322384   -1.079811    0.501496
     58          1           0       13.507520   -1.153992   -1.115055
     59          1           0       13.247918    0.627387   -1.613997
     60          1           0        9.024118    2.191949    1.101898
     61          1           0       10.263327    2.648223   -0.001862
     62          1           0       10.669100    3.100823    1.679296
     63          1           0       11.606595   -0.575560    2.548040
     64          1           0        9.913168    0.080060    2.666688
     65          1           0       11.248768    1.176021    3.248893
     66          1           0      -10.063656    0.112960   -2.775752
     67          1           0      -11.309569    1.164720   -2.546094
     68          1           0      -11.718940   -0.470724   -3.221136
     69          1           0      -14.750714   -1.776331   -0.451275
     70          1           0        8.523545    0.431358    0.360553
     71          1           0       -8.746017    1.866120   -0.364567
     72          1           0       11.585829   -2.435385   -1.932362
     73          1           0       10.081562   -1.280409   -2.174945
     74          1           0       11.589812   -1.207446   -2.933329
     75          1           0       15.139505    1.276925    1.007618
     76          1           0        9.569993   -2.474387    0.060228
     77          1           0       -5.667162   -1.004269    0.125171
     78          1           0       -7.113727   -1.026222    1.267013
     79          1           0       -7.290990   -1.536492   -0.315860
     80          1           0       -6.533516    2.454226   -0.710029
     81          1           0        6.556022   -3.524015    1.226885
     82          1           0        6.596850   -4.111131   -0.745761
     83          1           0        8.081681   -4.336619    0.482731
     84          1           0        6.952726   -0.439675   -0.511092
     85          1           0       -4.377463    0.444356    0.166808
     86          1           0        4.871384   -2.545542    0.238628
     87          1           0       -4.333870    3.485806   -1.147668
     88          1           0        4.337922    0.397640   -0.866573
     89          1           0       -1.412244    3.902795   -2.014845
     90          1           0       -1.245149    4.033514    0.008781
     91          1           0       -2.636551    4.701700   -0.987311
     92          1           0       -2.369860    0.320134   -0.383962
     93          1           0        2.095019    1.106773   -0.641507
     94          1           0        2.265457   -2.611441    1.293524
     95          1           0        1.014977   -2.336517   -0.139134
     96          1           0        2.672619   -3.084212   -0.491138
     97          1           0        0.076259    2.141067   -0.718161
     98          1           0       -0.039382   -0.821336   -0.239793
 ---------------------------------------------------------------------

 SCF Done:  E(RCAM-B3LYP) =  -1706.97570674     A.U. after   15 cycles

 Excitation energies and oscillator strengths:

 Excited State   1:      Singlet-A      2.0689 eV  599.26 nm  f=3.0486  <S**2>=0.000
     155 ->158         0.16636
     156 ->157         0.68751
 This state for optimization and/or second-order correction.
 Total Energy, E(TD-HF/TD-DFT) =  -1706.89967445
 Copying the excited state density for this state as the 1-particle RhoCI density.

 The electronic state is 1-A.
 Alpha  occ. eigenvalues --  -19.20960 -19.20930 -10.30112 -10.28832 -10.28352
 Alpha  occ. eigenvalues --  -10.28176 -10.27925 -10.27780 -10.27773 -10.27526
 Alpha  occ. eigenvalues --  -10.27436 -10.27046 -10.26944 -10.26865 -10.26769
 Alpha  occ. eigenvalues --  -10.26703 -10.26662 -10.26656 -10.26460 -10.26251
 Alpha  occ. eigenvalues --  -10.26038 -10.26022 -10.26008 -10.25991 -10.25881
 Alpha  occ. eigenvalues --  -10.25823 -10.25758 -10.25744 -10.25710 -10.25643
 Alpha  occ. eigenvalues --  -10.25589 -10.25558 -10.25549 -10.25292 -10.25154
 Alpha  occ. eigenvalues --  -10.25149 -10.25001 -10.24888 -10.24723 -10.24440
 Alpha  occ. eigenvalues --  -10.24232 -10.24023  -1.08892  -1.08857  -0.94526
 Alpha  occ. eigenvalues --   -0.92674  -0.92099  -0.91423  -0.90821  -0.89809
 Alpha  occ. eigenvalues --   -0.87795  -0.86660  -0.86499  -0.85459  -0.84778
 Alpha  occ. eigenvalues --   -0.83084  -0.81905  -0.80604  -0.80314  -0.77790
 Alpha  occ. eigenvalues --   -0.76773  -0.76099  -0.75932  -0.75457  -0.75241
 Alpha  occ. eigenvalues --   -0.74864  -0.74513  -0.74401  -0.72518  -0.70515
 Alpha  occ. eigenvalues --   -0.68815  -0.67873  -0.66835  -0.64673  -0.63617
 Alpha  occ. eigenvalues --   -0.63229  -0.62357  -0.61943  -0.60519  -0.59125
 Alpha  occ. eigenvalues --   -0.59036  -0.58659  -0.58406  -0.57377  -0.56485
 Alpha  occ. eigenvalues --   -0.55596  -0.55123  -0.54704  -0.53898  -0.53683
 Alpha  occ. eigenvalues --   -0.53454  -0.52819  -0.52661  -0.51789  -0.51015
 Alpha  occ. eigenvalues --   -0.50904  -0.50648  -0.50085  -0.49537  -0.49413
 Alpha  occ. eigenvalues --   -0.48907  -0.48702  -0.48409  -0.48081  -0.47933
 Alpha  occ. eigenvalues --   -0.47900  -0.47637  -0.47252  -0.47144  -0.46178
 Alpha  occ. eigenvalues --   -0.45872  -0.45588  -0.45483  -0.45297  -0.45098
 Alpha  occ. eigenvalues --   -0.44607  -0.43599  -0.43564  -0.43418  -0.43186
 Alpha  occ. eigenvalues --   -0.43036  -0.42626  -0.42480  -0.42323  -0.41788
 Alpha  occ. eigenvalues --   -0.41632  -0.41044  -0.40776  -0.40442  -0.40313
 Alpha  occ. eigenvalues --   -0.39993  -0.39478  -0.39374  -0.39198  -0.38899
 Alpha  occ. eigenvalues --   -0.38648  -0.38303  -0.38220  -0.38090  -0.37797
 Alpha  occ. eigenvalues --   -0.37664  -0.37300  -0.36664  -0.36566  -0.36438
 Alpha  occ. eigenvalues --   -0.35652  -0.34035  -0.33360  -0.31620  -0.31081
 Alpha  occ. eigenvalues --   -0.30818  -0.29237  -0.28599  -0.26643  -0.23117
 Alpha  occ. eigenvalues --   -0.19265
 Alpha virt. eigenvalues --   -0.06057  -0.01526   0.02641   0.05352   0.07078
 Alpha virt. eigenvalues --    0.08683   0.11317   0.11723   0.11989   0.12251
 Alpha virt. eigenvalues --    0.12682   0.12783   0.13046   0.13437   0.13861

 Mulliken charges:
               1
     1  O   -0.566656
     2  O   -0.551733
     3  C    0.017725
     4  C   -0.165872
     5  C   -0.183516
     6  C    0.212255
     7  C    0.166219
     8  C   -0.008031
     9  C   -0.292130
    10  C   -0.295631
    11  C   -0.179490
    12  C   -0.195288
    13  C    0.145715
    14  C    0.054281
    15  C   -0.083768
    16  C   -0.213771
    17  C    0.028292
    18  C   -0.299766
    19  C   -0.293234
    20  C   -0.355980
    21  C   -0.065968
    22  C   -0.147882
    23  C   -0.372836
    24  C    0.076386
    25  C   -0.093269
    26  C   -0.362795
    27  C    0.108388
    28  C   -0.118284
    29  C   -0.395216
    30  C   -0.098271
    31  C   -0.088194
    32  C   -0.098768
    33  C   -0.133221
    34  C    0.106906
    35  C   -0.079402
    36  C    0.073307
    37  C   -0.373325
    38  C   -0.112700
    39  C   -0.131523
    40  C   -0.349088
    41  C   -0.063385
    42  C   -0.048682
    43  H    0.095568
    44  H    0.094416
    45  H    0.070889
    46  H    0.081832
    47  H    0.095824
    48  H    0.093793
    49  H    0.087436
    50  H    0.094656
    51  H    0.088977
    52  H    0.103935
    53  H    0.105331
    54  H    0.080439
    55  H    0.082084
    56  H    0.083215
    57  H    0.094666
    58  H    0.095426
    59  H    0.126234
    60  H    0.084379
    61  H    0.116516
    62  H    0.100620
    63  H    0.086503
    64  H    0.109991
    65  H    0.094331
    66  H    0.113693
    67  H    0.106103
    68  H    0.102553
    69  H    0.310808
    70  H    0.088498
    71  H    0.070030
    72  H    0.115376
    73  H    0.121460
    74  H    0.109902
    75  H    0.301648
    76  H    0.079135
    77  H    0.089698
    78  H    0.135056
    79  H    0.132071
    80  H    0.075185
    81  H    0.119753
    82  H    0.100000
    83  H    0.102831
    84  H    0.069758
    85  H    0.090745
    86  H    0.091052
    87  H    0.079699
    88  H    0.096831
    89  H    0.140501
    90  H    0.103649
    91  H    0.095902
    92  H    0.084062
    93  H    0.064677
    94  H    0.111356
    95  H    0.094441
    96  H    0.131643
    97  H    0.066715
    98  H    0.066310
 Sum of Mulliken charges =  -0.00000

 Dipole moment (field-independent basis, Debye):
    X=             -0.1948    Y=             -0.2559    Z=             -0.1800  Tot=              0.3685
 Quadrupole moment (field-independent basis, Debye-Ang):
   XX=           -276.1739   YY=           -247.5013   ZZ=           -261.2581
   XY=             -9.5112   XZ=             42.8115   YZ=              0.1057

 Normal termination of Gaussian 16 at Mon Jul 15 16:41:54 2019.
