 Gaussian 16, Revision A.03,
 Gaussian 16:  ES64L-G16RevA.03 25-Dec-2016

 -------------------------------------
 # td=(NStates=1) CAM-B3LYP/6-31G(d,p)
 -------------------------------------

 --
 TD
 --
 Symbolic Z-matrix:
 Charge =  0 Multiplicity = 1

                         Standard orientation:
 ---------------------------------------------------------------------
 Center     Atomic      Atomic             Coordinates (Angstroms)
 Number     Number       Type             X           Y           Z
 ---------------------------------------------------------------------
      1          8           0      -14.070072   -2.108847    0.121448
      2          8           0       14.837079    0.802828   -0.135264
      3          6           0      -11.770085   -0.157617    1.273871
      4          6           0      -10.908213    0.158562    0.029510
      5          6           0      -11.989361   -1.625783    1.295006
      6          6           0      -12.712540   -2.145766   -0.004084
      7          6           0      -11.389309   -0.443247   -1.257624
      8          6           0       11.190329    0.827586    1.107811
      9          6           0      -11.069398    0.316189    2.575065
     10          6           0      -13.079102    0.565206    1.232367
     11          6           0       12.561764    1.413819    0.675901
     12          6           0      -12.147704   -1.519043   -1.298177
     13          6           0       13.527941    0.309629    0.231178
     14          6           0       10.707166   -0.085943    0.004444
     15          6           0       -9.434582   -0.108616    0.170665
     16          6           0       12.883343   -0.323167   -0.940425
     17          6           0       11.427195   -0.634368   -0.954436
     18          6           0       10.179672    1.997392    1.174905
     19          6           0       11.183540    0.179173    2.474800
     20          6           0      -10.954652    0.205955   -2.523072
     21          6           0       -8.453459    0.876661    0.075150
     22          6           0        9.221834   -0.367343    0.093143
     23          6           0       11.005146   -1.380547   -2.144735
     24          6           0       -7.032681    0.667029   -0.019627
     25          6           0        8.708659   -1.684975   -0.041580
     26          6           0       -6.610097   -0.785793    0.152727
     27          6           0        7.359071   -2.104659   -0.119368
     28          6           0       -6.179211    1.719871   -0.219703
     29          6           0        6.900506   -3.502962    0.221043
     30          6           0        6.241479   -1.224126   -0.259730
     31          6           0       -4.784256    1.622892   -0.338815
     32          6           0        4.934399   -1.429421   -0.081725
     33          6           0       -4.060600    2.787002   -0.504264
     34          6           0       -2.606165    2.785644   -0.533583
     35          6           0        3.916041   -0.542850   -0.302235
     36          6           0        2.516267   -0.765812   -0.086916
     37          6           0       -1.958623    4.102600   -0.902463
     38          6           0       -1.797227    1.599060   -0.368705
     39          6           0        1.634120    0.402552   -0.398662
     40          6           0        1.998657   -2.069675    0.248356
     41          6           0       -0.341951    1.601886   -0.569094
     42          6           0        0.355553    0.410469   -0.205847
     43          1           0      -11.158118    1.254652   -0.030056
     44          1           0      -12.656770   -2.187401    1.970089
     45          1           0      -11.187351   -2.044806    1.387456
     46          1           0      -12.457591   -3.146226    0.008014
     47          1           0      -10.134662   -0.084751    2.695054
     48          1           0      -10.842366    1.419277    2.409530
     49          1           0      -11.712121    0.286375    3.492170
     50          1           0      -13.822503    0.441660    0.392354
     51          1           0      -13.618871    0.328577    2.044746
     52          1           0      -12.962334    1.863379    1.188445
     53          1           0       12.387008    2.495424    0.169345
     54          1           0       12.830083    1.908778    1.584193
     55          1           0      -12.609505   -2.069433   -2.150761
     56          1           0       13.516927   -0.358755    1.002299
     57          1           0       -8.922526   -1.018167    0.657014
     58          1           0       13.444259   -1.090892   -1.314074
     59          1           0       13.309269    0.498890   -1.726246
     60          1           0        9.266510    1.721379    1.818586
     61          1           0        9.914495    2.382003    0.353876
     62          1           0       10.868399    2.845551    1.751514
     63          1           0       12.153737   -0.462324    2.589066
     64          1           0       10.244648   -0.484438    2.757761
     65          1           0       11.309465    0.869867    3.292686
     66          1           0       -9.850251    0.289652   -2.579109
     67          1           0      -11.129651    1.261451   -2.559480
     68          1           0      -11.067373   -0.539013   -3.291809
     69          1           0      -14.480346   -1.919314   -0.887341
     70          1           0        8.515570    0.401900    0.235652
     71          1           0       -8.778917    1.830911   -0.220141
     72          1           0       11.497552   -2.408761   -2.375025
     73          1           0        9.853797   -1.521645   -2.032107
     74          1           0       11.305939   -0.814668   -3.093953
     75          1           0       15.001850    0.959915    0.857176
     76          1           0        9.450015   -2.505285   -0.175650
     77          1           0       -5.461471   -0.844125    0.261646
     78          1           0       -6.976876   -1.248072    0.989047
     79          1           0       -6.786510   -1.341939   -0.685902
     80          1           0       -6.507742    2.840907   -0.145032
     81          1           0        6.232160   -3.428109    1.083345
     82          1           0        6.350214   -3.863566   -0.804216
     83          1           0        7.701293   -4.189239    0.638063
     84          1           0        6.438727   -0.157850   -0.632654
     85          1           0       -4.089929    0.670768   -0.190769
     86          1           0        4.680178   -2.405531    0.276058
     87          1           0       -4.541851    3.711917   -0.482253
     88          1           0        4.217995    0.408666   -0.837115
     89          1           0       -1.386482    3.950613   -1.731226
     90          1           0       -1.369762    4.399566   -0.097942
     91          1           0       -2.751626    4.782725   -1.227395
     92          1           0       -2.161740    0.738993   -0.141152
     93          1           0        2.076605    1.273444   -0.807097
     94          1           0        2.490127   -2.419399    1.179464
     95          1           0        0.930157   -2.031640    0.756397
     96          1           0        2.180374   -2.832145   -0.547664
     97          1           0        0.294261    2.538453   -0.893918
     98          1           0       -0.213242   -0.394843    0.163146
 ---------------------------------------------------------------------

 SCF Done:  E(RCAM-B3LYP) =  -1706.91481139     A.U. after   16 cycles

 Excitation energies and oscillator strengths:

 Excited State   1:      Singlet-A      1.7514 eV  707.91 nm  f=2.9744  <S**2>=0.000
     155 ->158         0.12749
     156 ->157         0.70456
     156 <-157        -0.13541
 This state for optimization and/or second-order correction.
 Total Energy, E(TD-HF/TD-DFT) =  -1706.85044779
 Copying the excited state density for this state as the 1-particle RhoCI density.

 The electronic state is 1-A.
 Alpha  occ. eigenvalues --  -19.22436 -19.21945 -10.30013 -10.28682 -10.28256
 Alpha  occ. eigenvalues --  -10.28027 -10.27764 -10.27755 -10.27428 -10.27378
 Alpha  occ. eigenvalues --  -10.27323 -10.27318 -10.27125 -10.26886 -10.26744
 Alpha  occ. eigenvalues --  -10.26726 -10.26527 -10.26441 -10.26319 -10.26272
 Alpha  occ. eigenvalues --  -10.26159 -10.25990 -10.25988 -10.25849 -10.25848
 Alpha  occ. eigenvalues --  -10.25845 -10.25810 -10.25795 -10.25567 -10.25451
 Alpha  occ. eigenvalues --  -10.25380 -10.25220 -10.25183 -10.25103 -10.25033
 Alpha  occ. eigenvalues --  -10.24698 -10.24485 -10.24390 -10.24322 -10.24045
 Alpha  occ. eigenvalues --  -10.23904 -10.22135  -1.09532  -1.09289  -0.94259
 Alpha  occ. eigenvalues --   -0.94157  -0.92334  -0.91799  -0.90650  -0.89660
 Alpha  occ. eigenvalues --   -0.87818  -0.87687  -0.87337  -0.85502  -0.84740
 Alpha  occ. eigenvalues --   -0.83009  -0.82575  -0.80589  -0.79682  -0.79300
 Alpha  occ. eigenvalues --   -0.77633  -0.76848  -0.76249  -0.75899  -0.75736
 Alpha  occ. eigenvalues --   -0.75422  -0.75276  -0.75197  -0.71838  -0.70151
 Alpha  occ. eigenvalues --   -0.69039  -0.67763  -0.66311  -0.65423  -0.64236
 Alpha  occ. eigenvalues --   -0.63836  -0.63463  -0.63024  -0.60930  -0.59797
 Alpha  occ. eigenvalues --   -0.59395  -0.59146  -0.58995  -0.58303  -0.56604
 Alpha  occ. eigenvalues --   -0.55611  -0.55337  -0.54283  -0.53859  -0.53726
 Alpha  occ. eigenvalues --   -0.53458  -0.53025  -0.52682  -0.52327  -0.51517
 Alpha  occ. eigenvalues --   -0.50821  -0.50572  -0.50425  -0.50135  -0.50053
 Alpha  occ. eigenvalues --   -0.49626  -0.49412  -0.48763  -0.48540  -0.48292
 Alpha  occ. eigenvalues --   -0.48043  -0.47761  -0.47043  -0.46875  -0.46606
 Alpha  occ. eigenvalues --   -0.46167  -0.45724  -0.45508  -0.45291  -0.45028
 Alpha  occ. eigenvalues --   -0.44705  -0.44304  -0.44192  -0.44139  -0.43612
 Alpha  occ. eigenvalues --   -0.43260  -0.42806  -0.42442  -0.42082  -0.41943
 Alpha  occ. eigenvalues --   -0.41699  -0.41286  -0.41020  -0.40908  -0.40696
 Alpha  occ. eigenvalues --   -0.40292  -0.40059  -0.39919  -0.39607  -0.39348
 Alpha  occ. eigenvalues --   -0.39284  -0.38985  -0.38686  -0.38560  -0.38008
 Alpha  occ. eigenvalues --   -0.37981  -0.37485  -0.36995  -0.36842  -0.36006
 Alpha  occ. eigenvalues --   -0.35340  -0.33906  -0.33132  -0.32666  -0.31290
 Alpha  occ. eigenvalues --   -0.31164  -0.29545  -0.28928  -0.26590  -0.23515
 Alpha  occ. eigenvalues --   -0.17834
 Alpha virt. eigenvalues --   -0.07094  -0.01468   0.02305   0.05712   0.07170
 Alpha virt. eigenvalues --    0.08248   0.10865   0.11272   0.11575   0.11944
 Alpha virt. eigenvalues --    0.12666   0.12938   0.13129   0.13249   0.14025

 Mulliken charges:
               1
     1  O   -0.544722
     2  O   -0.541394
     3  C    0.007617
     4  C   -0.150570
     5  C   -0.149401
     6  C    0.156987
     7  C    0.141922
     8  C   -0.008603
     9  C   -0.296701
    10  C   -0.270655
    11  C   -0.207477
    12  C   -0.178644
    13  C    0.128830
    14  C    0.056709
    15  C   -0.084754
    16  C   -0.229711
    17  C    0.113488
    18  C   -0.286594
    19  C   -0.297157
    20  C   -0.368454
    21  C   -0.093932
    22  C   -0.125629
    23  C   -0.373817
    24  C    0.094530
    25  C   -0.137064
    26  C   -0.380180
    27  C    0.073402
    28  C   -0.138431
    29  C   -0.365873
    30  C   -0.114946
    31  C   -0.042577
    32  C   -0.063153
    33  C   -0.117926
    34  C    0.044748
    35  C   -0.116689
    36  C    0.084883
    37  C   -0.368702
    38  C   -0.095873
    39  C   -0.101218
    40  C   -0.386837
    41  C   -0.114486
    42  C   -0.044512
    43  H    0.101064
    44  H    0.100062
    45  H    0.086456
    46  H    0.072076
    47  H    0.104242
    48  H    0.086537
    49  H    0.101771
    50  H    0.102112
    51  H    0.118494
    52  H    0.030283
    53  H    0.093841
    54  H    0.079466
    55  H    0.074279
    56  H    0.100439
    57  H    0.085240
    58  H    0.104281
    59  H    0.095671
    60  H    0.101542
    61  H    0.121202
    62  H    0.058864
    63  H    0.078326
    64  H    0.108409
    65  H    0.108885
    66  H    0.114534
    67  H    0.121815
    68  H    0.116697
    69  H    0.306382
    70  H    0.093957
    71  H    0.071799
    72  H    0.102566
    73  H    0.115675
    74  H    0.111539
    75  H    0.311679
    76  H    0.089433
    77  H    0.089224
    78  H    0.133257
    79  H    0.141612
    80  H    0.090686
    81  H    0.131891
    82  H    0.109655
    83  H    0.099063
    84  H    0.060564
    85  H    0.089879
    86  H    0.070372
    87  H    0.082805
    88  H    0.076664
    89  H    0.135726
    90  H    0.135142
    91  H    0.104679
    92  H    0.061293
    93  H    0.080404
    94  H    0.122312
    95  H    0.097068
    96  H    0.136216
    97  H    0.090151
    98  H    0.085280
 Sum of Mulliken charges =  -0.00000

 Dipole moment (field-independent basis, Debye):
    X=             -1.3785    Y=              0.0482    Z=              0.4125  Tot=              1.4397
 Quadrupole moment (field-independent basis, Debye-Ang):
   XX=           -307.0660   YY=           -248.0389   ZZ=           -259.8635
   XY=             -7.1362   XZ=             42.4691   YZ=             -0.1234

 Normal termination of Gaussian 16 at Mon Jul 15 06:05:56 2019.
