 Gaussian 16, Revision A.03,
 Gaussian 16:  ES64L-G16RevA.03 25-Dec-2016

 -------------------------------------
 # td=(NStates=1) CAM-B3LYP/6-31G(d,p)
 -------------------------------------

 --
 TD
 --
 Symbolic Z-matrix:
 Charge =  0 Multiplicity = 1

                         Standard orientation:
 ---------------------------------------------------------------------
 Center     Atomic      Atomic             Coordinates (Angstroms)
 Number     Number       Type             X           Y           Z
 ---------------------------------------------------------------------
      1          8           0       14.127054    1.986161    0.630997
      2          8           0      -14.722814   -1.350535    0.148720
      3          6           0       11.842355   -0.236687    1.333233
      4          6           0       11.004469   -0.422250    0.049763
      5          6           0       11.955805    1.289337    1.489880
      6          6           0       12.609348    1.998838    0.365411
      7          6           0       11.644699    0.294096   -1.308211
      8          6           0      -11.100117   -0.956032    1.176169
      9          6           0       11.085797   -0.860714    2.440519
     10          6           0       13.181741   -0.979330    1.162148
     11          6           0      -12.389658   -1.744582    0.790166
     12          6           0       12.274319    1.425005   -1.024432
     13          6           0      -13.453746   -0.767023    0.313413
     14          6           0      -10.696930   -0.036115   -0.014277
     15          6           0        9.568175    0.082876    0.084078
     16          6           0      -12.997076   -0.109022   -0.953584
     17          6           0      -11.558819    0.302535   -0.986135
     18          6           0      -10.044921   -2.106757    1.278790
     19          6           0      -11.022577   -0.114384    2.466537
     20          6           0       11.441258   -0.293157   -2.667971
     21          6           0        8.518254   -0.722088   -0.231020
     22          6           0       -9.343493    0.479391    0.079255
     23          6           0      -11.144241    1.187036   -2.099012
     24          6           0        7.138294   -0.324822   -0.063565
     25          6           0       -8.870545    1.689095   -0.078524
     26          6           0        6.880371    1.043702    0.351670
     27          6           0       -7.455696    2.254780   -0.072015
     28          6           0        6.201937   -1.359304   -0.403261
     29          6           0       -7.339943    3.691485    0.098274
     30          6           0       -6.462620    1.304438   -0.238298
     31          6           0        4.774344   -1.259264   -0.396324
     32          6           0       -5.106945    1.692422    0.046223
     33          6           0        3.968748   -2.326825   -0.674199
     34          6           0        2.563507   -2.469961   -0.668472
     35          6           0       -4.043043    0.843049   -0.180857
     36          6           0       -2.674784    0.942263   -0.317130
     37          6           0        1.904683   -3.844101   -0.949866
     38          6           0        1.805013   -1.337296   -0.596814
     39          6           0       -1.893911   -0.129084   -0.491458
     40          6           0       -2.142956    2.351569    0.048289
     41          6           0        0.358470   -1.319560   -0.528584
     42          6           0       -0.470814   -0.206119   -0.392823
     43          1           0       11.082259   -1.600953   -0.142728
     44          1           0       12.558877    1.671865    2.304163
     45          1           0       10.883484    1.594686    1.701632
     46          1           0       12.312733    2.992076    0.421736
     47          1           0       10.202019   -0.569516    2.590068
     48          1           0       10.733671   -1.923531    2.344786
     49          1           0       12.028253   -0.889087    3.190624
     50          1           0       13.649064   -0.376968    0.283904
     51          1           0       13.842221   -0.974038    1.981148
     52          1           0       13.080165   -2.249752    0.827233
     53          1           0      -12.082744   -2.472163    0.034602
     54          1           0      -12.921201   -2.097189    1.709844
     55          1           0       12.626089    2.081899   -1.862109
     56          1           0      -13.604969    0.042159    1.296133
     57          1           0        9.366900    1.108290    0.157040
     58          1           0      -13.550708    0.875370   -1.211216
     59          1           0      -13.144794   -0.711173   -1.841918
     60          1           0       -9.073217   -1.644702    1.711112
     61          1           0       -9.961263   -2.517308    0.219285
     62          1           0      -10.385656   -2.842891    1.932634
     63          1           0      -11.734765    0.547953    2.535089
     64          1           0      -10.119307    0.565558    2.859117
     65          1           0      -11.264723   -0.680426    3.359142
     66          1           0       10.343066   -0.738852   -2.763229
     67          1           0       12.073911   -1.110758   -2.879028
     68          1           0       11.484279    0.480688   -3.348701
     69          1           0       14.505438    2.490678   -0.252261
     70          1           0       -8.594943   -0.221575    0.431989
     71          1           0        8.711999   -1.682742   -0.743998
     72          1           0      -12.002979    2.206433   -1.943868
     73          1           0      -10.037584    1.553731   -2.192180
     74          1           0      -11.581740    0.646094   -3.173277
     75          1           0      -15.292348   -1.183629    1.107893
     76          1           0       -9.757466    2.218045   -0.452236
     77          1           0        5.711263    1.271871    0.406675
     78          1           0        7.550156    1.461393    1.217657
     79          1           0        7.162042    1.500991   -0.637725
     80          1           0        6.635743   -2.297213   -0.668988
     81          1           0       -7.261049    4.135449    1.102800
     82          1           0       -6.349663    4.043967   -0.411075
     83          1           0       -8.237183    4.318247   -0.187148
     84          1           0       -6.761981    0.300517   -0.249622
     85          1           0        4.345519   -0.286943   -0.077089
     86          1           0       -4.809670    2.670669    0.281544
     87          1           0        4.677426   -3.084540   -0.911180
     88          1           0       -4.547646   -0.091899   -0.462537
     89          1           0        1.258989   -3.871772   -1.889023
     90          1           0        1.282033   -4.172666   -0.105268
     91          1           0        2.707899   -4.606122   -1.012540
     92          1           0        2.241380   -0.450639   -0.675705
     93          1           0       -2.300247   -1.184831   -0.764151
     94          1           0       -2.547652    2.875189    0.986290
     95          1           0       -1.038176    2.677004    0.130848
     96          1           0       -2.298188    2.969023   -0.963181
     97          1           0       -0.067013   -2.215632   -0.675343
     98          1           0       -0.014424    0.680012   -0.287322
 ---------------------------------------------------------------------

 SCF Done:  E(RCAM-B3LYP) =  -1706.91452701     A.U. after   14 cycles

 Excitation energies and oscillator strengths:

 Excited State   1:      Singlet-A      2.3383 eV  530.22 nm  f=3.0805  <S**2>=0.000
     155 ->158         0.15977
     156 ->157         0.68694
 This state for optimization and/or second-order correction.
 Total Energy, E(TD-HF/TD-DFT) =  -1706.82859452
 Copying the excited state density for this state as the 1-particle RhoCI density.

 The electronic state is 1-A.
 Alpha  occ. eigenvalues --  -19.22470 -19.22043 -10.32066 -10.30648 -10.29173
 Alpha  occ. eigenvalues --  -10.27951 -10.27914 -10.27898 -10.27792 -10.27652
 Alpha  occ. eigenvalues --  -10.27637 -10.27586 -10.27514 -10.27422 -10.26855
 Alpha  occ. eigenvalues --  -10.26603 -10.26592 -10.26477 -10.26472 -10.26403
 Alpha  occ. eigenvalues --  -10.26284 -10.26101 -10.25810 -10.25795 -10.25759
 Alpha  occ. eigenvalues --  -10.25759 -10.25717 -10.25709 -10.25620 -10.25513
 Alpha  occ. eigenvalues --  -10.25424 -10.25423 -10.25270 -10.25215 -10.25125
 Alpha  occ. eigenvalues --  -10.25090 -10.25011 -10.24812 -10.24676 -10.24403
 Alpha  occ. eigenvalues --  -10.24047 -10.23051  -1.08008  -1.04722  -0.93689
 Alpha  occ. eigenvalues --   -0.93316  -0.92257  -0.91809  -0.90743  -0.90078
 Alpha  occ. eigenvalues --   -0.87226  -0.87055  -0.86902  -0.85722  -0.84500
 Alpha  occ. eigenvalues --   -0.83231  -0.82078  -0.81140  -0.80125  -0.78055
 Alpha  occ. eigenvalues --   -0.77132  -0.76865  -0.76510  -0.75819  -0.75402
 Alpha  occ. eigenvalues --   -0.75025  -0.74656  -0.74380  -0.73426  -0.70388
 Alpha  occ. eigenvalues --   -0.68286  -0.67161  -0.66082  -0.64254  -0.63576
 Alpha  occ. eigenvalues --   -0.63314  -0.62696  -0.62342  -0.61232  -0.60641
 Alpha  occ. eigenvalues --   -0.59306  -0.58693  -0.58008  -0.56767  -0.55861
 Alpha  occ. eigenvalues --   -0.55780  -0.55605  -0.54962  -0.54253  -0.53824
 Alpha  occ. eigenvalues --   -0.53302  -0.52808  -0.52511  -0.51686  -0.51231
 Alpha  occ. eigenvalues --   -0.50675  -0.50486  -0.49650  -0.49447  -0.49242
 Alpha  occ. eigenvalues --   -0.48800  -0.48659  -0.48495  -0.48096  -0.48039
 Alpha  occ. eigenvalues --   -0.47968  -0.47725  -0.46936  -0.46207  -0.45652
 Alpha  occ. eigenvalues --   -0.45474  -0.45467  -0.45068  -0.44833  -0.44625
 Alpha  occ. eigenvalues --   -0.44432  -0.44405  -0.43845  -0.43395  -0.42936
 Alpha  occ. eigenvalues --   -0.42822  -0.42529  -0.42347  -0.41950  -0.41831
 Alpha  occ. eigenvalues --   -0.41682  -0.41237  -0.40959  -0.40906  -0.40538
 Alpha  occ. eigenvalues --   -0.40286  -0.40034  -0.39928  -0.39233  -0.39090
 Alpha  occ. eigenvalues --   -0.38941  -0.38828  -0.38389  -0.38055  -0.37311
 Alpha  occ. eigenvalues --   -0.36954  -0.36687  -0.36061  -0.35808  -0.35600
 Alpha  occ. eigenvalues --   -0.35388  -0.34603  -0.33372  -0.32707  -0.31709
 Alpha  occ. eigenvalues --   -0.31184  -0.30064  -0.28734  -0.26753  -0.23605
 Alpha  occ. eigenvalues --   -0.20040
 Alpha virt. eigenvalues --   -0.05386  -0.00901   0.02925   0.05658   0.06591
 Alpha virt. eigenvalues --    0.06735   0.08651   0.10742   0.11716   0.11983
 Alpha virt. eigenvalues --    0.12376   0.12798   0.13281   0.13537   0.14005

 Mulliken charges:
               1
     1  O   -0.559748
     2  O   -0.564983
     3  C    0.017972
     4  C   -0.139569
     5  C   -0.179148
     6  C    0.127766
     7  C    0.103830
     8  C   -0.019011
     9  C   -0.260158
    10  C   -0.279289
    11  C   -0.162704
    12  C   -0.138534
    13  C    0.181282
    14  C    0.056327
    15  C   -0.101120
    16  C   -0.212852
    17  C    0.079910
    18  C   -0.295466
    19  C   -0.316514
    20  C   -0.360596
    21  C   -0.093266
    22  C   -0.100130
    23  C   -0.336045
    24  C    0.118361
    25  C   -0.134628
    26  C   -0.383822
    27  C    0.115510
    28  C   -0.145851
    29  C   -0.385635
    30  C   -0.116215
    31  C   -0.054897
    32  C   -0.085607
    33  C   -0.128434
    34  C    0.099204
    35  C   -0.118620
    36  C    0.137366
    37  C   -0.376696
    38  C   -0.094483
    39  C   -0.127057
    40  C   -0.386447
    41  C   -0.079181
    42  C   -0.066806
    43  H    0.072614
    44  H    0.115455
    45  H    0.093302
    46  H    0.103225
    47  H    0.098801
    48  H    0.085310
    49  H    0.082891
    50  H    0.117093
    51  H    0.112413
    52  H    0.043695
    53  H    0.111100
    54  H    0.082116
    55  H    0.056018
    56  H    0.031446
    57  H    0.095487
    58  H    0.096665
    59  H    0.123695
    60  H    0.093484
    61  H    0.094047
    62  H    0.108971
    63  H    0.113289
    64  H    0.104195
    65  H    0.091898
    66  H    0.097258
    67  H    0.137223
    68  H    0.123598
    69  H    0.301095
    70  H    0.067312
    71  H    0.086119
    72  H    0.058567
    73  H    0.136290
    74  H    0.073033
    75  H    0.315358
    76  H    0.071936
    77  H    0.102527
    78  H    0.124604
    79  H    0.136682
    80  H    0.082140
    81  H    0.128252
    82  H    0.109528
    83  H    0.117475
    84  H    0.097637
    85  H    0.073815
    86  H    0.074349
    87  H    0.072408
    88  H    0.067785
    89  H    0.125047
    90  H    0.127849
    91  H    0.111199
    92  H    0.072967
    93  H    0.079708
    94  H    0.122504
    95  H    0.107380
    96  H    0.108742
    97  H    0.065576
    98  H    0.062808
 Sum of Mulliken charges =  -0.00000

 Dipole moment (field-independent basis, Debye):
    X=             -1.0108    Y=              1.8216    Z=             -0.3126  Tot=              2.1065
 Quadrupole moment (field-independent basis, Debye-Ang):
   XX=           -278.2333   YY=           -244.9271   ZZ=           -261.4706
   XY=              1.0041   XZ=            -48.7114   YZ=              1.0430

 Normal termination of Gaussian 16 at Mon Jul 15 13:17:43 2019.
