 Gaussian 16, Revision A.03,
 Gaussian 16:  ES64L-G16RevA.03 25-Dec-2016

 -------------------------------------
 # td=(NStates=1) CAM-B3LYP/6-31G(d,p)
 -------------------------------------

 --
 TD
 --
 Symbolic Z-matrix:
 Charge =  0 Multiplicity = 1

                         Standard orientation:
 ---------------------------------------------------------------------
 Center     Atomic      Atomic             Coordinates (Angstroms)
 Number     Number       Type             X           Y           Z
 ---------------------------------------------------------------------
      1          8           0      -14.118987   -2.016481    0.416660
      2          8           0       14.828126    0.869613    0.047158
      3          6           0      -11.788614    0.015748    1.374280
      4          6           0      -10.951908    0.305676   -0.042527
      5          6           0      -11.907980   -1.511084    1.416693
      6          6           0      -12.696845   -2.176311    0.249504
      7          6           0      -11.620675   -0.347072   -1.176130
      8          6           0       11.179526    0.900060    1.226437
      9          6           0      -11.070899    0.554264    2.595463
     10          6           0      -13.131114    0.830143    1.287321
     11          6           0       12.531934    1.603219    0.898773
     12          6           0      -12.328971   -1.484708   -1.079260
     13          6           0       13.477945    0.532548    0.435904
     14          6           0       10.662994    0.053481    0.067350
     15          6           0       -9.528925   -0.010594    0.043231
     16          6           0       12.968016    0.005706   -1.023903
     17          6           0       11.543637   -0.395429   -0.931129
     18          6           0       10.200270    2.061818    1.378747
     19          6           0       11.275440    0.078217    2.533380
     20          6           0      -11.511924    0.329000   -2.502399
     21          6           0       -8.544518    0.891871   -0.200988
     22          6           0        9.310243   -0.464561    0.083732
     23          6           0       10.981479   -1.032144   -2.188372
     24          6           0       -7.152929    0.462917   -0.042892
     25          6           0        8.834745   -1.713689   -0.108580
     26          6           0       -6.707527   -0.928627    0.269677
     27          6           0        7.488827   -2.144411   -0.104618
     28          6           0       -6.149047    1.442100   -0.330281
     29          6           0        7.125223   -3.652610    0.031305
     30          6           0        6.298947   -1.236363   -0.096598
     31          6           0       -4.783791    1.487973   -0.166869
     32          6           0        5.021505   -1.577126   -0.130191
     33          6           0       -3.991583    2.618374   -0.569354
     34          6           0       -2.615937    2.631287   -0.726097
     35          6           0        3.990930   -0.754290   -0.155265
     36          6           0        2.601273   -0.898529   -0.390717
     37          6           0       -1.938702    4.034689   -0.962855
     38          6           0       -1.783467    1.487244   -0.665053
     39          6           0        1.797176    0.241831   -0.383032
     40          6           0        2.036909   -2.343296   -0.221535
     41          6           0       -0.379098    1.425381   -0.742990
     42          6           0        0.397633    0.234347   -0.474114
     43          1           0      -11.079585    1.464401   -0.433329
     44          1           0      -12.502435   -1.623514    2.495860
     45          1           0      -10.923955   -1.877450    1.576996
     46          1           0      -12.566143   -3.224572    0.400161
     47          1           0      -10.111614   -0.077956    2.547095
     48          1           0      -10.684118    1.593160    2.398378
     49          1           0      -11.693840    0.413899    3.593127
     50          1           0      -13.746180    0.695422    0.276604
     51          1           0      -13.634192    0.498528    2.149898
     52          1           0      -12.660240    1.731931    1.466742
     53          1           0       12.658742    2.382571    0.064864
     54          1           0       12.744421    2.029079    1.766586
     55          1           0      -12.870939   -2.073379   -1.921700
     56          1           0       13.594517   -0.345411    1.046446
     57          1           0       -9.237426   -0.930578    0.275459
     58          1           0       13.692476   -0.889638   -1.213042
     59          1           0       13.167263    0.784373   -1.865007
     60          1           0        9.204256    1.805182    1.786538
     61          1           0       10.106747    2.341556    0.450436
     62          1           0       10.518857    2.871367    1.904753
     63          1           0       12.259256   -0.545029    2.734876
     64          1           0       10.478918   -0.654970    2.713201
     65          1           0       11.209329    0.858803    3.400688
     66          1           0      -10.396245    0.846378   -2.715952
     67          1           0      -12.116870    1.136248   -2.552156
     68          1           0      -11.532351   -0.411592   -3.325110
     69          1           0      -14.417467   -2.151172   -0.314141
     70          1           0        8.712806    0.300854    0.220967
     71          1           0       -8.788410    2.008315   -0.334265
     72          1           0       11.126731   -2.185257   -2.211291
     73          1           0        9.832130   -1.040268   -1.975721
     74          1           0       11.503286   -0.643459   -3.082901
     75          1           0       15.308871    1.015813    0.949247
     76          1           0        9.576062   -2.456759   -0.262939
     77          1           0       -5.733591   -0.870617    0.322378
     78          1           0       -6.810002   -1.316342    1.181019
     79          1           0       -7.041921   -1.774400   -0.349260
     80          1           0       -6.643024    2.293984   -0.616885
     81          1           0        6.733727   -4.071698    1.031530
     82          1           0        6.554113   -4.044813   -0.913816
     83          1           0        8.283944   -4.104634   -0.203137
     84          1           0        6.596968   -0.121999   -0.276673
     85          1           0       -4.235536    0.573452   -0.085792
     86          1           0        4.780398   -2.647227   -0.105525
     87          1           0       -4.550944    3.680374   -0.801570
     88          1           0        4.319270    0.373311   -0.104622
     89          1           0       -1.418496    4.090768   -1.930641
     90          1           0       -1.273695    4.235724   -0.031010
     91          1           0       -2.691845    4.952501   -0.969168
     92          1           0       -2.283181    0.513579   -0.717952
     93          1           0        2.147925    1.343715   -0.351831
     94          1           0        2.414611   -2.991913    0.648692
     95          1           0        0.850508   -2.560075   -0.183716
     96          1           0        2.550743   -2.954770   -1.062612
     97          1           0        0.175721    2.484110   -0.668991
     98          1           0        0.027356   -0.897263   -0.388619
 ---------------------------------------------------------------------

 SCF Done:  E(RCAM-B3LYP) =  -1706.87910398     A.U. after   16 cycles

 Excitation energies and oscillator strengths:

 Excited State   1:      Singlet-A      1.7567 eV  705.78 nm  f=3.1825  <S**2>=0.000
     155 ->158        -0.14223
     156 ->157         0.69996
     156 <-157        -0.12062
 This state for optimization and/or second-order correction.
 Total Energy, E(TD-HF/TD-DFT) =  -1706.81454660
 Copying the excited state density for this state as the 1-particle RhoCI density.

 The electronic state is 1-A.
 Alpha  occ. eigenvalues --  -19.21207 -19.19115 -10.30932 -10.29954 -10.28715
 Alpha  occ. eigenvalues --  -10.28630 -10.28625 -10.28532 -10.28493 -10.28218
 Alpha  occ. eigenvalues --  -10.28114 -10.28087 -10.28040 -10.27989 -10.27604
 Alpha  occ. eigenvalues --  -10.27494 -10.27381 -10.27364 -10.27107 -10.27018
 Alpha  occ. eigenvalues --  -10.26813 -10.26740 -10.26718 -10.26512 -10.26372
 Alpha  occ. eigenvalues --  -10.26358 -10.26331 -10.26080 -10.26027 -10.26013
 Alpha  occ. eigenvalues --  -10.26010 -10.25878 -10.25608 -10.25410 -10.25384
 Alpha  occ. eigenvalues --  -10.25126 -10.25020 -10.24852 -10.24783 -10.23619
 Alpha  occ. eigenvalues --  -10.23202 -10.22606  -1.12942  -1.07410  -0.93799
 Alpha  occ. eigenvalues --   -0.93696  -0.92142  -0.91515  -0.90284  -0.89642
 Alpha  occ. eigenvalues --   -0.87807  -0.87383  -0.86301  -0.85720  -0.84347
 Alpha  occ. eigenvalues --   -0.83143  -0.82163  -0.81555  -0.79650  -0.78352
 Alpha  occ. eigenvalues --   -0.77625  -0.76932  -0.75721  -0.75320  -0.75289
 Alpha  occ. eigenvalues --   -0.74857  -0.74580  -0.74195  -0.72136  -0.70641
 Alpha  occ. eigenvalues --   -0.69112  -0.68611  -0.66255  -0.65194  -0.63888
 Alpha  occ. eigenvalues --   -0.63488  -0.61844  -0.61674  -0.61120  -0.59811
 Alpha  occ. eigenvalues --   -0.59485  -0.58848  -0.58254  -0.57875  -0.56026
 Alpha  occ. eigenvalues --   -0.55903  -0.55129  -0.54385  -0.54322  -0.53777
 Alpha  occ. eigenvalues --   -0.53491  -0.52581  -0.51845  -0.51739  -0.51516
 Alpha  occ. eigenvalues --   -0.50789  -0.50121  -0.49914  -0.49400  -0.48753
 Alpha  occ. eigenvalues --   -0.48617  -0.48389  -0.48199  -0.48113  -0.47669
 Alpha  occ. eigenvalues --   -0.47605  -0.47456  -0.47016  -0.46667  -0.46392
 Alpha  occ. eigenvalues --   -0.45842  -0.45733  -0.45289  -0.45063  -0.44748
 Alpha  occ. eigenvalues --   -0.44509  -0.43885  -0.43754  -0.43515  -0.43394
 Alpha  occ. eigenvalues --   -0.43114  -0.42839  -0.42567  -0.42343  -0.42190
 Alpha  occ. eigenvalues --   -0.42081  -0.41851  -0.41559  -0.40755  -0.40498
 Alpha  occ. eigenvalues --   -0.40449  -0.40276  -0.39862  -0.39668  -0.39487
 Alpha  occ. eigenvalues --   -0.39321  -0.38593  -0.38422  -0.38041  -0.37800
 Alpha  occ. eigenvalues --   -0.37573  -0.37090  -0.36841  -0.36094  -0.35544
 Alpha  occ. eigenvalues --   -0.35503  -0.34089  -0.33265  -0.32548  -0.32141
 Alpha  occ. eigenvalues --   -0.31589  -0.29816  -0.28458  -0.26929  -0.22939
 Alpha  occ. eigenvalues --   -0.18566
 Alpha virt. eigenvalues --   -0.07527  -0.02329   0.02344   0.05249   0.06788
 Alpha virt. eigenvalues --    0.08335   0.10774   0.11325   0.11620   0.11765
 Alpha virt. eigenvalues --    0.12353   0.12609   0.13080   0.13394   0.13893

 Mulliken charges:
               1
     1  O   -0.499171
     2  O   -0.566566
     3  C    0.001286
     4  C   -0.165393
     5  C   -0.174165
     6  C    0.140772
     7  C    0.138408
     8  C   -0.012024
     9  C   -0.299410
    10  C   -0.264875
    11  C   -0.160704
    12  C   -0.159111
    13  C    0.137341
    14  C    0.023849
    15  C   -0.041884
    16  C   -0.235158
    17  C    0.075089
    18  C   -0.312233
    19  C   -0.305456
    20  C   -0.358098
    21  C   -0.103291
    22  C   -0.092012
    23  C   -0.364796
    24  C    0.079063
    25  C   -0.104895
    26  C   -0.369772
    27  C    0.067154
    28  C   -0.103671
    29  C   -0.360580
    30  C   -0.115191
    31  C   -0.084045
    32  C   -0.039242
    33  C   -0.128399
    34  C    0.098015
    35  C   -0.114528
    36  C    0.096400
    37  C   -0.370687
    38  C   -0.107624
    39  C   -0.103927
    40  C   -0.377282
    41  C   -0.117313
    42  C   -0.072849
    43  H    0.061377
    44  H    0.073436
    45  H    0.097613
    46  H    0.091017
    47  H    0.089599
    48  H    0.107447
    49  H    0.100026
    50  H    0.094346
    51  H    0.104971
    52  H    0.099623
    53  H    0.105209
    54  H    0.091761
    55  H    0.074431
    56  H    0.088583
    57  H    0.085138
    58  H    0.107029
    59  H    0.111093
    60  H    0.098123
    61  H    0.121166
    62  H    0.102459
    63  H    0.088057
    64  H    0.122522
    65  H    0.085678
    66  H    0.082168
    67  H    0.139062
    68  H    0.119093
    69  H    0.262469
    70  H    0.075536
    71  H    0.090405
    72  H    0.091811
    73  H    0.118500
    74  H    0.108496
    75  H    0.294911
    76  H    0.092073
    77  H    0.109848
    78  H    0.125912
    79  H    0.119169
    80  H    0.068068
    81  H    0.130121
    82  H    0.118952
    83  H    0.068747
    84  H    0.074489
    85  H    0.088800
    86  H    0.077277
    87  H    0.079668
    88  H    0.066900
    89  H    0.131583
    90  H    0.119205
    91  H    0.095615
    92  H    0.087203
    93  H    0.087015
    94  H    0.124313
    95  H    0.104826
    96  H    0.115667
    97  H    0.085088
    98  H    0.073283
 Sum of Mulliken charges =  -0.00000

 Dipole moment (field-independent basis, Debye):
    X=              0.1509    Y=             -0.4630    Z=              0.5820  Tot=              0.7589
 Quadrupole moment (field-independent basis, Debye-Ang):
   XX=           -291.4639   YY=           -243.9213   ZZ=           -262.8090
   XY=              2.8402   XZ=             43.0990   YZ=              1.3922

 Normal termination of Gaussian 16 at Tue Jul 16 09:19:23 2019.
