 Gaussian 16, Revision A.03,
 Gaussian 16:  ES64L-G16RevA.03 25-Dec-2016

 -------------------------------------
 # td=(NStates=1) CAM-B3LYP/6-31G(d,p)
 -------------------------------------

 --
 TD
 --
 Symbolic Z-matrix:
 Charge =  0 Multiplicity = 1

                         Standard orientation:
 ---------------------------------------------------------------------
 Center     Atomic      Atomic             Coordinates (Angstroms)
 Number     Number       Type             X           Y           Z
 ---------------------------------------------------------------------
      1          8           0      -14.197875   -2.059221    0.350432
      2          8           0       14.739472    1.187918   -0.041425
      3          6           0      -11.788731    0.211441    1.202633
      4          6           0      -10.951840    0.398665   -0.175270
      5          6           0      -12.092638   -1.357923    1.451166
      6          6           0      -12.776331   -2.096843    0.173235
      7          6           0      -11.548197   -0.376292   -1.233352
      8          6           0       11.008156    1.169351    0.883771
      9          6           0      -11.104954    0.726984    2.413065
     10          6           0      -13.043345    0.958441    1.074732
     11          6           0       12.432495    1.725604    0.686084
     12          6           0      -12.287805   -1.458411   -1.098961
     13          6           0       13.432850    0.632675    0.340268
     14          6           0       10.666302   -0.001800   -0.089412
     15          6           0       -9.498251   -0.013662   -0.100787
     16          6           0       13.033221   -0.076179   -0.967172
     17          6           0       11.518652   -0.527645   -1.017657
     18          6           0       10.030692    2.213872    0.892785
     19          6           0       10.945925    0.570043    2.308253
     20          6           0      -11.248479    0.132081   -2.631472
     21          6           0       -8.530557    0.904479   -0.275314
     22          6           0        9.273451   -0.433848    0.163926
     23          6           0       11.258196   -1.660586   -2.014418
     24          6           0       -7.123688    0.601661    0.062783
     25          6           0        8.844279   -1.749264    0.050720
     26          6           0       -6.660505   -0.752190    0.609235
     27          6           0        7.508654   -2.240025    0.147765
     28          6           0       -6.179634    1.472349   -0.370715
     29          6           0        7.157480   -3.642922    0.309149
     30          6           0        6.457294   -1.382019    0.133548
     31          6           0       -4.708850    1.307030   -0.315881
     32          6           0        5.079081   -1.671322    0.165607
     33          6           0       -3.958755    2.409130   -0.530951
     34          6           0       -2.524331    2.505354   -0.659551
     35          6           0        4.082085   -0.821240   -0.157051
     36          6           0        2.665355   -1.021373   -0.136750
     37          6           0       -1.885504    3.873441   -0.845384
     38          6           0       -1.693972    1.353229   -0.584590
     39          6           0        1.851259    0.061433   -0.511394
     40          6           0        2.105843   -2.287909    0.233891
     41          6           0       -0.346216    1.420974   -0.577415
     42          6           0        0.383621    0.117818   -0.425496
     43          1           0      -11.030881    1.481859   -0.519615
     44          1           0      -12.821749   -1.317779    2.382967
     45          1           0      -11.227735   -1.977406    1.749550
     46          1           0      -12.559575   -3.131468    0.106864
     47          1           0      -10.220197    0.150783    2.681103
     48          1           0      -10.933312    1.761074    2.383782
     49          1           0      -11.623313    0.487467    3.399409
     50          1           0      -13.693321    0.739963    0.222799
     51          1           0      -13.751930    0.703516    1.932260
     52          1           0      -12.900958    2.055066    1.236068
     53          1           0       12.377087    2.254731   -0.250134
     54          1           0       12.677348    2.429208    1.570334
     55          1           0      -12.492657   -2.049560   -1.927683
     56          1           0       13.698150   -0.207560    1.277335
     57          1           0       -9.224531   -1.152056    0.030659
     58          1           0       13.668028   -1.049222   -1.409590
     59          1           0       13.197993    0.549149   -1.822806
     60          1           0        9.208697    1.799725    1.540601
     61          1           0        9.555624    2.306908   -0.173176
     62          1           0       10.470589    3.164291    1.318419
     63          1           0       11.605096   -0.149088    2.409519
     64          1           0        9.792841    0.148964    2.529134
     65          1           0       11.014124    1.388212    3.053261
     66          1           0      -10.156560    0.026500   -2.827106
     67          1           0      -11.635313    1.135004   -2.676355
     68          1           0      -11.941806   -0.506803   -3.402222
     69          1           0      -14.582684   -2.342812   -0.451365
     70          1           0        8.530842    0.221739    0.402725
     71          1           0       -8.864546    1.953092   -0.278492
     72          1           0       11.489747   -2.574215   -1.448912
     73          1           0       10.211275   -1.571024   -2.256774
     74          1           0       11.771509   -1.287815   -2.912434
     75          1           0       15.103851    1.718633    0.685948
     76          1           0        9.398368   -2.649748   -0.312281
     77          1           0       -5.634367   -0.996385    0.755385
     78          1           0       -7.000835   -1.051008    1.545778
     79          1           0       -7.007004   -1.565770    0.022205
     80          1           0       -6.562166    2.475960   -0.666734
     81          1           0        7.076602   -3.909987    1.453226
     82          1           0        6.264282   -4.052557   -0.204246
     83          1           0        7.963579   -4.326786   -0.227473
     84          1           0        6.538084   -0.269416   -0.105224
     85          1           0       -4.176978    0.515233   -0.098096
     86          1           0        4.803782   -2.613765    0.407432
     87          1           0       -4.503461    3.302058   -0.678748
     88          1           0        4.483831    0.106602   -0.324062
     89          1           0       -1.471714    4.035629   -1.845909
     90          1           0       -1.078014    3.964918   -0.115658
     91          1           0       -2.777793    4.787822   -0.781691
     92          1           0       -2.304082    0.285485   -0.651905
     93          1           0        2.331259    1.188578   -0.716495
     94          1           0        2.609477   -2.595005    1.185316
     95          1           0        1.086071   -2.329860    0.535648
     96          1           0        2.145187   -3.178054   -0.669717
     97          1           0        0.297118    2.386421   -0.794160
     98          1           0       -0.219586   -0.866608   -0.242450
 ---------------------------------------------------------------------

 SCF Done:  E(RCAM-B3LYP) =  -1706.99737337     A.U. after   15 cycles

 Excitation energies and oscillator strengths:

 Excited State   1:      Singlet-A      2.1056 eV  588.84 nm  f=2.8616  <S**2>=0.000
     155 ->158         0.14132
     156 ->157         0.69544
 This state for optimization and/or second-order correction.
 Total Energy, E(TD-HF/TD-DFT) =  -1706.91999521
 Copying the excited state density for this state as the 1-particle RhoCI density.

 The electronic state is 1-A.
 Alpha  occ. eigenvalues --  -19.20693 -19.20081 -10.32960 -10.30226 -10.28822
 Alpha  occ. eigenvalues --  -10.28455 -10.28282 -10.27756 -10.27611 -10.27435
 Alpha  occ. eigenvalues --  -10.27404 -10.27311 -10.26996 -10.26983 -10.26974
 Alpha  occ. eigenvalues --  -10.26889 -10.26796 -10.26786 -10.26766 -10.26364
 Alpha  occ. eigenvalues --  -10.26354 -10.26311 -10.26293 -10.26285 -10.26129
 Alpha  occ. eigenvalues --  -10.26054 -10.26023 -10.25975 -10.25837 -10.25771
 Alpha  occ. eigenvalues --  -10.25473 -10.25375 -10.25314 -10.25267 -10.25174
 Alpha  occ. eigenvalues --  -10.24948 -10.24468 -10.24304 -10.24275 -10.23626
 Alpha  occ. eigenvalues --  -10.23527 -10.23526  -1.09040  -1.07614  -0.93822
 Alpha  occ. eigenvalues --   -0.93709  -0.92307  -0.91623  -0.90557  -0.89825
 Alpha  occ. eigenvalues --   -0.87570  -0.87215  -0.86613  -0.85382  -0.84075
 Alpha  occ. eigenvalues --   -0.83331  -0.81753  -0.80481  -0.80307  -0.77779
 Alpha  occ. eigenvalues --   -0.77400  -0.76204  -0.75887  -0.75649  -0.75565
 Alpha  occ. eigenvalues --   -0.75058  -0.74957  -0.74253  -0.71979  -0.70234
 Alpha  occ. eigenvalues --   -0.68970  -0.67918  -0.65913  -0.64963  -0.63505
 Alpha  occ. eigenvalues --   -0.62953  -0.62469  -0.62375  -0.61072  -0.60257
 Alpha  occ. eigenvalues --   -0.59022  -0.58262  -0.57204  -0.57019  -0.55910
 Alpha  occ. eigenvalues --   -0.55284  -0.54449  -0.54129  -0.53947  -0.53446
 Alpha  occ. eigenvalues --   -0.53341  -0.52745  -0.52517  -0.51900  -0.51206
 Alpha  occ. eigenvalues --   -0.50907  -0.50535  -0.50295  -0.49815  -0.49575
 Alpha  occ. eigenvalues --   -0.49175  -0.48817  -0.48301  -0.48065  -0.47830
 Alpha  occ. eigenvalues --   -0.47731  -0.47452  -0.47074  -0.46627  -0.46365
 Alpha  occ. eigenvalues --   -0.45773  -0.45541  -0.45117  -0.44807  -0.44356
 Alpha  occ. eigenvalues --   -0.44108  -0.43918  -0.43731  -0.43599  -0.43083
 Alpha  occ. eigenvalues --   -0.42638  -0.42430  -0.42092  -0.42007  -0.41847
 Alpha  occ. eigenvalues --   -0.41272  -0.41023  -0.40816  -0.40573  -0.40425
 Alpha  occ. eigenvalues --   -0.40341  -0.40212  -0.39961  -0.39564  -0.39372
 Alpha  occ. eigenvalues --   -0.39186  -0.38768  -0.38482  -0.38332  -0.37955
 Alpha  occ. eigenvalues --   -0.37801  -0.37435  -0.36252  -0.35772  -0.35407
 Alpha  occ. eigenvalues --   -0.35120  -0.34968  -0.33795  -0.32163  -0.32032
 Alpha  occ. eigenvalues --   -0.31618  -0.29633  -0.28954  -0.26747  -0.23706
 Alpha  occ. eigenvalues --   -0.19241
 Alpha virt. eigenvalues --   -0.06037  -0.00681   0.02704   0.05780   0.07384
 Alpha virt. eigenvalues --    0.08974   0.10675   0.11156   0.11837   0.12388
 Alpha virt. eigenvalues --    0.12440   0.12546   0.13066   0.13223   0.13581

 Mulliken charges:
               1
     1  O   -0.543441
     2  O   -0.567364
     3  C    0.040671
     4  C   -0.149282
     5  C   -0.195966
     6  C    0.146295
     7  C    0.130576
     8  C   -0.014989
     9  C   -0.304770
    10  C   -0.296849
    11  C   -0.192400
    12  C   -0.150703
    13  C    0.175477
    14  C    0.085600
    15  C   -0.066710
    16  C   -0.214115
    17  C   -0.001085
    18  C   -0.295971
    19  C   -0.275637
    20  C   -0.345174
    21  C   -0.105829
    22  C   -0.124349
    23  C   -0.353784
    24  C    0.097746
    25  C   -0.086519
    26  C   -0.389166
    27  C    0.092502
    28  C   -0.136376
    29  C   -0.377082
    30  C   -0.118640
    31  C   -0.022377
    32  C   -0.067485
    33  C   -0.113300
    34  C    0.080159
    35  C   -0.096939
    36  C    0.128362
    37  C   -0.369339
    38  C   -0.096878
    39  C   -0.130170
    40  C   -0.371408
    41  C   -0.104429
    42  C   -0.106586
    43  H    0.082803
    44  H    0.099100
    45  H    0.090841
    46  H    0.079645
    47  H    0.099219
    48  H    0.102438
    49  H    0.090277
    50  H    0.113961
    51  H    0.096626
    52  H    0.086707
    53  H    0.115287
    54  H    0.084101
    55  H    0.068211
    56  H    0.051624
    57  H    0.090910
    58  H    0.089260
    59  H    0.131244
    60  H    0.100333
    61  H    0.092141
    62  H    0.098505
    63  H    0.109444
    64  H    0.075736
    65  H    0.090505
    66  H    0.126069
    67  H    0.118970
    68  H    0.083184
    69  H    0.293983
    70  H    0.093144
    71  H    0.094070
    72  H    0.136038
    73  H    0.126622
    74  H    0.113366
    75  H    0.300062
    76  H    0.067158
    77  H    0.114564
    78  H    0.123080
    79  H    0.118113
    80  H    0.078940
    81  H    0.118319
    82  H    0.127865
    83  H    0.085385
    84  H    0.066460
    85  H    0.063294
    86  H    0.062827
    87  H    0.071204
    88  H    0.064610
    89  H    0.132967
    90  H    0.130045
    91  H    0.079113
    92  H    0.084624
    93  H    0.071246
    94  H    0.118952
    95  H    0.118640
    96  H    0.093288
    97  H    0.103329
    98  H    0.089275
 Sum of Mulliken charges =  -0.00000

 Dipole moment (field-independent basis, Debye):
    X=              0.3127    Y=             -0.1790    Z=             -0.0475  Tot=              0.3634
 Quadrupole moment (field-independent basis, Debye-Ang):
   XX=           -295.8702   YY=           -241.9714   ZZ=           -262.5311
   XY=              7.6212   XZ=             30.6652   YZ=              2.9842

 Normal termination of Gaussian 16 at Mon Jul 15 07:45:57 2019.
