 Gaussian 16, Revision A.03,
 Gaussian 16:  ES64L-G16RevA.03 25-Dec-2016

 -------------------------------------
 # td=(NStates=1) CAM-B3LYP/6-31G(d,p)
 -------------------------------------

 --
 TD
 --
 Symbolic Z-matrix:
 Charge =  0 Multiplicity = 1

                         Standard orientation:
 ---------------------------------------------------------------------
 Center     Atomic      Atomic             Coordinates (Angstroms)
 Number     Number       Type             X           Y           Z
 ---------------------------------------------------------------------
      1          8           0      -14.016649   -2.100610    0.726455
      2          8           0       14.734214    0.948341    0.195329
      3          6           0      -11.719216    0.261233    1.321096
      4          6           0      -10.974190    0.309079   -0.040700
      5          6           0      -11.995027   -1.230885    1.627614
      6          6           0      -12.663896   -2.063959    0.471578
      7          6           0      -11.624231   -0.567005   -1.180153
      8          6           0       11.046149    0.994280    1.092745
      9          6           0      -10.938067    0.836914    2.541075
     10          6           0      -13.149804    0.943462    1.087031
     11          6           0       12.428096    1.465893    0.884542
     12          6           0      -12.376465   -1.607386   -0.899380
     13          6           0       13.445585    0.384825    0.425854
     14          6           0       10.645504   -0.024724    0.083687
     15          6           0       -9.505181   -0.146085    0.005144
     16          6           0       13.070469   -0.198067   -0.832181
     17          6           0       11.568941   -0.511839   -0.863640
     18          6           0       10.197393    2.267577    1.040007
     19          6           0       10.957173    0.279401    2.471830
     20          6           0      -11.239064   -0.174237   -2.566786
     21          6           0       -8.545596    0.853835   -0.361097
     22          6           0        9.220464   -0.436161    0.129987
     23          6           0       11.139846   -1.335582   -1.970876
     24          6           0       -7.105883    0.565413   -0.280846
     25          6           0        8.800314   -1.640364   -0.066024
     26          6           0       -6.735408   -0.924278    0.141947
     27          6           0        7.400432   -2.086371   -0.123183
     28          6           0       -6.204363    1.530119   -0.530324
     29          6           0        7.190699   -3.539721   -0.011133
     30          6           0        6.322368   -1.214562   -0.271640
     31          6           0       -4.834063    1.386095   -0.501983
     32          6           0        4.976425   -1.559006   -0.141912
     33          6           0       -4.056993    2.497315   -0.793646
     34          6           0       -2.624029    2.515113   -0.789094
     35          6           0        4.029921   -0.491035   -0.332035
     36          6           0        2.632307   -0.741574   -0.090668
     37          6           0       -1.909863    3.938228   -1.060428
     38          6           0       -1.772399    1.384746   -0.500809
     39          6           0        1.696849    0.311762   -0.382658
     40          6           0        2.322888   -2.198143    0.076061
     41          6           0       -0.424721    1.421623   -0.518230
     42          6           0        0.367708    0.269832   -0.300585
     43          1           0      -10.884217    1.312777   -0.382820
     44          1           0      -12.604235   -1.280501    2.599362
     45          1           0      -10.967187   -1.724712    1.927697
     46          1           0      -12.072231   -3.071525    0.614610
     47          1           0       -9.862103    0.388930    2.598269
     48          1           0      -10.681274    1.789971    2.282495
     49          1           0      -11.604199    0.867978    3.342412
     50          1           0      -13.773953    0.329787    0.307071
     51          1           0      -13.619781    0.730656    2.144267
     52          1           0      -12.932704    2.107153    1.026087
     53          1           0       12.615795    2.244795   -0.172859
     54          1           0       12.856898    1.929025    1.719137
     55          1           0      -12.803095   -2.268152   -1.789166
     56          1           0       13.347628   -0.273775    1.229790
     57          1           0       -9.209743   -1.112898    0.214331
     58          1           0       13.468583   -1.266238   -1.120203
     59          1           0       13.341233    0.537274   -1.708073
     60          1           0        9.132641    2.204463    1.631742
     61          1           0       10.005953    2.488715   -0.062375
     62          1           0       10.665640    3.235948    1.364982
     63          1           0       11.568405   -0.769878    2.443762
     64          1           0        9.816087    0.059722    2.707015
     65          1           0       11.468146    1.009001    3.244223
     66          1           0      -10.153684   -0.072179   -2.512897
     67          1           0      -11.832386    0.697376   -2.984406
     68          1           0      -11.743759   -0.886468   -3.247961
     69          1           0      -14.437534   -2.409435   -0.195396
     70          1           0        8.610480    0.249118    0.468464
     71          1           0       -8.893103    1.839327   -0.469933
     72          1           0       11.301981   -2.435465   -1.665368
     73          1           0       10.186711   -1.152451   -2.146666
     74          1           0       11.755748   -0.919292   -2.765183
     75          1           0       15.264396    1.079417    1.069158
     76          1           0        9.429637   -2.641584   -0.390298
     77          1           0       -5.812194   -1.198959    0.141236
     78          1           0       -6.943430   -1.313562    1.235874
     79          1           0       -7.441315   -1.564061   -0.331182
     80          1           0       -6.601757    2.546571   -0.671450
     81          1           0        6.815424   -4.124470    0.960740
     82          1           0        6.578539   -4.069228   -0.872584
     83          1           0        8.043247   -4.055693   -0.282459
     84          1           0        6.798002   -0.307991   -0.346565
     85          1           0       -4.446868    0.432433   -0.275278
     86          1           0        4.809909   -2.533630    0.127089
     87          1           0       -4.486195    3.460627   -1.330512
     88          1           0        4.488318    0.502770   -0.220664
     89          1           0       -1.282673    4.073503   -1.964450
     90          1           0       -1.144869    4.204381   -0.113132
     91          1           0       -2.699554    4.652676   -1.331565
     92          1           0       -2.139761    0.339309   -0.526191
     93          1           0        2.191996    1.227671   -0.695383
     94          1           0        3.096793   -2.767584    1.027476
     95          1           0        1.058157   -2.215414    0.393234
     96          1           0        2.459564   -2.869417   -0.734043
     97          1           0        0.144295    2.349534   -0.728501
     98          1           0       -0.353334   -0.722765   -0.098351
 ---------------------------------------------------------------------

 SCF Done:  E(RCAM-B3LYP) =  -1706.88420997     A.U. after   16 cycles

 Excitation energies and oscillator strengths:

 Excited State   1:      Singlet-A      1.7966 eV  690.10 nm  f=3.0240  <S**2>=0.000
     155 ->158         0.12101
     156 ->157         0.70523
     156 <-157        -0.13091
 This state for optimization and/or second-order correction.
 Total Energy, E(TD-HF/TD-DFT) =  -1706.81818548
 Copying the excited state density for this state as the 1-particle RhoCI density.

 The electronic state is 1-A.
 Alpha  occ. eigenvalues --  -19.22601 -19.21652 -10.31043 -10.29246 -10.28916
 Alpha  occ. eigenvalues --  -10.28840 -10.28091 -10.27835 -10.27803 -10.27771
 Alpha  occ. eigenvalues --  -10.27507 -10.27432 -10.26909 -10.26850 -10.26817
 Alpha  occ. eigenvalues --  -10.26798 -10.26723 -10.26575 -10.26526 -10.26519
 Alpha  occ. eigenvalues --  -10.26505 -10.26434 -10.26403 -10.26395 -10.26316
 Alpha  occ. eigenvalues --  -10.26299 -10.26185 -10.26162 -10.26144 -10.25802
 Alpha  occ. eigenvalues --  -10.25751 -10.25672 -10.25615 -10.25581 -10.25568
 Alpha  occ. eigenvalues --  -10.25565 -10.25512 -10.25422 -10.24336 -10.24314
 Alpha  occ. eigenvalues --  -10.23904 -10.23481  -1.10264  -1.08261  -0.94169
 Alpha  occ. eigenvalues --   -0.92938  -0.92047  -0.91556  -0.90831  -0.89255
 Alpha  occ. eigenvalues --   -0.87711  -0.87298  -0.86693  -0.85816  -0.84474
 Alpha  occ. eigenvalues --   -0.82758  -0.81678  -0.80745  -0.79808  -0.78704
 Alpha  occ. eigenvalues --   -0.77397  -0.75910  -0.75695  -0.75204  -0.75106
 Alpha  occ. eigenvalues --   -0.74576  -0.73966  -0.73842  -0.72198  -0.70307
 Alpha  occ. eigenvalues --   -0.68494  -0.66998  -0.66363  -0.64968  -0.64294
 Alpha  occ. eigenvalues --   -0.63014  -0.62433  -0.62432  -0.61165  -0.60957
 Alpha  occ. eigenvalues --   -0.59759  -0.59586  -0.58198  -0.57296  -0.56347
 Alpha  occ. eigenvalues --   -0.55501  -0.55003  -0.54568  -0.53878  -0.53759
 Alpha  occ. eigenvalues --   -0.53407  -0.52939  -0.52829  -0.52049  -0.51191
 Alpha  occ. eigenvalues --   -0.50158  -0.49958  -0.49780  -0.49522  -0.49263
 Alpha  occ. eigenvalues --   -0.48423  -0.48180  -0.47951  -0.47566  -0.46989
 Alpha  occ. eigenvalues --   -0.46499  -0.46467  -0.46289  -0.46143  -0.45936
 Alpha  occ. eigenvalues --   -0.45281  -0.45131  -0.44920  -0.44859  -0.44535
 Alpha  occ. eigenvalues --   -0.44326  -0.44302  -0.44103  -0.43423  -0.43335
 Alpha  occ. eigenvalues --   -0.42782  -0.42511  -0.42091  -0.42047  -0.41708
 Alpha  occ. eigenvalues --   -0.41507  -0.41446  -0.41315  -0.41153  -0.40940
 Alpha  occ. eigenvalues --   -0.40266  -0.40161  -0.39851  -0.39702  -0.39324
 Alpha  occ. eigenvalues --   -0.39103  -0.38887  -0.38426  -0.38150  -0.37850
 Alpha  occ. eigenvalues --   -0.37260  -0.37060  -0.36540  -0.36185  -0.35530
 Alpha  occ. eigenvalues --   -0.35233  -0.35050  -0.34071  -0.31972  -0.31666
 Alpha  occ. eigenvalues --   -0.31134  -0.29647  -0.28424  -0.26312  -0.23700
 Alpha  occ. eigenvalues --   -0.18302
 Alpha virt. eigenvalues --   -0.07284  -0.01022   0.02388   0.05387   0.07062
 Alpha virt. eigenvalues --    0.08275   0.10299   0.10784   0.11084   0.11688
 Alpha virt. eigenvalues --    0.12174   0.12322   0.12598   0.12970   0.13304

 Mulliken charges:
               1
     1  O   -0.529541
     2  O   -0.568160
     3  C    0.007847
     4  C   -0.118200
     5  C   -0.176691
     6  C    0.165966
     7  C    0.111880
     8  C    0.004585
     9  C   -0.302815
    10  C   -0.289434
    11  C   -0.170505
    12  C   -0.163259
    13  C    0.167918
    14  C    0.060121
    15  C   -0.080480
    16  C   -0.192359
    17  C    0.016313
    18  C   -0.306605
    19  C   -0.283220
    20  C   -0.357040
    21  C   -0.124842
    22  C   -0.120054
    23  C   -0.343290
    24  C    0.101124
    25  C   -0.064323
    26  C   -0.363403
    27  C    0.054206
    28  C   -0.115341
    29  C   -0.390367
    30  C   -0.073612
    31  C   -0.048471
    32  C   -0.070133
    33  C   -0.132214
    34  C    0.063482
    35  C   -0.127320
    36  C    0.092365
    37  C   -0.362355
    38  C   -0.120362
    39  C   -0.113982
    40  C   -0.332974
    41  C   -0.057236
    42  C   -0.074399
    43  H    0.087490
    44  H    0.101507
    45  H    0.069204
    46  H    0.061964
    47  H    0.101870
    48  H    0.104124
    49  H    0.110877
    50  H    0.122600
    51  H    0.084616
    52  H    0.083089
    53  H    0.048340
    54  H    0.084169
    55  H    0.065991
    56  H    0.086185
    57  H    0.091902
    58  H    0.097560
    59  H    0.113000
    60  H    0.073480
    61  H    0.109343
    62  H    0.109305
    63  H    0.091764
    64  H    0.102426
    65  H    0.084192
    66  H    0.128377
    67  H    0.110470
    68  H    0.103320
    69  H    0.307047
    70  H    0.083341
    71  H    0.091355
    72  H    0.104752
    73  H    0.131704
    74  H    0.104448
    75  H    0.305932
    76  H    0.069532
    77  H    0.110841
    78  H    0.097257
    79  H    0.125277
    80  H    0.082316
    81  H    0.105837
    82  H    0.095349
    83  H    0.110934
    84  H    0.058519
    85  H    0.095443
    86  H    0.092644
    87  H    0.086485
    88  H    0.094984
    89  H    0.121856
    90  H    0.105902
    91  H    0.104990
    92  H    0.081549
    93  H    0.092266
    94  H    0.066987
    95  H    0.064554
    96  H    0.147599
    97  H    0.085987
    98  H    0.074328
 Sum of Mulliken charges =  -0.00000

 Dipole moment (field-independent basis, Debye):
    X=             -0.0235    Y=             -0.2235    Z=             -0.4604  Tot=              0.5123
 Quadrupole moment (field-independent basis, Debye-Ang):
   XX=           -268.9494   YY=           -247.0569   ZZ=           -263.9877
   XY=             -2.9398   XZ=             42.1179   YZ=              1.7311

 Normal termination of Gaussian 16 at Tue Jul 16 02:23:54 2019.
