 Gaussian 16, Revision A.03,
 Gaussian 16:  ES64L-G16RevA.03 25-Dec-2016

 -------------------------------------
 # td=(NStates=1) CAM-B3LYP/6-31G(d,p)
 -------------------------------------

 --
 TD
 --
 Symbolic Z-matrix:
 Charge =  0 Multiplicity = 1

                         Standard orientation:
 ---------------------------------------------------------------------
 Center     Atomic      Atomic             Coordinates (Angstroms)
 Number     Number       Type             X           Y           Z
 ---------------------------------------------------------------------
      1          8           0      -14.117291   -1.937753    0.306684
      2          8           0       14.764190    0.998491   -0.037879
      3          6           0      -11.773781   -0.067285    1.347037
      4          6           0      -10.931598    0.427229   -0.070156
      5          6           0      -11.953484   -1.541534    1.281074
      6          6           0      -12.690720   -2.177235    0.130427
      7          6           0      -11.589892   -0.263739   -1.242570
      8          6           0       11.016459    0.943496    1.020370
      9          6           0      -11.049864    0.256216    2.618600
     10          6           0      -13.083321    0.666396    1.257362
     11          6           0       12.499899    1.603696    0.747857
     12          6           0      -12.293928   -1.438586   -1.161939
     13          6           0       13.479453    0.436111    0.277063
     14          6           0       10.681864   -0.081831    0.026991
     15          6           0       -9.501712    0.017439    0.019684
     16          6           0       12.975686   -0.106974   -0.926747
     17          6           0       11.568728   -0.514544   -0.957384
     18          6           0       10.109600    2.197029    0.982298
     19          6           0       11.014415    0.390793    2.491131
     20          6           0      -11.264109    0.368678   -2.508912
     21          6           0       -8.490289    0.897612   -0.052078
     22          6           0        9.308398   -0.495614   -0.025913
     23          6           0       11.176345   -1.477592   -2.138827
     24          6           0       -7.016978    0.526995   -0.079297
     25          6           0        8.817976   -1.743821   -0.018126
     26          6           0       -6.572141   -0.932636   -0.131032
     27          6           0        7.415388   -2.163108    0.078495
     28          6           0       -6.195774    1.641547   -0.241785
     29          6           0        7.063943   -3.602309    0.162193
     30          6           0        6.336878   -1.237231   -0.028571
     31          6           0       -4.733752    1.557830   -0.280357
     32          6           0        4.987341   -1.594432   -0.041446
     33          6           0       -3.953667    2.583494   -0.631818
     34          6           0       -2.604115    2.636240   -0.587919
     35          6           0        4.018809   -0.617183   -0.144911
     36          6           0        2.611735   -0.839608   -0.107379
     37          6           0       -1.890080    4.053965   -0.782226
     38          6           0       -1.764919    1.451859   -0.368589
     39          6           0        1.711243    0.268504   -0.216296
     40          6           0        2.115936   -2.253238    0.120501
     41          6           0       -0.357996    1.459563   -0.452430
     42          6           0        0.327622    0.157107   -0.334419
     43          1           0      -11.247521    1.483609   -0.195137
     44          1           0      -12.531683   -1.701005    2.331653
     45          1           0      -10.963672   -2.054265    1.415544
     46          1           0      -12.366925   -3.273700   -0.008453
     47          1           0      -10.042482   -0.051798    2.339873
     48          1           0      -11.052868    1.211136    2.826428
     49          1           0      -11.686807   -0.196585    3.473626
     50          1           0      -13.581417    0.607146    0.400925
     51          1           0      -13.695105    0.319574    2.247668
     52          1           0      -12.773403    1.914833    1.239241
     53          1           0       12.484904    2.142151   -0.164296
     54          1           0       12.871509    2.113271    1.594323
     55          1           0      -12.478061   -1.945359   -2.153165
     56          1           0       13.502604   -0.359758    0.961737
     57          1           0       -9.214906   -1.125308   -0.239985
     58          1           0       13.598364   -0.966106   -1.302831
     59          1           0       13.178295    0.750476   -1.506967
     60          1           0        9.135405    1.873923    1.117167
     61          1           0        9.944616    2.464298   -0.079079
     62          1           0       10.615672    2.925401    1.557153
     63          1           0       11.827296   -0.397492    2.564565
     64          1           0       10.006105   -0.061514    2.657782
     65          1           0       11.110905    1.106992    3.254776
     66          1           0      -10.118106    0.448922   -2.690136
     67          1           0      -11.767404    1.292218   -2.550131
     68          1           0      -11.824573   -0.015586   -3.469986
     69          1           0      -14.613829   -1.874728   -0.570786
     70          1           0        8.713869    0.219487    0.450403
     71          1           0       -8.967009    1.792898   -0.181869
     72          1           0       11.468505   -2.635233   -1.767693
     73          1           0       10.130321   -1.536506   -2.489572
     74          1           0       11.622974   -1.139571   -2.927663
     75          1           0       15.072715    1.574017    0.635371
     76          1           0        9.362443   -2.715614   -0.283895
     77          1           0       -5.366082   -1.173911    0.068462
     78          1           0       -7.098691   -1.718873    0.648172
     79          1           0       -7.030003   -1.310501   -1.074486
     80          1           0       -6.444631    2.685567   -0.327037
     81          1           0        6.458359   -3.806359    1.068565
     82          1           0        6.100176   -3.918702   -0.647464
     83          1           0        8.027342   -4.345848    0.157938
     84          1           0        6.450579   -0.196249   -0.179316
     85          1           0       -4.152570    0.773687    0.035709
     86          1           0        4.496315   -2.475715    0.281257
     87          1           0       -4.441382    3.444350   -1.092087
     88          1           0        4.362740    0.462808   -0.223405
     89          1           0       -1.325293    4.163611   -1.748830
     90          1           0       -1.336009    4.166851   -0.049637
     91          1           0       -2.620604    5.034838   -0.630097
     92          1           0       -2.350080    0.478384   -0.084960
     93          1           0        2.218335    1.128970   -0.570919
     94          1           0        2.517478   -2.739728    0.968447
     95          1           0        0.981115   -2.286679    0.227134
     96          1           0        2.437461   -2.858089   -0.720143
     97          1           0        0.214435    2.302531   -0.658554
     98          1           0       -0.148503   -0.846853   -0.265496
 ---------------------------------------------------------------------

 SCF Done:  E(RCAM-B3LYP) =  -1706.91078390     A.U. after   15 cycles

 Excitation energies and oscillator strengths:

 Excited State   1:      Singlet-A      1.8416 eV  673.24 nm  f=2.9259  <S**2>=0.000
     155 ->158        -0.13433
     156 ->157         0.70065
     156 <-157        -0.11928
 This state for optimization and/or second-order correction.
 Total Energy, E(TD-HF/TD-DFT) =  -1706.84310596
 Copying the excited state density for this state as the 1-particle RhoCI density.

 The electronic state is 1-A.
 Alpha  occ. eigenvalues --  -19.21138 -19.20591 -10.31685 -10.29685 -10.29458
 Alpha  occ. eigenvalues --  -10.29016 -10.28112 -10.28110 -10.27812 -10.27703
 Alpha  occ. eigenvalues --  -10.27530 -10.27508 -10.27349 -10.27240 -10.27167
 Alpha  occ. eigenvalues --  -10.27015 -10.26909 -10.26893 -10.26846 -10.26477
 Alpha  occ. eigenvalues --  -10.26336 -10.26168 -10.26136 -10.26118 -10.25970
 Alpha  occ. eigenvalues --  -10.25908 -10.25781 -10.25762 -10.25437 -10.25402
 Alpha  occ. eigenvalues --  -10.25384 -10.25305 -10.25264 -10.25255 -10.25024
 Alpha  occ. eigenvalues --  -10.24877 -10.24769 -10.24738 -10.24611 -10.23842
 Alpha  occ. eigenvalues --  -10.23455 -10.22764  -1.09274  -1.07250  -0.93726
 Alpha  occ. eigenvalues --   -0.93322  -0.92122  -0.91607  -0.89920  -0.89391
 Alpha  occ. eigenvalues --   -0.87816  -0.87593  -0.87022  -0.85502  -0.84566
 Alpha  occ. eigenvalues --   -0.82978  -0.81951  -0.80919  -0.80035  -0.78604
 Alpha  occ. eigenvalues --   -0.76790  -0.76478  -0.76287  -0.76000  -0.75414
 Alpha  occ. eigenvalues --   -0.75382  -0.74939  -0.74484  -0.72042  -0.70347
 Alpha  occ. eigenvalues --   -0.69233  -0.67855  -0.66451  -0.65373  -0.64026
 Alpha  occ. eigenvalues --   -0.63445  -0.62720  -0.61254  -0.61024  -0.60569
 Alpha  occ. eigenvalues --   -0.59931  -0.59612  -0.57880  -0.57513  -0.56473
 Alpha  occ. eigenvalues --   -0.55778  -0.55109  -0.54514  -0.54088  -0.53582
 Alpha  occ. eigenvalues --   -0.53344  -0.52703  -0.52341  -0.51839  -0.51095
 Alpha  occ. eigenvalues --   -0.50867  -0.49859  -0.49788  -0.49659  -0.49113
 Alpha  occ. eigenvalues --   -0.48852  -0.48828  -0.48727  -0.48166  -0.48020
 Alpha  occ. eigenvalues --   -0.47854  -0.47676  -0.46760  -0.46476  -0.46142
 Alpha  occ. eigenvalues --   -0.45449  -0.45411  -0.45265  -0.45010  -0.44878
 Alpha  occ. eigenvalues --   -0.44447  -0.44348  -0.44094  -0.43553  -0.43365
 Alpha  occ. eigenvalues --   -0.43285  -0.42867  -0.42347  -0.42146  -0.42075
 Alpha  occ. eigenvalues --   -0.41749  -0.41420  -0.41007  -0.40831  -0.40615
 Alpha  occ. eigenvalues --   -0.40598  -0.40318  -0.40051  -0.39831  -0.38883
 Alpha  occ. eigenvalues --   -0.38666  -0.38576  -0.38433  -0.38264  -0.38119
 Alpha  occ. eigenvalues --   -0.37607  -0.37460  -0.36866  -0.36295  -0.35674
 Alpha  occ. eigenvalues --   -0.35246  -0.35191  -0.33464  -0.32139  -0.31431
 Alpha  occ. eigenvalues --   -0.31124  -0.28979  -0.28437  -0.26583  -0.23383
 Alpha  occ. eigenvalues --   -0.18371
 Alpha virt. eigenvalues --   -0.06834  -0.01024   0.02571   0.05174   0.06414
 Alpha virt. eigenvalues --    0.08406   0.10505   0.10740   0.11402   0.11831
 Alpha virt. eigenvalues --    0.12413   0.13151   0.13409   0.13628   0.13801

 Mulliken charges:
               1
     1  O   -0.559283
     2  O   -0.566098
     3  C    0.003959
     4  C   -0.158304
     5  C   -0.147271
     6  C    0.169805
     7  C    0.119201
     8  C   -0.060189
     9  C   -0.277260
    10  C   -0.238244
    11  C   -0.204419
    12  C   -0.175850
    13  C    0.149267
    14  C    0.076722
    15  C   -0.096607
    16  C   -0.215447
    17  C    0.041136
    18  C   -0.293939
    19  C   -0.295349
    20  C   -0.361355
    21  C   -0.065782
    22  C   -0.123819
    23  C   -0.336728
    24  C    0.082716
    25  C   -0.076544
    26  C   -0.361968
    27  C    0.093444
    28  C   -0.113557
    29  C   -0.370497
    30  C   -0.117557
    31  C   -0.040480
    32  C   -0.063070
    33  C   -0.116178
    34  C    0.054737
    35  C   -0.124963
    36  C    0.084596
    37  C   -0.356870
    38  C   -0.119539
    39  C   -0.113841
    40  C   -0.386272
    41  C   -0.087249
    42  C   -0.090234
    43  H    0.091268
    44  H    0.078426
    45  H    0.090133
    46  H    0.081239
    47  H    0.109189
    48  H    0.105948
    49  H    0.085676
    50  H    0.115809
    51  H    0.079297
    52  H    0.031053
    53  H    0.105590
    54  H    0.084961
    55  H    0.077248
    56  H    0.082210
    57  H    0.075548
    58  H    0.105038
    59  H    0.123967
    60  H    0.104827
    61  H    0.099194
    62  H    0.111597
    63  H    0.097496
    64  H    0.101183
    65  H    0.103878
    66  H    0.117564
    67  H    0.124251
    68  H    0.089451
    69  H    0.310468
    70  H    0.071787
    71  H    0.084367
    72  H    0.087899
    73  H    0.119607
    74  H    0.122885
    75  H    0.301635
    76  H    0.073410
    77  H    0.107328
    78  H    0.103593
    79  H    0.138015
    80  H    0.097672
    81  H    0.131274
    82  H    0.086617
    83  H    0.093580
    84  H    0.080792
    85  H    0.059508
    86  H    0.076038
    87  H    0.078051
    88  H    0.071572
    89  H    0.119913
    90  H    0.143693
    91  H    0.083424
    92  H    0.083931
    93  H    0.085930
    94  H    0.131021
    95  H    0.095627
    96  H    0.130739
    97  H    0.099180
    98  H    0.097583
 Sum of Mulliken charges =  -0.00000

 Dipole moment (field-independent basis, Debye):
    X=             -0.2890    Y=              0.6836    Z=             -0.8580  Tot=              1.1345
 Quadrupole moment (field-independent basis, Debye-Ang):
   XX=           -296.7178   YY=           -244.4568   ZZ=           -263.6049
   XY=              5.5983   XZ=             44.4655   YZ=              1.9616

 Normal termination of Gaussian 16 at Sun Jul 14 22:15:19 2019.
