 Gaussian 16, Revision A.03,
 Gaussian 16:  ES64L-G16RevA.03 25-Dec-2016

 -------------------------------------
 # td=(NStates=1) CAM-B3LYP/6-31G(d,p)
 -------------------------------------

 --
 TD
 --
 Symbolic Z-matrix:
 Charge =  0 Multiplicity = 1

                         Standard orientation:
 ---------------------------------------------------------------------
 Center     Atomic      Atomic             Coordinates (Angstroms)
 Number     Number       Type             X           Y           Z
 ---------------------------------------------------------------------
      1          8           0      -14.034483   -2.067682    0.684764
      2          8           0       14.856190    0.989923    0.188703
      3          6           0      -11.729760    0.117593    1.348863
      4          6           0      -10.970794    0.279531    0.002774
      5          6           0      -12.016209   -1.424519    1.468414
      6          6           0      -12.723734   -2.091740    0.292450
      7          6           0      -11.671866   -0.381116   -1.155520
      8          6           0       11.098290    1.044069    1.087781
      9          6           0      -10.860770    0.570785    2.545794
     10          6           0      -13.084169    0.845230    1.325764
     11          6           0       12.493121    1.504304    0.884869
     12          6           0      -12.392611   -1.511784   -0.997297
     13          6           0       13.585466    0.419288    0.539985
     14          6           0       10.682604   -0.012009    0.004457
     15          6           0       -9.528385   -0.119166    0.056713
     16          6           0       13.126298   -0.197526   -0.816235
     17          6           0       11.598474   -0.384643   -0.871758
     18          6           0       10.317728    2.233702    1.116261
     19          6           0       10.969278    0.289787    2.377530
     20          6           0      -11.449449    0.355478   -2.539595
     21          6           0       -8.545810    0.738329   -0.437908
     22          6           0        9.313384   -0.456163    0.016278
     23          6           0       11.270930   -1.390589   -2.107628
     24          6           0       -7.165762    0.441312   -0.293378
     25          6           0        8.760716   -1.611424   -0.222205
     26          6           0       -6.634493   -0.989126    0.113043
     27          6           0        7.473230   -2.075883   -0.067779
     28          6           0       -6.326056    1.483606   -0.567922
     29          6           0        7.242708   -3.605608    0.174165
     30          6           0        6.350359   -1.186208   -0.331587
     31          6           0       -4.850023    1.388822   -0.595589
     32          6           0        5.102809   -1.614690   -0.289824
     33          6           0       -4.122545    2.541488   -0.644878
     34          6           0       -2.654740    2.562282   -0.627711
     35          6           0        4.019161   -0.663252   -0.290269
     36          6           0        2.584725   -0.880326   -0.164513
     37          6           0       -1.989936    3.971668   -0.871919
     38          6           0       -1.888244    1.434307   -0.496830
     39          6           0        1.746259    0.250921   -0.358315
     40          6           0        2.082046   -2.315503    0.047026
     41          6           0       -0.369806    1.412723   -0.522038
     42          6           0        0.321105    0.295150   -0.280700
     43          1           0      -10.834406    1.492646   -0.326772
     44          1           0      -12.426054   -1.660632    2.624893
     45          1           0      -11.000152   -1.767831    1.617985
     46          1           0      -12.389880   -3.189691    0.216592
     47          1           0       -9.937541   -0.064347    2.535464
     48          1           0      -10.666675    1.578686    2.486582
     49          1           0      -11.413113    0.516888    3.578896
     50          1           0      -13.812169    0.538234    0.517065
     51          1           0      -13.726876    0.746124    2.321837
     52          1           0      -13.084335    1.992273    1.127178
     53          1           0       12.390407    1.969328    0.119250
     54          1           0       12.728671    2.193171    1.705033
     55          1           0      -12.782899   -2.237884   -1.848753
     56          1           0       13.638416   -0.244592    1.223077
     57          1           0       -9.353301   -1.028984    0.506268
     58          1           0       13.501488   -1.288060   -1.071976
     59          1           0       13.378778    0.496430   -1.581399
     60          1           0        9.379354    2.154646    1.290563
     61          1           0       10.349143    2.905669    0.289826
     62          1           0       10.795409    2.923272    1.858120
     63          1           0       11.787850   -0.560230    2.278325
     64          1           0       10.017861   -0.374347    2.372176
     65          1           0       10.961110    1.127853    3.301616
     66          1           0      -10.358189    0.437968   -2.765574
     67          1           0      -12.025297    1.381439   -2.470360
     68          1           0      -11.960874   -0.231329   -3.357773
     69          1           0      -14.558150   -2.070349   -0.129016
     70          1           0        8.769369    0.413341    0.584291
     71          1           0       -8.878988    1.693973   -0.714013
     72          1           0       11.600266   -2.323748   -1.802428
     73          1           0       10.168098   -1.468135   -2.290480
     74          1           0       11.786129   -0.982545   -2.931757
     75          1           0       15.115425    1.454518    1.001914
     76          1           0        9.204511   -2.418077   -0.436308
     77          1           0       -5.544302   -0.926950    0.135847
     78          1           0       -6.972755   -1.314119    1.044222
     79          1           0       -6.872174   -1.665599   -0.761693
     80          1           0       -6.635354    2.587816   -0.633485
     81          1           0        6.564990   -3.716794    1.020795
     82          1           0        6.816607   -4.120607   -0.760605
     83          1           0        8.306454   -4.183203    0.562308
     84          1           0        6.407413   -0.118911   -0.543103
     85          1           0       -4.410601    0.348195   -0.787319
     86          1           0        4.967423   -2.650814    0.099537
     87          1           0       -4.711333    3.494347   -0.701293
     88          1           0        4.429689    0.152934   -0.559269
     89          1           0       -1.535126    4.059041   -1.941177
     90          1           0       -1.267281    4.272722   -0.046629
     91          1           0       -2.849643    4.686573   -0.994227
     92          1           0       -2.476701    0.682565   -0.291898
     93          1           0        2.206700    1.277245   -0.325698
     94          1           0        2.019745   -2.456875    1.385575
     95          1           0        0.970048   -2.420927   -0.606006
     96          1           0        2.919313   -3.004386   -0.620341
     97          1           0       -0.094620    2.523197   -0.677802
     98          1           0       -0.156702   -0.603663    0.079568
 ---------------------------------------------------------------------

 SCF Done:  E(RCAM-B3LYP) =  -1706.85811108     A.U. after   15 cycles

 Excitation energies and oscillator strengths:

 Excited State   1:      Singlet-A      2.2567 eV  549.39 nm  f=3.0078  <S**2>=0.000
     155 ->158         0.16075
     156 ->157         0.68635
 This state for optimization and/or second-order correction.
 Total Energy, E(TD-HF/TD-DFT) =  -1706.77517714
 Copying the excited state density for this state as the 1-particle RhoCI density.

 The electronic state is 1-A.
 Alpha  occ. eigenvalues --  -19.21375 -19.21106 -10.31390 -10.30409 -10.29428
 Alpha  occ. eigenvalues --  -10.28474 -10.28328 -10.28136 -10.27812 -10.27629
 Alpha  occ. eigenvalues --  -10.27539 -10.27516 -10.27514 -10.27344 -10.27324
 Alpha  occ. eigenvalues --  -10.27145 -10.27107 -10.27053 -10.26868 -10.26727
 Alpha  occ. eigenvalues --  -10.26555 -10.26414 -10.26268 -10.26236 -10.26076
 Alpha  occ. eigenvalues --  -10.26062 -10.26003 -10.25892 -10.25857 -10.25672
 Alpha  occ. eigenvalues --  -10.25497 -10.25429 -10.25388 -10.25367 -10.25025
 Alpha  occ. eigenvalues --  -10.24873 -10.24824 -10.24576 -10.24093 -10.23433
 Alpha  occ. eigenvalues --  -10.22651 -10.22576  -1.11429  -1.09181  -0.95025
 Alpha  occ. eigenvalues --   -0.93518  -0.92045  -0.91357  -0.90354  -0.89453
 Alpha  occ. eigenvalues --   -0.87891  -0.86846  -0.85898  -0.85335  -0.84314
 Alpha  occ. eigenvalues --   -0.83099  -0.81856  -0.79898  -0.79669  -0.77614
 Alpha  occ. eigenvalues --   -0.77044  -0.76898  -0.75941  -0.75470  -0.75114
 Alpha  occ. eigenvalues --   -0.74834  -0.74401  -0.74200  -0.72479  -0.70968
 Alpha  occ. eigenvalues --   -0.69187  -0.67777  -0.66933  -0.65685  -0.63870
 Alpha  occ. eigenvalues --   -0.63250  -0.63057  -0.62463  -0.60789  -0.60276
 Alpha  occ. eigenvalues --   -0.59781  -0.59396  -0.58551  -0.57746  -0.56880
 Alpha  occ. eigenvalues --   -0.55774  -0.55695  -0.54492  -0.53648  -0.53225
 Alpha  occ. eigenvalues --   -0.52776  -0.52086  -0.51687  -0.51579  -0.50726
 Alpha  occ. eigenvalues --   -0.50301  -0.49972  -0.49912  -0.49586  -0.49069
 Alpha  occ. eigenvalues --   -0.48668  -0.48574  -0.48233  -0.48188  -0.47524
 Alpha  occ. eigenvalues --   -0.47148  -0.46678  -0.46589  -0.46187  -0.45960
 Alpha  occ. eigenvalues --   -0.45932  -0.45433  -0.45187  -0.44900  -0.44798
 Alpha  occ. eigenvalues --   -0.44683  -0.44385  -0.44004  -0.43319  -0.43093
 Alpha  occ. eigenvalues --   -0.42994  -0.42732  -0.42263  -0.42232  -0.41717
 Alpha  occ. eigenvalues --   -0.41586  -0.41465  -0.41274  -0.40897  -0.40305
 Alpha  occ. eigenvalues --   -0.40181  -0.39993  -0.39808  -0.39556  -0.39277
 Alpha  occ. eigenvalues --   -0.39178  -0.38836  -0.38618  -0.38430  -0.38023
 Alpha  occ. eigenvalues --   -0.37463  -0.37124  -0.36845  -0.36490  -0.35881
 Alpha  occ. eigenvalues --   -0.35332  -0.34668  -0.33889  -0.32715  -0.31852
 Alpha  occ. eigenvalues --   -0.31651  -0.29487  -0.29137  -0.26993  -0.23238
 Alpha  occ. eigenvalues --   -0.19416
 Alpha virt. eigenvalues --   -0.05382  -0.01435   0.02757   0.05179   0.06940
 Alpha virt. eigenvalues --    0.08733   0.09722   0.11568   0.11828   0.12182
 Alpha virt. eigenvalues --    0.12412   0.12626   0.13197   0.13329   0.13643

 Mulliken charges:
               1
     1  O   -0.512473
     2  O   -0.555603
     3  C    0.019363
     4  C   -0.136668
     5  C   -0.166094
     6  C    0.168303
     7  C    0.125826
     8  C   -0.028910
     9  C   -0.292093
    10  C   -0.287221
    11  C   -0.167887
    12  C   -0.167745
    13  C    0.166396
    14  C    0.094632
    15  C   -0.068549
    16  C   -0.220398
    17  C   -0.030575
    18  C   -0.300253
    19  C   -0.271790
    20  C   -0.352642
    21  C   -0.095739
    22  C   -0.109146
    23  C   -0.359783
    24  C    0.085254
    25  C   -0.033946
    26  C   -0.357092
    27  C    0.006547
    28  C   -0.138394
    29  C   -0.367766
    30  C   -0.087445
    31  C   -0.076350
    32  C   -0.081489
    33  C   -0.128799
    34  C    0.065078
    35  C   -0.092212
    36  C    0.083818
    37  C   -0.384521
    38  C   -0.082051
    39  C   -0.120409
    40  C   -0.327452
    41  C   -0.077908
    42  C   -0.085542
    43  H    0.054453
    44  H    0.082339
    45  H    0.077863
    46  H    0.061797
    47  H    0.094003
    48  H    0.114234
    49  H    0.088359
    50  H    0.100644
    51  H    0.088238
    52  H    0.070392
    53  H    0.105089
    54  H    0.074365
    55  H    0.079778
    56  H    0.087451
    57  H    0.091756
    58  H    0.098442
    59  H    0.134939
    60  H    0.107779
    61  H    0.106714
    62  H    0.088641
    63  H    0.085356
    64  H    0.102680
    65  H    0.069070
    66  H    0.126934
    67  H    0.112041
    68  H    0.106876
    69  H    0.294567
    70  H    0.067628
    71  H    0.087056
    72  H    0.122727
    73  H    0.108555
    74  H    0.113761
    75  H    0.300999
    76  H    0.061240
    77  H    0.107481
    78  H    0.133304
    79  H    0.122424
    80  H    0.082663
    81  H    0.137880
    82  H    0.128978
    83  H    0.084667
    84  H    0.087561
    85  H    0.103153
    86  H    0.073186
    87  H    0.089208
    88  H    0.060379
    89  H    0.118410
    90  H    0.124184
    91  H    0.103594
    92  H    0.049510
    93  H    0.086985
    94  H    0.100251
    95  H    0.093897
    96  H    0.106036
    97  H    0.092973
    98  H    0.096239
 Sum of Mulliken charges =  -0.00000

 Dipole moment (field-independent basis, Debye):
    X=             -0.1515    Y=              0.2634    Z=             -0.1841  Tot=              0.3553
 Quadrupole moment (field-independent basis, Debye-Ang):
   XX=           -286.6286   YY=           -244.9643   ZZ=           -263.6668
   XY=             -2.3510   XZ=             40.4144   YZ=              3.3659

 Normal termination of Gaussian 16 at Mon Jul 15 14:01:49 2019.
