 Gaussian 16, Revision A.03,
 Gaussian 16:  ES64L-G16RevA.03 25-Dec-2016

 -------------------------------------
 # td=(NStates=1) CAM-B3LYP/6-31G(d,p)
 -------------------------------------

 --
 TD
 --
 Symbolic Z-matrix:
 Charge =  0 Multiplicity = 1

                         Standard orientation:
 ---------------------------------------------------------------------
 Center     Atomic      Atomic             Coordinates (Angstroms)
 Number     Number       Type             X           Y           Z
 ---------------------------------------------------------------------
      1          8           0      -14.094670   -2.201948    0.035129
      2          8           0       14.793671    0.827246   -0.076883
      3          6           0      -11.822341   -0.052197    1.187667
      4          6           0      -10.958582    0.328026   -0.063425
      5          6           0      -12.030457   -1.556486    1.317480
      6          6           0      -12.696882   -2.208121    0.027991
      7          6           0      -11.530876   -0.462998   -1.263261
      8          6           0       11.165561    0.972235    1.000395
      9          6           0      -11.181253    0.498187    2.517175
     10          6           0      -13.170204    0.726494    1.179106
     11          6           0       12.580542    1.432085    0.800490
     12          6           0      -12.139263   -1.587080   -1.195604
     13          6           0       13.481144    0.284435    0.303603
     14          6           0       10.671816    0.046288   -0.144912
     15          6           0       -9.579631    0.025880    0.223503
     16          6           0       12.997750   -0.254086   -1.101191
     17          6           0       11.475073   -0.540214   -1.036318
     18          6           0       10.252912    2.220034    1.028861
     19          6           0       11.068361    0.299238    2.501315
     20          6           0      -11.114168    0.333836   -2.534568
     21          6           0       -8.526413    0.899603   -0.006090
     22          6           0        9.212176   -0.409024    0.127057
     23          6           0       10.982063   -1.571472   -2.058598
     24          6           0       -7.117314    0.538245    0.135996
     25          6           0        8.830836   -1.730183   -0.070000
     26          6           0       -6.809348   -0.936937    0.488196
     27          6           0        7.405144   -2.166581   -0.052852
     28          6           0       -6.188255    1.474628   -0.198410
     29          6           0        7.167044   -3.625334    0.232379
     30          6           0        6.396701   -1.207995   -0.220805
     31          6           0       -4.711771    1.416379   -0.238475
     32          6           0        5.053422   -1.515743   -0.030678
     33          6           0       -3.979932    2.548776   -0.561238
     34          6           0       -2.591288    2.635692   -0.640947
     35          6           0        4.096540   -0.559029   -0.112909
     36          6           0        2.599252   -0.652834   -0.120708
     37          6           0       -2.077370    3.958632   -1.018615
     38          6           0       -1.791814    1.584699   -0.374524
     39          6           0        1.838720    0.497562   -0.238939
     40          6           0        1.989052   -2.022755    0.077707
     41          6           0       -0.443841    1.654214   -0.439104
     42          6           0        0.428550    0.592620   -0.196672
     43          1           0      -10.988991    1.430412   -0.208431
     44          1           0      -12.537251   -2.120920    2.152968
     45          1           0      -10.990330   -2.124230    1.302340
     46          1           0      -12.182814   -3.435849   -0.050678
     47          1           0      -10.319244   -0.153129    2.872275
     48          1           0      -10.948857    1.511537    2.253484
     49          1           0      -11.797408    0.396280    3.493292
     50          1           0      -13.850788    0.549309    0.171617
     51          1           0      -13.853343    0.505946    2.022960
     52          1           0      -12.903787    1.607546    0.917143
     53          1           0       12.709051    2.240298    0.086773
     54          1           0       13.021919    1.773778    1.748034
     55          1           0      -12.505600   -1.837453   -2.259035
     56          1           0       13.729675   -0.585024    1.146372
     57          1           0       -9.424678   -1.039761    0.501972
     58          1           0       13.623649   -1.125902   -1.419450
     59          1           0       13.255840    0.470739   -1.963297
     60          1           0        9.250100    2.044277    1.420640
     61          1           0        9.823658    2.370360   -0.221286
     62          1           0       10.599867    3.111474    1.563630
     63          1           0       11.802311   -0.504302    2.596870
     64          1           0       10.050624   -0.033957    2.932291
     65          1           0       11.474840    1.046699    3.192640
     66          1           0      -10.076855    0.710162   -2.451421
     67          1           0      -11.739490    1.337183   -2.556554
     68          1           0      -11.187678   -0.233217   -3.506541
     69          1           0      -14.354235   -2.244601   -0.889310
     70          1           0        8.585300    0.407847    0.550704
     71          1           0       -8.632174    1.936870   -0.458890
     72          1           0       11.147493   -2.727985   -1.741195
     73          1           0       10.101546   -1.353726   -2.436017
     74          1           0       11.698844   -1.278359   -2.809024
     75          1           0       15.122649    1.373495    0.585169
     76          1           0        9.693384   -2.431161   -0.201108
     77          1           0       -5.652153   -1.035673    0.850439
     78          1           0       -7.373553   -1.145655    1.278898
     79          1           0       -7.103770   -1.674469   -0.343067
     80          1           0       -6.658917    2.540951   -0.496779
     81          1           0        6.532987   -3.913336    1.183985
     82          1           0        6.690537   -4.208017   -0.626537
     83          1           0        8.032593   -4.201558    0.353996
     84          1           0        6.788032   -0.209386   -0.489342
     85          1           0       -4.243021    0.441503   -0.014572
     86          1           0        4.728754   -2.429694    0.337371
     87          1           0       -4.613922    3.401259   -0.943355
     88          1           0        4.625403    0.354037   -0.363433
     89          1           0       -1.756116    4.080841   -1.980095
     90          1           0       -1.291952    4.197788   -0.263022
     91          1           0       -2.934156    4.730327   -1.142540
     92          1           0       -2.073878    0.706204   -0.241245
     93          1           0        2.523553    1.395888   -0.474436
     94          1           0        2.339025   -2.506855    1.156231
     95          1           0        0.913814   -1.997393    0.214780
     96          1           0        2.190033   -2.797161   -0.763906
     97          1           0        0.024050    2.578410   -0.703213
     98          1           0       -0.066512   -0.357341    0.084460
 ---------------------------------------------------------------------

 SCF Done:  E(RCAM-B3LYP) =  -1706.98738120     A.U. after   14 cycles

 Excitation energies and oscillator strengths:

 Excited State   1:      Singlet-A      2.2766 eV  544.61 nm  f=3.0355  <S**2>=0.000
     155 ->158         0.16040
     156 ->157         0.68812
 This state for optimization and/or second-order correction.
 Total Energy, E(TD-HF/TD-DFT) =  -1706.90371927
 Copying the excited state density for this state as the 1-particle RhoCI density.

 The electronic state is 1-A.
 Alpha  occ. eigenvalues --  -19.22284 -19.19875 -10.32977 -10.32259 -10.28319
 Alpha  occ. eigenvalues --  -10.28286 -10.27580 -10.27532 -10.27409 -10.27322
 Alpha  occ. eigenvalues --  -10.27321 -10.27261 -10.27114 -10.27067 -10.26957
 Alpha  occ. eigenvalues --  -10.26953 -10.26885 -10.26740 -10.26690 -10.26648
 Alpha  occ. eigenvalues --  -10.26610 -10.26582 -10.26579 -10.26578 -10.26530
 Alpha  occ. eigenvalues --  -10.26500 -10.26472 -10.26412 -10.26019 -10.25956
 Alpha  occ. eigenvalues --  -10.25864 -10.25793 -10.25663 -10.25541 -10.25365
 Alpha  occ. eigenvalues --  -10.25342 -10.25301 -10.24985 -10.24950 -10.24660
 Alpha  occ. eigenvalues --  -10.23735 -10.23420  -1.11106  -1.08369  -0.94221
 Alpha  occ. eigenvalues --   -0.93332  -0.92594  -0.91103  -0.90129  -0.89268
 Alpha  occ. eigenvalues --   -0.87039  -0.86906  -0.86382  -0.85156  -0.84280
 Alpha  occ. eigenvalues --   -0.82733  -0.82134  -0.80119  -0.79311  -0.78742
 Alpha  occ. eigenvalues --   -0.76753  -0.76283  -0.75893  -0.75511  -0.75264
 Alpha  occ. eigenvalues --   -0.75049  -0.74728  -0.74649  -0.73224  -0.70228
 Alpha  occ. eigenvalues --   -0.68403  -0.67741  -0.66142  -0.64809  -0.63820
 Alpha  occ. eigenvalues --   -0.63535  -0.62726  -0.62534  -0.61641  -0.60304
 Alpha  occ. eigenvalues --   -0.59349  -0.58694  -0.57791  -0.57045  -0.56829
 Alpha  occ. eigenvalues --   -0.55515  -0.55004  -0.54324  -0.54075  -0.53488
 Alpha  occ. eigenvalues --   -0.53020  -0.52273  -0.51890  -0.51366  -0.51028
 Alpha  occ. eigenvalues --   -0.50413  -0.49946  -0.49504  -0.48830  -0.48724
 Alpha  occ. eigenvalues --   -0.48608  -0.48287  -0.48245  -0.47900  -0.47578
 Alpha  occ. eigenvalues --   -0.46908  -0.46721  -0.46607  -0.46332  -0.46170
 Alpha  occ. eigenvalues --   -0.45820  -0.45309  -0.44961  -0.44921  -0.44818
 Alpha  occ. eigenvalues --   -0.44740  -0.44081  -0.43884  -0.43718  -0.43622
 Alpha  occ. eigenvalues --   -0.42883  -0.42740  -0.42640  -0.42406  -0.42178
 Alpha  occ. eigenvalues --   -0.42050  -0.41631  -0.41402  -0.41082  -0.40770
 Alpha  occ. eigenvalues --   -0.40625  -0.40603  -0.40090  -0.39978  -0.39501
 Alpha  occ. eigenvalues --   -0.39008  -0.38860  -0.38819  -0.38538  -0.38005
 Alpha  occ. eigenvalues --   -0.37617  -0.36923  -0.36424  -0.36142  -0.35343
 Alpha  occ. eigenvalues --   -0.35033  -0.34272  -0.33178  -0.32492  -0.32168
 Alpha  occ. eigenvalues --   -0.31696  -0.30072  -0.28975  -0.26910  -0.23736
 Alpha  occ. eigenvalues --   -0.19749
 Alpha virt. eigenvalues --   -0.05490  -0.00913   0.02826   0.05838   0.07418
 Alpha virt. eigenvalues --    0.08765   0.11063   0.11381   0.12070   0.12292
 Alpha virt. eigenvalues --    0.12963   0.13019   0.13478   0.13768   0.13857

 Mulliken charges:
               1
     1  O   -0.521793
     2  O   -0.565237
     3  C    0.012388
     4  C   -0.174722
     5  C   -0.191212
     6  C    0.179964
     7  C    0.166407
     8  C    0.020397
     9  C   -0.290561
    10  C   -0.265240
    11  C   -0.196101
    12  C   -0.162910
    13  C    0.154328
    14  C    0.054616
    15  C   -0.054435
    16  C   -0.211792
    17  C    0.001093
    18  C   -0.307149
    19  C   -0.315789
    20  C   -0.361621
    21  C   -0.111046
    22  C   -0.103841
    23  C   -0.342003
    24  C    0.113834
    25  C   -0.123814
    26  C   -0.357582
    27  C    0.087515
    28  C   -0.148857
    29  C   -0.379775
    30  C   -0.121474
    31  C   -0.066046
    32  C   -0.055342
    33  C   -0.135339
    34  C    0.106700
    35  C   -0.126230
    36  C    0.109252
    37  C   -0.382504
    38  C   -0.036407
    39  C   -0.110075
    40  C   -0.369592
    41  C   -0.074990
    42  C   -0.119927
    43  H    0.092239
    44  H    0.117349
    45  H    0.078155
    46  H    0.008918
    47  H    0.089838
    48  H    0.104826
    49  H    0.091629
    50  H    0.061523
    51  H    0.113507
    52  H    0.101991
    53  H    0.118370
    54  H    0.083891
    55  H    0.065768
    56  H    0.070473
    57  H    0.092893
    58  H    0.115442
    59  H    0.121303
    60  H    0.110120
    61  H    0.057921
    62  H    0.106030
    63  H    0.104494
    64  H    0.106977
    65  H    0.097839
    66  H    0.125943
    67  H    0.102927
    68  H    0.102710
    69  H    0.310874
    70  H    0.089681
    71  H    0.080248
    72  H    0.099487
    73  H    0.137273
    74  H    0.100776
    75  H    0.290877
    76  H    0.097407
    77  H    0.086033
    78  H    0.137112
    79  H    0.121053
    80  H    0.063044
    81  H    0.107769
    82  H    0.113464
    83  H    0.118074
    84  H    0.091997
    85  H    0.092202
    86  H    0.082472
    87  H    0.082301
    88  H    0.070802
    89  H    0.138934
    90  H    0.125708
    91  H    0.095000
    92  H    0.046429
    93  H    0.081245
    94  H    0.093593
    95  H    0.116093
    96  H    0.119751
    97  H    0.074042
    98  H    0.070087
 Sum of Mulliken charges =  -0.00000

 Dipole moment (field-independent basis, Debye):
    X=             -0.0095    Y=              0.3967    Z=             -0.2269  Tot=              0.4571
 Quadrupole moment (field-independent basis, Debye-Ang):
   XX=           -280.3028   YY=           -246.9854   ZZ=           -259.1087
   XY=             -4.5993   XZ=             38.3024   YZ=             -0.7949

 Normal termination of Gaussian 16 at Tue Jul 16 14:29:06 2019.
