 Gaussian 16, Revision A.03,
 Gaussian 16:  ES64L-G16RevA.03 25-Dec-2016

 -------------------------------------
 # td=(NStates=1) CAM-B3LYP/6-31G(d,p)
 -------------------------------------

 --
 TD
 --
 Symbolic Z-matrix:
 Charge =  0 Multiplicity = 1

                         Standard orientation:
 ---------------------------------------------------------------------
 Center     Atomic      Atomic             Coordinates (Angstroms)
 Number     Number       Type             X           Y           Z
 ---------------------------------------------------------------------
      1          8           0      -14.047609   -1.961764    0.590297
      2          8           0       14.767660    0.913249    0.462773
      3          6           0      -11.793567   -0.016310    1.299813
      4          6           0      -10.939675    0.374392    0.127095
      5          6           0      -11.984421   -1.592962    1.453405
      6          6           0      -12.704556   -2.068395    0.208257
      7          6           0      -11.547330   -0.290094   -1.120097
      8          6           0       10.995903    0.927867    1.235334
      9          6           0      -10.958205    0.411746    2.665592
     10          6           0      -13.014455    0.685824    1.311057
     11          6           0       12.490839    1.481494    0.983417
     12          6           0      -12.407327   -1.309072   -0.984217
     13          6           0       13.421892    0.489820    0.421073
     14          6           0       10.599435   -0.031398    0.126338
     15          6           0       -9.478724   -0.118988    0.167415
     16          6           0       12.970805    0.058655   -0.997787
     17          6           0       11.541093   -0.454935   -0.821539
     18          6           0       10.079415    2.217034    1.279977
     19          6           0       10.928259    0.291184    2.625683
     20          6           0      -11.309642    0.392968   -2.466873
     21          6           0       -8.447131    0.844583   -0.087853
     22          6           0        9.241472   -0.481641    0.075611
     23          6           0       11.143181   -1.345748   -2.022018
     24          6           0       -7.101836    0.483022   -0.052977
     25          6           0        8.840031   -1.752107   -0.065280
     26          6           0       -6.668560   -0.888144    0.188468
     27          6           0        7.450452   -2.222504   -0.205808
     28          6           0       -6.275884    1.428502   -0.371778
     29          6           0        7.197495   -3.572463    0.020172
     30          6           0        6.427496   -1.376557   -0.421031
     31          6           0       -4.758728    1.348495   -0.492028
     32          6           0        4.995081   -1.567008   -0.279231
     33          6           0       -4.008402    2.451879   -0.744628
     34          6           0       -2.589876    2.612599   -0.819209
     35          6           0        4.031874   -0.613570   -0.416680
     36          6           0        2.680634   -0.790243   -0.420975
     37          6           0       -2.000777    3.843379   -0.938155
     38          6           0       -1.777755    1.452580   -0.597018
     39          6           0        1.808969    0.359646   -0.582628
     40          6           0        2.058079   -2.242722   -0.237643
     41          6           0       -0.402609    1.471815   -0.741758
     42          6           0        0.440897    0.423708   -0.576418
     43          1           0      -10.952077    1.427494   -0.118738
     44          1           0      -12.518507   -1.915790    2.338952
     45          1           0      -10.737997   -1.910297    1.381766
     46          1           0      -12.466299   -3.111116    0.139690
     47          1           0      -10.169615   -0.300354    2.921404
     48          1           0      -10.603212    1.377104    2.666233
     49          1           0      -11.558665    0.293415    3.555633
     50          1           0      -13.541475    0.540918    0.290137
     51          1           0      -13.661085    0.606331    2.127378
     52          1           0      -12.893064    1.558105    1.222569
     53          1           0       12.371491    2.304205    0.283139
     54          1           0       12.833079    1.882657    1.918015
     55          1           0      -12.935815   -1.681019   -1.831953
     56          1           0       13.448557   -0.517455    0.986359
     57          1           0       -9.332993   -1.019857    0.500483
     58          1           0       13.800875   -0.687071   -1.168720
     59          1           0       13.137508    0.857268   -1.758224
     60          1           0        9.092982    1.974373    1.683654
     61          1           0       10.004100    2.541761    0.217319
     62          1           0       10.518366    2.903962    1.953691
     63          1           0       11.827363   -0.424792    2.770450
     64          1           0        9.971689   -0.163549    2.568971
     65          1           0       11.062939    0.901280    3.498012
     66          1           0      -10.074105    0.449882   -2.746768
     67          1           0      -11.645257    1.514151   -2.514549
     68          1           0      -11.792690   -0.123410   -3.305535
     69          1           0      -14.555172   -1.930016   -0.292334
     70          1           0        8.566069    0.216791    0.212038
     71          1           0       -8.843391    1.951641   -0.282085
     72          1           0       11.632346   -2.361145   -1.844901
     73          1           0       10.176506   -1.266250   -2.336325
     74          1           0       11.763699   -0.906711   -2.856926
     75          1           0       14.964550    1.320019    1.143600
     76          1           0        9.602505   -2.549433   -0.115642
     77          1           0       -5.590012   -0.880716    0.805152
     78          1           0       -7.215208   -1.238385    0.940582
     79          1           0       -6.870721   -1.626806   -0.687494
     80          1           0       -6.612294    2.518572   -0.589300
     81          1           0        6.741176   -3.938046    1.053983
     82          1           0        6.352376   -3.937733   -0.759950
     83          1           0        7.929218   -4.181319   -0.210611
     84          1           0        6.709484   -0.217747   -0.430335
     85          1           0       -4.237589    0.259388   -0.378071
     86          1           0        4.885613   -2.623461    0.074729
     87          1           0       -4.318378    3.440214   -0.960325
     88          1           0        4.377869    0.313262   -0.749426
     89          1           0       -1.419396    4.014984   -1.873326
     90          1           0       -1.341261    4.125027   -0.267273
     91          1           0       -2.549504    4.771711   -0.937339
     92          1           0       -2.351935    0.452937   -0.288882
     93          1           0        2.358919    1.291974   -0.670607
     94          1           0        2.131735   -2.699853    0.827899
     95          1           0        0.829046   -2.415751   -0.623738
     96          1           0        2.782191   -2.673395   -0.817234
     97          1           0        0.320913    2.439545   -0.762388
     98          1           0       -0.208934   -0.457379   -0.677869
 ---------------------------------------------------------------------

 SCF Done:  E(RCAM-B3LYP) =  -1706.86101806     A.U. after   15 cycles

 Excitation energies and oscillator strengths:

 Excited State   1:      Singlet-A      2.0822 eV  595.45 nm  f=2.9147  <S**2>=0.000
     155 ->158        -0.13647
     156 ->157         0.69569
 This state for optimization and/or second-order correction.
 Total Energy, E(TD-HF/TD-DFT) =  -1706.78449891
 Copying the excited state density for this state as the 1-particle RhoCI density.

 The electronic state is 1-A.
 Alpha  occ. eigenvalues --  -19.21184 -19.19020 -10.30183 -10.29148 -10.28099
 Alpha  occ. eigenvalues --  -10.28052 -10.27828 -10.27678 -10.27547 -10.27345
 Alpha  occ. eigenvalues --  -10.27324 -10.27282 -10.27028 -10.26979 -10.26747
 Alpha  occ. eigenvalues --  -10.26687 -10.26646 -10.26429 -10.26395 -10.26350
 Alpha  occ. eigenvalues --  -10.26335 -10.26316 -10.26172 -10.26132 -10.26067
 Alpha  occ. eigenvalues --  -10.26020 -10.26012 -10.25888 -10.25785 -10.25767
 Alpha  occ. eigenvalues --  -10.25730 -10.25364 -10.25317 -10.24777 -10.24758
 Alpha  occ. eigenvalues --  -10.24670 -10.24642 -10.24437 -10.24234 -10.23763
 Alpha  occ. eigenvalues --  -10.22778 -10.20100  -1.12275  -1.09711  -0.94100
 Alpha  occ. eigenvalues --   -0.93535  -0.92881  -0.92181  -0.91923  -0.90712
 Alpha  occ. eigenvalues --   -0.87898  -0.86575  -0.86455  -0.86133  -0.84671
 Alpha  occ. eigenvalues --   -0.83146  -0.82353  -0.80945  -0.80834  -0.78824
 Alpha  occ. eigenvalues --   -0.77731  -0.76661  -0.76285  -0.76045  -0.75693
 Alpha  occ. eigenvalues --   -0.75548  -0.75462  -0.74809  -0.73218  -0.71015
 Alpha  occ. eigenvalues --   -0.69566  -0.67676  -0.67205  -0.65922  -0.65001
 Alpha  occ. eigenvalues --   -0.63764  -0.63706  -0.61538  -0.60443  -0.59653
 Alpha  occ. eigenvalues --   -0.59249  -0.58268  -0.57990  -0.57848  -0.56539
 Alpha  occ. eigenvalues --   -0.56320  -0.55620  -0.55359  -0.54885  -0.53931
 Alpha  occ. eigenvalues --   -0.53590  -0.53181  -0.53024  -0.52386  -0.52035
 Alpha  occ. eigenvalues --   -0.50846  -0.50452  -0.50244  -0.49786  -0.49293
 Alpha  occ. eigenvalues --   -0.49275  -0.48937  -0.48478  -0.48207  -0.48075
 Alpha  occ. eigenvalues --   -0.47983  -0.47569  -0.46995  -0.46877  -0.46583
 Alpha  occ. eigenvalues --   -0.46126  -0.45995  -0.45520  -0.45112  -0.45040
 Alpha  occ. eigenvalues --   -0.44808  -0.44489  -0.44355  -0.44164  -0.43974
 Alpha  occ. eigenvalues --   -0.43042  -0.42733  -0.42582  -0.42503  -0.42197
 Alpha  occ. eigenvalues --   -0.41879  -0.41591  -0.41330  -0.41041  -0.40346
 Alpha  occ. eigenvalues --   -0.40186  -0.40004  -0.39726  -0.39584  -0.39438
 Alpha  occ. eigenvalues --   -0.38969  -0.38637  -0.38457  -0.37998  -0.37312
 Alpha  occ. eigenvalues --   -0.37099  -0.37003  -0.36597  -0.36226  -0.35353
 Alpha  occ. eigenvalues --   -0.34763  -0.34357  -0.34133  -0.31974  -0.31496
 Alpha  occ. eigenvalues --   -0.31288  -0.29364  -0.28673  -0.26413  -0.24185
 Alpha  occ. eigenvalues --   -0.19305
 Alpha virt. eigenvalues --   -0.06321  -0.00724   0.02418   0.04872   0.06466
 Alpha virt. eigenvalues --    0.08197   0.10881   0.11065   0.11866   0.12721
 Alpha virt. eigenvalues --    0.12973   0.13165   0.13388   0.13825   0.14163

 Mulliken charges:
               1
     1  O   -0.541817
     2  O   -0.534346
     3  C    0.012258
     4  C   -0.136364
     5  C   -0.161420
     6  C    0.162835
     7  C    0.128450
     8  C   -0.034105
     9  C   -0.321481
    10  C   -0.238376
    11  C   -0.199346
    12  C   -0.151261
    13  C    0.176483
    14  C    0.065329
    15  C   -0.066235
    16  C   -0.229451
    17  C    0.028239
    18  C   -0.309591
    19  C   -0.292492
    20  C   -0.355561
    21  C   -0.115741
    22  C   -0.098676
    23  C   -0.350761
    24  C    0.157166
    25  C   -0.096767
    26  C   -0.370847
    27  C    0.132763
    28  C   -0.134924
    29  C   -0.389260
    30  C   -0.129651
    31  C   -0.101554
    32  C   -0.101940
    33  C   -0.083268
    34  C    0.118392
    35  C   -0.096618
    36  C    0.091044
    37  C   -0.415809
    38  C   -0.132257
    39  C   -0.138179
    40  C   -0.342506
    41  C   -0.075525
    42  C   -0.063636
    43  H    0.092785
    44  H    0.119648
    45  H    0.038404
    46  H    0.086826
    47  H    0.089952
    48  H    0.102146
    49  H    0.090955
    50  H    0.071760
    51  H    0.102202
    52  H    0.089395
    53  H    0.099463
    54  H    0.078082
    55  H    0.069383
    56  H    0.067207
    57  H    0.078783
    58  H    0.116410
    59  H    0.118211
    60  H    0.099771
    61  H    0.103217
    62  H    0.110060
    63  H    0.086849
    64  H    0.110368
    65  H    0.102395
    66  H    0.093385
    67  H    0.103550
    68  H    0.114830
    69  H    0.298957
    70  H    0.081062
    71  H    0.084747
    72  H    0.112127
    73  H    0.130440
    74  H    0.096791
    75  H    0.266915
    76  H    0.084619
    77  H    0.092465
    78  H    0.133062
    79  H    0.124355
    80  H    0.078196
    81  H    0.112748
    82  H    0.094903
    83  H    0.118759
    84  H    0.054498
    85  H    0.085526
    86  H    0.085766
    87  H    0.072134
    88  H    0.088961
    89  H    0.123347
    90  H    0.146718
    91  H    0.108576
    92  H    0.082340
    93  H    0.074866
    94  H    0.114204
    95  H    0.086695
    96  H    0.132610
    97  H    0.065997
    98  H    0.068389
 Sum of Mulliken charges =  -0.00000

 Dipole moment (field-independent basis, Debye):
    X=             -0.8381    Y=              1.0073    Z=             -0.3253  Tot=              1.3501
 Quadrupole moment (field-independent basis, Debye-Ang):
   XX=           -280.7864   YY=           -242.6494   ZZ=           -261.0525
   XY=             -0.4401   XZ=             34.5294   YZ=              1.6947

 Normal termination of Gaussian 16 at Sat Jul 13 16:16:08 2019.
