 Gaussian 16, Revision A.03,
 Gaussian 16:  ES64L-G16RevA.03 25-Dec-2016

 -------------------------------------
 # td=(NStates=1) CAM-B3LYP/6-31G(d,p)
 -------------------------------------

 --
 TD
 --
 Symbolic Z-matrix:
 Charge =  0 Multiplicity = 1

                         Standard orientation:
 ---------------------------------------------------------------------
 Center     Atomic      Atomic             Coordinates (Angstroms)
 Number     Number       Type             X           Y           Z
 ---------------------------------------------------------------------
      1          8           0      -14.152398   -2.057128    0.448421
      2          8           0       14.831690    0.674209   -0.067343
      3          6           0      -11.790379    0.018681    1.211195
      4          6           0      -10.935237    0.240541   -0.061299
      5          6           0      -12.001046   -1.533354    1.436339
      6          6           0      -12.729167   -2.152241    0.177734
      7          6           0      -11.506929   -0.474460   -1.183231
      8          6           0       11.198339    0.925917    1.138341
      9          6           0      -11.046891    0.577037    2.462900
     10          6           0      -13.144602    0.645480    1.103338
     11          6           0       12.640406    1.370133    0.713031
     12          6           0      -12.263723   -1.553809   -1.171793
     13          6           0       13.460693    0.256348    0.129906
     14          6           0       10.709317   -0.043328   -0.031787
     15          6           0       -9.514283   -0.062190    0.040476
     16          6           0       12.924985   -0.091599   -1.233354
     17          6           0       11.458102   -0.433189   -1.118607
     18          6           0       10.266191    2.095286    1.306004
     19          6           0       11.310127    0.092646    2.462916
     20          6           0      -11.335061    0.166033   -2.651747
     21          6           0       -8.509969    0.794922   -0.178982
     22          6           0        9.271328   -0.511914    0.153105
     23          6           0       10.986041   -1.210546   -2.351960
     24          6           0       -7.099875    0.517147   -0.183935
     25          6           0        8.678433   -1.645449   -0.132498
     26          6           0       -6.633034   -0.848307    0.212262
     27          6           0        7.419851   -2.101546   -0.034187
     28          6           0       -6.236841    1.611415   -0.496678
     29          6           0        7.177187   -3.536251    0.151091
     30          6           0        6.330212   -1.209788    0.003469
     31          6           0       -4.825688    1.581150   -0.321513
     32          6           0        4.965702   -1.456042    0.018816
     33          6           0       -3.973963    2.646966   -0.637418
     34          6           0       -2.554959    2.582501   -0.548929
     35          6           0        4.021357   -0.407102    0.026736
     36          6           0        2.613190   -0.695064    0.027087
     37          6           0       -1.951006    4.054513   -0.539522
     38          6           0       -1.797702    1.476612   -0.503685
     39          6           0        1.736507    0.431544   -0.098094
     40          6           0        2.253525   -2.130495    0.260697
     41          6           0       -0.459906    1.503088   -0.521151
     42          6           0        0.379171    0.343591   -0.186611
     43          1           0      -11.095987    1.224662   -0.199465
     44          1           0      -12.625932   -1.758994    2.247098
     45          1           0      -11.034316   -2.191414    1.375812
     46          1           0      -12.548875   -3.251157   -0.043888
     47          1           0      -10.186694   -0.003193    2.397431
     48          1           0      -10.725012    1.589694    2.114691
     49          1           0      -11.769976    0.239783    3.291131
     50          1           0      -13.808486    0.420830    0.234351
     51          1           0      -13.721988    0.457811    2.079323
     52          1           0      -13.238183    1.691531    1.076376
     53          1           0       12.718528    2.230235   -0.038672
     54          1           0       12.951530    1.749405    1.705977
     55          1           0      -12.695113   -1.938784   -2.084250
     56          1           0       13.426552   -0.617588    0.813879
     57          1           0       -9.327653   -1.142921    0.244707
     58          1           0       13.425239   -0.830615   -1.960496
     59          1           0       13.153131    0.876526   -1.837585
     60          1           0        9.399876    1.692978    1.919716
     61          1           0        9.724797    2.468607    0.189166
     62          1           0       10.760902    2.963314    1.740033
     63          1           0       12.209192   -0.545522    2.435309
     64          1           0       10.332101   -0.375739    2.830992
     65          1           0       11.580493    0.765242    3.361975
     66          1           0      -10.350395    0.203494   -2.672274
     67          1           0      -11.962911    1.168210   -2.674504
     68          1           0      -11.778879   -0.453521   -3.317738
     69          1           0      -14.597356   -1.884253   -0.442062
     70          1           0        8.472334    0.151413    0.589132
     71          1           0       -8.729889    1.806719   -0.559844
     72          1           0       11.615679   -2.234835   -2.543052
     73          1           0        9.905489   -1.329772   -2.347506
     74          1           0       11.204129   -0.519996   -3.209218
     75          1           0       15.464162    0.845052    0.810229
     76          1           0        9.288413   -2.546925   -0.424608
     77          1           0       -5.591539   -0.931129    0.297550
     78          1           0       -7.069596   -1.201590    1.038804
     79          1           0       -6.866538   -1.544528   -0.767217
     80          1           0       -6.775270    2.586295   -0.884578
     81          1           0        6.900569   -3.921527    1.109755
     82          1           0        6.153659   -3.589698   -0.335279
     83          1           0        7.961699   -3.944773   -0.338982
     84          1           0        6.511980   -0.148146   -0.319637
     85          1           0       -4.348867    0.605104    0.047115
     86          1           0        4.659468   -2.404515    0.375276
     87          1           0       -4.409556    3.527611   -1.021903
     88          1           0        4.268242    0.690961    0.052477
     89          1           0       -1.455535    4.275119   -1.488601
     90          1           0       -1.292330    4.121290    0.396111
     91          1           0       -2.695808    4.757995   -0.517090
     92          1           0       -2.436990    0.481961   -0.456763
     93          1           0        2.258692    1.288882   -0.530395
     94          1           0        2.391719   -2.128664    1.277062
     95          1           0        1.188581   -2.380752   -0.143450
     96          1           0        2.831324   -2.865149   -0.364631
     97          1           0        0.193695    2.468408   -0.596676
     98          1           0       -0.189257   -0.609357   -0.070498
 ---------------------------------------------------------------------

 SCF Done:  E(RCAM-B3LYP) =  -1706.99257660     A.U. after   16 cycles

 Excitation energies and oscillator strengths:

 Excited State   1:      Singlet-A      1.8569 eV  667.68 nm  f=3.1766  <S**2>=0.000
     155 ->158        -0.13301
     156 ->157         0.70061
     156 <-157        -0.11677
 This state for optimization and/or second-order correction.
 Total Energy, E(TD-HF/TD-DFT) =  -1706.92433505
 Copying the excited state density for this state as the 1-particle RhoCI density.

 The electronic state is 1-A.
 Alpha  occ. eigenvalues --  -19.21077 -19.20617 -10.30574 -10.30418 -10.28233
 Alpha  occ. eigenvalues --  -10.27969 -10.27781 -10.27622 -10.27283 -10.27217
 Alpha  occ. eigenvalues --  -10.27093 -10.26976 -10.26903 -10.26821 -10.26775
 Alpha  occ. eigenvalues --  -10.26738 -10.26723 -10.26363 -10.26316 -10.26249
 Alpha  occ. eigenvalues --  -10.26214 -10.26165 -10.26148 -10.26116 -10.26102
 Alpha  occ. eigenvalues --  -10.26015 -10.26008 -10.25793 -10.25793 -10.25700
 Alpha  occ. eigenvalues --  -10.25659 -10.25404 -10.25311 -10.25275 -10.25032
 Alpha  occ. eigenvalues --  -10.24997 -10.24671 -10.24392 -10.24289 -10.24241
 Alpha  occ. eigenvalues --  -10.24214 -10.23424  -1.07021  -1.05888  -0.94644
 Alpha  occ. eigenvalues --   -0.93074  -0.92179  -0.91886  -0.90962  -0.90353
 Alpha  occ. eigenvalues --   -0.87054  -0.86813  -0.86606  -0.85415  -0.84379
 Alpha  occ. eigenvalues --   -0.83208  -0.81899  -0.80433  -0.80200  -0.79330
 Alpha  occ. eigenvalues --   -0.77611  -0.76350  -0.76085  -0.75804  -0.75556
 Alpha  occ. eigenvalues --   -0.75273  -0.74980  -0.74527  -0.72589  -0.70433
 Alpha  occ. eigenvalues --   -0.69000  -0.67023  -0.66281  -0.65210  -0.63332
 Alpha  occ. eigenvalues --   -0.62870  -0.62328  -0.61811  -0.60051  -0.59924
 Alpha  occ. eigenvalues --   -0.59416  -0.58687  -0.57779  -0.56731  -0.56090
 Alpha  occ. eigenvalues --   -0.55660  -0.55128  -0.54533  -0.54467  -0.54022
 Alpha  occ. eigenvalues --   -0.53665  -0.52909  -0.52293  -0.51869  -0.51159
 Alpha  occ. eigenvalues --   -0.50881  -0.50131  -0.50053  -0.49761  -0.49665
 Alpha  occ. eigenvalues --   -0.48990  -0.48841  -0.48490  -0.48204  -0.48093
 Alpha  occ. eigenvalues --   -0.47629  -0.47328  -0.46711  -0.46358  -0.45900
 Alpha  occ. eigenvalues --   -0.45713  -0.45512  -0.45356  -0.45137  -0.44717
 Alpha  occ. eigenvalues --   -0.44398  -0.44320  -0.44211  -0.43744  -0.43663
 Alpha  occ. eigenvalues --   -0.43565  -0.43327  -0.42735  -0.42076  -0.41916
 Alpha  occ. eigenvalues --   -0.41682  -0.41631  -0.40926  -0.40574  -0.40269
 Alpha  occ. eigenvalues --   -0.40214  -0.40107  -0.40017  -0.39484  -0.39110
 Alpha  occ. eigenvalues --   -0.38708  -0.38470  -0.38284  -0.38227  -0.37654
 Alpha  occ. eigenvalues --   -0.37452  -0.36836  -0.36709  -0.36281  -0.36085
 Alpha  occ. eigenvalues --   -0.35234  -0.34173  -0.33487  -0.32097  -0.31789
 Alpha  occ. eigenvalues --   -0.31472  -0.29181  -0.28930  -0.26526  -0.23455
 Alpha  occ. eigenvalues --   -0.18214
 Alpha virt. eigenvalues --   -0.06722  -0.01328   0.02584   0.06020   0.07208
 Alpha virt. eigenvalues --    0.09262   0.09982   0.11038   0.11626   0.12409
 Alpha virt. eigenvalues --    0.12599   0.13237   0.13475   0.13563   0.13998

 Mulliken charges:
               1
     1  O   -0.555224
     2  O   -0.594078
     3  C   -0.017204
     4  C   -0.117195
     5  C   -0.179409
     6  C    0.145929
     7  C    0.092173
     8  C    0.011164
     9  C   -0.279777
    10  C   -0.282625
    11  C   -0.189531
    12  C   -0.169581
    13  C    0.182399
    14  C    0.047976
    15  C   -0.094176
    16  C   -0.214105
    17  C    0.068219
    18  C   -0.287765
    19  C   -0.311330
    20  C   -0.332354
    21  C   -0.090092
    22  C   -0.137034
    23  C   -0.356834
    24  C    0.102583
    25  C   -0.085181
    26  C   -0.354378
    27  C    0.081385
    28  C   -0.133775
    29  C   -0.354084
    30  C   -0.126386
    31  C   -0.078215
    32  C   -0.109573
    33  C   -0.123055
    34  C    0.075241
    35  C   -0.117192
    36  C    0.083275
    37  C   -0.367070
    38  C   -0.084526
    39  C   -0.133347
    40  C   -0.372353
    41  C   -0.113010
    42  C   -0.083262
    43  H    0.093364
    44  H    0.118723
    45  H    0.079348
    46  H    0.070039
    47  H    0.112449
    48  H    0.098546
    49  H    0.100576
    50  H    0.097029
    51  H    0.090671
    52  H    0.091236
    53  H    0.098642
    54  H    0.080950
    55  H    0.078970
    56  H    0.082127
    57  H    0.090236
    58  H    0.105260
    59  H    0.108215
    60  H    0.104655
    61  H    0.073479
    62  H    0.108856
    63  H    0.108350
    64  H    0.114182
    65  H    0.085129
    66  H    0.128703
    67  H    0.094840
    68  H    0.111239
    69  H    0.300083
    70  H    0.077772
    71  H    0.077964
    72  H    0.098308
    73  H    0.123687
    74  H    0.113676
    75  H    0.305728
    76  H    0.057857
    77  H    0.112999
    78  H    0.134290
    79  H    0.101252
    80  H    0.082441
    81  H    0.133194
    82  H    0.104446
    83  H    0.111718
    84  H    0.072279
    85  H    0.082583
    86  H    0.092205
    87  H    0.088295
    88  H    0.088328
    89  H    0.121055
    90  H    0.118139
    91  H    0.114028
    92  H    0.076907
    93  H    0.091620
    94  H    0.150734
    95  H    0.097287
    96  H    0.126170
    97  H    0.089776
    98  H    0.082741
 Sum of Mulliken charges =  -0.00000

 Dipole moment (field-independent basis, Debye):
    X=              0.5049    Y=              0.2503    Z=             -0.2569  Tot=              0.6193
 Quadrupole moment (field-independent basis, Debye-Ang):
   XX=           -275.9196   YY=           -249.8389   ZZ=           -260.8084
   XY=            -10.0867   XZ=             44.3393   YZ=              0.9292

 Normal termination of Gaussian 16 at Sat Jul 13 16:28:47 2019.
