 Gaussian 16, Revision A.03,
 Gaussian 16:  ES64L-G16RevA.03 25-Dec-2016

 -------------------------------------
 # td=(NStates=1) CAM-B3LYP/6-31G(d,p)
 -------------------------------------

 --
 TD
 --
 Symbolic Z-matrix:
 Charge =  0 Multiplicity = 1

                         Standard orientation:
 ---------------------------------------------------------------------
 Center     Atomic      Atomic             Coordinates (Angstroms)
 Number     Number       Type             X           Y           Z
 ---------------------------------------------------------------------
      1          8           0      -14.123026   -1.996082    0.307743
      2          8           0       14.764428    0.959765    0.030423
      3          6           0      -11.793234   -0.125539    1.418277
      4          6           0      -11.072454    0.343326   -0.031149
      5          6           0      -11.877766   -1.647756    1.130220
      6          6           0      -12.763223   -2.074376   -0.086458
      7          6           0      -11.661873   -0.138216   -1.282195
      8          6           0       11.126958    0.934228    1.066666
      9          6           0      -10.981943    0.221704    2.617495
     10          6           0      -13.202964    0.558009    1.408601
     11          6           0       12.593319    1.423295    0.815235
     12          6           0      -12.392740   -1.202586   -1.218348
     13          6           0       13.501769    0.417412    0.268351
     14          6           0       10.622890    0.006527   -0.059733
     15          6           0       -9.564282   -0.007587   -0.008221
     16          6           0       13.010569   -0.045835   -1.030280
     17          6           0       11.448852   -0.494466   -1.050266
     18          6           0       10.218786    2.189613    0.999491
     19          6           0       11.148717    0.221663    2.413849
     20          6           0      -11.394224    0.511991   -2.563027
     21          6           0       -8.557033    0.892077   -0.098752
     22          6           0        9.252554   -0.516169    0.091316
     23          6           0       11.061052   -1.307782   -2.219854
     24          6           0       -7.140543    0.595800   -0.181440
     25          6           0        8.702968   -1.743078   -0.154077
     26          6           0       -6.741334   -0.910461   -0.113624
     27          6           0        7.354127   -2.081884   -0.096908
     28          6           0       -6.239454    1.574193   -0.233913
     29          6           0        7.178280   -3.585051    0.101102
     30          6           0        6.317340   -1.217906   -0.133244
     31          6           0       -4.820806    1.439653   -0.413654
     32          6           0        5.035789   -1.474653    0.032086
     33          6           0       -3.927688    2.496829   -0.546392
     34          6           0       -2.568932    2.629773   -0.411117
     35          6           0        4.071710   -0.633943   -0.364616
     36          6           0        2.661125   -0.805932   -0.075154
     37          6           0       -1.875336    3.961955   -0.647509
     38          6           0       -1.735607    1.463387   -0.307335
     39          6           0        1.831481    0.336091   -0.262438
     40          6           0        2.232030   -2.204342    0.429235
     41          6           0       -0.372489    1.433873   -0.386832
     42          6           0        0.418575    0.236776   -0.171947
     43          1           0      -11.069791    1.511724    0.024920
     44          1           0      -12.354529   -1.995982    2.024265
     45          1           0      -10.811286   -2.082962    1.105393
     46          1           0      -12.474148   -3.011158   -0.354887
     47          1           0      -10.041712   -0.182052    2.536561
     48          1           0      -10.742718    1.373333    2.610996
     49          1           0      -11.506755    0.099597    3.613795
     50          1           0      -13.788364    0.148079    0.556910
     51          1           0      -13.475441    0.026728    2.333233
     52          1           0      -13.073618    1.507657    1.694864
     53          1           0       12.359651    2.303715    0.047988
     54          1           0       12.950254    1.955154    1.708310
     55          1           0      -12.665876   -1.664901   -2.055672
     56          1           0       13.565702   -0.474653    0.961842
     57          1           0       -9.350552   -1.113808    0.198637
     58          1           0       13.586253   -1.001377   -1.302540
     59          1           0       13.159060    0.435889   -1.740236
     60          1           0        9.187872    1.772609    1.016454
     61          1           0       10.257034    2.631240   -0.046911
     62          1           0       10.529387    3.018731    1.551175
     63          1           0       11.641218   -0.730891    2.302367
     64          1           0       10.179707    0.131868    2.714170
     65          1           0       11.733954    0.719810    3.370328
     66          1           0      -10.237596    0.887254   -2.710219
     67          1           0      -11.953949    1.434301   -2.669179
     68          1           0      -11.470206    0.039900   -3.563893
     69          1           0      -14.718823   -2.329054   -0.468093
     70          1           0        8.476696    0.172683    0.654708
     71          1           0       -8.844942    1.975893   -0.335531
     72          1           0       11.214028   -2.317189   -2.026463
     73          1           0        9.930184   -1.420791   -2.478007
     74          1           0       11.772462   -1.065163   -3.171857
     75          1           0       15.102988    1.406385    0.816347
     76          1           0        9.430427   -2.537095   -0.395055
     77          1           0       -5.700356   -1.279154    0.205634
     78          1           0       -7.442366   -1.377090    0.595122
     79          1           0       -6.829176   -1.432732   -1.145270
     80          1           0       -6.569809    2.538175   -0.151229
     81          1           0        7.123495   -3.800748    1.216700
     82          1           0        6.298663   -4.095713   -0.304144
     83          1           0        8.003862   -4.113836   -0.280020
     84          1           0        6.791728   -0.241080   -0.613110
     85          1           0       -4.254248    0.460560   -0.508854
     86          1           0        4.736363   -2.539919    0.554504
     87          1           0       -4.328520    3.480829   -0.563973
     88          1           0        4.509007    0.349868   -0.624782
     89          1           0       -1.428209    4.237151   -1.661124
     90          1           0       -1.245662    4.166281    0.208366
     91          1           0       -2.693960    4.810706   -0.810185
     92          1           0       -2.186464    0.456576    0.238635
     93          1           0        2.310603    1.327691   -0.490867
     94          1           0        3.106168   -2.572806    1.273728
     95          1           0        1.260860   -2.377832    0.931905
     96          1           0        2.253638   -2.882668   -0.480539
     97          1           0        0.121302    2.294911   -0.685122
     98          1           0       -0.094495   -0.767803    0.003932
 ---------------------------------------------------------------------

 SCF Done:  E(RCAM-B3LYP) =  -1706.95337451     A.U. after   15 cycles

 Excitation energies and oscillator strengths:

 Excited State   1:      Singlet-A      1.8856 eV  657.53 nm  f=3.0195  <S**2>=0.000
     155 ->158        -0.13380
     156 ->157         0.70055
     156 <-157        -0.11596
 This state for optimization and/or second-order correction.
 Total Energy, E(TD-HF/TD-DFT) =  -1706.88408012
 Copying the excited state density for this state as the 1-particle RhoCI density.

 The electronic state is 1-A.
 Alpha  occ. eigenvalues --  -19.22364 -19.20876 -10.30002 -10.29775 -10.28459
 Alpha  occ. eigenvalues --  -10.28323 -10.28063 -10.27645 -10.27438 -10.27130
 Alpha  occ. eigenvalues --  -10.27109 -10.27000 -10.26976 -10.26844 -10.26726
 Alpha  occ. eigenvalues --  -10.26721 -10.26641 -10.26543 -10.26484 -10.26448
 Alpha  occ. eigenvalues --  -10.26407 -10.26386 -10.26295 -10.26227 -10.26031
 Alpha  occ. eigenvalues --  -10.25986 -10.25953 -10.25855 -10.25769 -10.25652
 Alpha  occ. eigenvalues --  -10.25125 -10.25031 -10.24989 -10.24866 -10.24848
 Alpha  occ. eigenvalues --  -10.24664 -10.24552 -10.24535 -10.24431 -10.23808
 Alpha  occ. eigenvalues --  -10.22516 -10.22095  -1.10309  -1.09069  -0.93443
 Alpha  occ. eigenvalues --   -0.93244  -0.92428  -0.91356  -0.90266  -0.89596
 Alpha  occ. eigenvalues --   -0.87449  -0.87161  -0.86831  -0.85379  -0.84402
 Alpha  occ. eigenvalues --   -0.83285  -0.81915  -0.80241  -0.79773  -0.77991
 Alpha  occ. eigenvalues --   -0.76810  -0.76467  -0.76060  -0.76041  -0.75837
 Alpha  occ. eigenvalues --   -0.75522  -0.75326  -0.75072  -0.72265  -0.70520
 Alpha  occ. eigenvalues --   -0.69044  -0.68131  -0.66653  -0.65080  -0.63823
 Alpha  occ. eigenvalues --   -0.63248  -0.62159  -0.62020  -0.60139  -0.59383
 Alpha  occ. eigenvalues --   -0.59034  -0.58792  -0.58469  -0.57175  -0.56315
 Alpha  occ. eigenvalues --   -0.55749  -0.55259  -0.54840  -0.54693  -0.53800
 Alpha  occ. eigenvalues --   -0.53224  -0.52541  -0.52377  -0.52063  -0.50903
 Alpha  occ. eigenvalues --   -0.50490  -0.50264  -0.50107  -0.49278  -0.49160
 Alpha  occ. eigenvalues --   -0.48855  -0.48706  -0.48218  -0.48027  -0.47841
 Alpha  occ. eigenvalues --   -0.47733  -0.47463  -0.46988  -0.46792  -0.46656
 Alpha  occ. eigenvalues --   -0.46041  -0.45155  -0.45109  -0.45000  -0.44514
 Alpha  occ. eigenvalues --   -0.44452  -0.43975  -0.43685  -0.43269  -0.43085
 Alpha  occ. eigenvalues --   -0.42709  -0.42618  -0.42436  -0.42179  -0.41949
 Alpha  occ. eigenvalues --   -0.41493  -0.41033  -0.40930  -0.40755  -0.40658
 Alpha  occ. eigenvalues --   -0.40447  -0.39725  -0.39586  -0.39494  -0.39250
 Alpha  occ. eigenvalues --   -0.38955  -0.38874  -0.38053  -0.37883  -0.37539
 Alpha  occ. eigenvalues --   -0.37444  -0.36816  -0.36323  -0.35454  -0.35234
 Alpha  occ. eigenvalues --   -0.34872  -0.34410  -0.33445  -0.32503  -0.32193
 Alpha  occ. eigenvalues --   -0.31242  -0.29604  -0.29059  -0.26884  -0.23520
 Alpha  occ. eigenvalues --   -0.18403
 Alpha virt. eigenvalues --   -0.06589  -0.01162   0.02978   0.05799   0.07258
 Alpha virt. eigenvalues --    0.09144   0.10880   0.11564   0.12161   0.12710
 Alpha virt. eigenvalues --    0.13021   0.13282   0.13304   0.13584   0.13825

 Mulliken charges:
               1
     1  O   -0.542734
     2  O   -0.561912
     3  C    0.010846
     4  C   -0.182177
     5  C   -0.184412
     6  C    0.138310
     7  C    0.206037
     8  C   -0.021250
     9  C   -0.306467
    10  C   -0.281951
    11  C   -0.194610
    12  C   -0.137250
    13  C    0.197569
    14  C    0.065462
    15  C   -0.090802
    16  C   -0.170063
    17  C    0.033413
    18  C   -0.314480
    19  C   -0.282810
    20  C   -0.380881
    21  C   -0.103788
    22  C   -0.126145
    23  C   -0.379036
    24  C    0.128587
    25  C   -0.121342
    26  C   -0.367765
    27  C    0.102440
    28  C   -0.121595
    29  C   -0.379048
    30  C   -0.125783
    31  C   -0.079369
    32  C   -0.062262
    33  C   -0.102569
    34  C    0.079052
    35  C   -0.123353
    36  C    0.088210
    37  C   -0.376317
    38  C   -0.118893
    39  C   -0.120102
    40  C   -0.358412
    41  C   -0.077792
    42  C   -0.090500
    43  H    0.066347
    44  H    0.095930
    45  H    0.081633
    46  H    0.095345
    47  H    0.115940
    48  H    0.086121
    49  H    0.103280
    50  H    0.130144
    51  H    0.090911
    52  H    0.100203
    53  H    0.076761
    54  H    0.079395
    55  H    0.054974
    56  H    0.070083
    57  H    0.083418
    58  H    0.089725
    59  H    0.113655
    60  H    0.099976
    61  H    0.099455
    62  H    0.111255
    63  H    0.111476
    64  H    0.112624
    65  H    0.068757
    66  H    0.091222
    67  H    0.124816
    68  H    0.118061
    69  H    0.308895
    70  H    0.078371
    71  H    0.082061
    72  H    0.136666
    73  H    0.120868
    74  H    0.093525
    75  H    0.302859
    76  H    0.080508
    77  H    0.106259
    78  H    0.112255
    79  H    0.110994
    80  H    0.077025
    81  H    0.114881
    82  H    0.111459
    83  H    0.113683
    84  H    0.078926
    85  H    0.080442
    86  H    0.077275
    87  H    0.059301
    88  H    0.088248
    89  H    0.123634
    90  H    0.133202
    91  H    0.089271
    92  H    0.069086
    93  H    0.094245
    94  H    0.094454
    95  H    0.118346
    96  H    0.129455
    97  H    0.086830
    98  H    0.091414
 Sum of Mulliken charges =  -0.00000

 Dipole moment (field-independent basis, Debye):
    X=              0.3742    Y=             -1.3098    Z=             -0.3776  Tot=              1.4135
 Quadrupole moment (field-independent basis, Debye-Ang):
   XX=           -260.9092   YY=           -241.4948   ZZ=           -260.0904
   XY=              9.1889   XZ=             36.2873   YZ=              3.5082

 Normal termination of Gaussian 16 at Sat Jul 13 05:41:42 2019.
