 Gaussian 16, Revision A.03,
 Gaussian 16:  ES64L-G16RevA.03 25-Dec-2016

 -------------------------------------
 # td=(NStates=1) CAM-B3LYP/6-31G(d,p)
 -------------------------------------

 --
 TD
 --
 Symbolic Z-matrix:
 Charge =  0 Multiplicity = 1

                         Standard orientation:
 ---------------------------------------------------------------------
 Center     Atomic      Atomic             Coordinates (Angstroms)
 Number     Number       Type             X           Y           Z
 ---------------------------------------------------------------------
      1          8           0      -14.141953   -1.924896    0.736096
      2          8           0       14.839153    0.989274    0.087406
      3          6           0      -11.720723   -0.008720    1.409095
      4          6           0      -11.038342    0.367944   -0.015853
      5          6           0      -11.857195   -1.540179    1.510791
      6          6           0      -12.699868   -2.124532    0.482554
      7          6           0      -11.671980   -0.385569   -1.158050
      8          6           0       11.132986    0.897494    1.239081
      9          6           0      -10.817776    0.615657    2.513776
     10          6           0      -13.060629    0.829385    1.480840
     11          6           0       12.580410    1.506776    0.993358
     12          6           0      -12.305740   -1.519159   -0.843104
     13          6           0       13.567298    0.397540    0.395724
     14          6           0       10.753132   -0.071001    0.058233
     15          6           0       -9.604540    0.024872   -0.020991
     16          6           0       12.984006   -0.155068   -0.860278
     17          6           0       11.490081   -0.487240   -0.870061
     18          6           0       10.164388    2.129763    1.269012
     19          6           0       11.198053    0.217365    2.597970
     20          6           0      -11.454260    0.064894   -2.474652
     21          6           0       -8.551265    0.859955   -0.295220
     22          6           0        9.256969   -0.405741    0.003144
     23          6           0       11.134513   -1.388840   -1.994016
     24          6           0       -7.114136    0.570335   -0.275032
     25          6           0        8.764619   -1.632946   -0.044544
     26          6           0       -6.709339   -0.902804   -0.167602
     27          6           0        7.409603   -2.087713   -0.068832
     28          6           0       -6.260141    1.583018   -0.415922
     29          6           0        7.077776   -3.498831    0.252742
     30          6           0        6.302472   -1.172030   -0.253115
     31          6           0       -4.848991    1.515874   -0.383484
     32          6           0        4.939796   -1.575863   -0.194045
     33          6           0       -3.960542    2.532281   -0.698737
     34          6           0       -2.629858    2.500847   -0.814122
     35          6           0        3.924711   -0.650162   -0.373194
     36          6           0        2.582703   -0.838181   -0.455708
     37          6           0       -1.859763    3.930335   -0.978716
     38          6           0       -1.769491    1.403499   -0.646588
     39          6           0        1.759100    0.261844   -0.525217
     40          6           0        2.112486   -2.242326   -0.326011
     41          6           0       -0.428161    1.415306   -0.634716
     42          6           0        0.369670    0.290031   -0.586485
     43          1           0      -11.143757    1.512616   -0.209612
     44          1           0      -12.344209   -1.933491    2.575476
     45          1           0      -10.901115   -2.070976    1.330185
     46          1           0      -12.575974   -3.129295    0.190981
     47          1           0       -9.867692    0.054062    2.603819
     48          1           0      -10.528931    1.575326    2.268148
     49          1           0      -11.311101    0.578204    3.401231
     50          1           0      -13.755127    0.576968    0.565211
     51          1           0      -13.434250    0.617491    2.534999
     52          1           0      -12.752400    1.842003    1.332573
     53          1           0       12.472769    2.279615    0.294312
     54          1           0       13.119645    1.834313    1.941540
     55          1           0      -12.802742   -1.965578   -1.791693
     56          1           0       13.571342   -0.431622    1.124295
     57          1           0       -9.510400   -0.991683    0.210248
     58          1           0       13.513679   -0.995528   -1.087119
     59          1           0       13.135859    0.618811   -1.750132
     60          1           0        9.105298    1.701792    1.673524
     61          1           0       10.179157    2.820150    0.203923
     62          1           0       10.377116    2.907914    2.020198
     63          1           0       11.877999   -0.501862    2.690460
     64          1           0       10.194069   -0.118684    3.001396
     65          1           0       11.657995    1.155990    3.278192
     66          1           0      -10.195125    0.224668   -2.497963
     67          1           0      -11.586954    1.287117   -2.621226
     68          1           0      -11.878219   -0.451641   -3.289980
     69          1           0      -14.652002   -2.132547   -0.013674
     70          1           0        8.490162    0.212327    0.277199
     71          1           0       -8.634104    1.853065   -0.376859
     72          1           0       11.855397   -2.385812   -1.962958
     73          1           0       10.127657   -1.356553   -2.371710
     74          1           0       11.762142   -0.903756   -2.828100
     75          1           0       15.189105    1.219958    0.879888
     76          1           0        9.447754   -2.444186   -0.374488
     77          1           0       -5.688159   -1.266052   -0.064917
     78          1           0       -7.160491   -1.468613    0.788751
     79          1           0       -7.164696   -1.631633   -0.812538
     80          1           0       -6.505850    2.699740   -0.467275
     81          1           0        6.718877   -3.792987    1.270928
     82          1           0        6.257272   -3.834590   -0.511346
     83          1           0        8.004430   -4.160232    0.252555
     84          1           0        6.339726   -0.014228    0.005247
     85          1           0       -4.273644    0.621305   -0.108439
     86          1           0        4.657388   -2.616334    0.025970
     87          1           0       -4.474904    3.553553   -0.811052
     88          1           0        4.288404    0.499262   -0.364991
     89          1           0       -1.473572    3.877885   -1.875163
     90          1           0       -1.367565    4.169071   -0.073843
     91          1           0       -2.570689    4.842712   -1.022979
     92          1           0       -2.182063    0.588660   -0.595558
     93          1           0        2.312096    1.240407   -0.530115
     94          1           0        1.838879   -2.216121    0.974054
     95          1           0        1.021407   -2.603935   -0.937393
     96          1           0        2.931594   -3.123280   -0.640053
     97          1           0        0.208476    2.441118   -0.710734
     98          1           0       -0.349751   -0.748582   -0.593540
 ---------------------------------------------------------------------

 SCF Done:  E(RCAM-B3LYP) =  -1706.86959545     A.U. after   15 cycles

 Excitation energies and oscillator strengths:

 Excited State   1:      Singlet-A      1.9269 eV  643.42 nm  f=3.1443  <S**2>=0.000
     155 ->158        -0.13420
     156 ->157         0.70062
     156 <-157        -0.11571
 This state for optimization and/or second-order correction.
 Total Energy, E(TD-HF/TD-DFT) =  -1706.79878155
 Copying the excited state density for this state as the 1-particle RhoCI density.

 The electronic state is 1-A.
 Alpha  occ. eigenvalues --  -19.21106 -19.20250 -10.30653 -10.30640 -10.30442
 Alpha  occ. eigenvalues --  -10.28395 -10.28112 -10.27657 -10.27639 -10.27630
 Alpha  occ. eigenvalues --  -10.27587 -10.27209 -10.27165 -10.26988 -10.26902
 Alpha  occ. eigenvalues --  -10.26893 -10.26848 -10.26763 -10.26756 -10.26663
 Alpha  occ. eigenvalues --  -10.26524 -10.26491 -10.26467 -10.26462 -10.26372
 Alpha  occ. eigenvalues --  -10.26361 -10.26159 -10.26142 -10.26011 -10.25578
 Alpha  occ. eigenvalues --  -10.25566 -10.25515 -10.25354 -10.25116 -10.24983
 Alpha  occ. eigenvalues --  -10.24934 -10.24803 -10.24680 -10.24608 -10.24582
 Alpha  occ. eigenvalues --  -10.23999 -10.22810  -1.10816  -1.08164  -0.94234
 Alpha  occ. eigenvalues --   -0.93589  -0.92796  -0.92129  -0.90829  -0.89935
 Alpha  occ. eigenvalues --   -0.87625  -0.87329  -0.87233  -0.85815  -0.85052
 Alpha  occ. eigenvalues --   -0.83566  -0.82496  -0.80936  -0.80207  -0.78490
 Alpha  occ. eigenvalues --   -0.77280  -0.76516  -0.76257  -0.75415  -0.75112
 Alpha  occ. eigenvalues --   -0.74954  -0.74582  -0.73895  -0.72858  -0.70835
 Alpha  occ. eigenvalues --   -0.69220  -0.68207  -0.66283  -0.65378  -0.64384
 Alpha  occ. eigenvalues --   -0.63621  -0.62351  -0.61562  -0.60637  -0.60173
 Alpha  occ. eigenvalues --   -0.59356  -0.59110  -0.59041  -0.57323  -0.55989
 Alpha  occ. eigenvalues --   -0.55464  -0.55199  -0.54850  -0.54566  -0.54378
 Alpha  occ. eigenvalues --   -0.53992  -0.52638  -0.52199  -0.52093  -0.51565
 Alpha  occ. eigenvalues --   -0.50891  -0.50425  -0.49902  -0.49604  -0.49317
 Alpha  occ. eigenvalues --   -0.48949  -0.48565  -0.48178  -0.47671  -0.47428
 Alpha  occ. eigenvalues --   -0.46942  -0.46637  -0.46569  -0.46119  -0.45913
 Alpha  occ. eigenvalues --   -0.45497  -0.45362  -0.45152  -0.44559  -0.44385
 Alpha  occ. eigenvalues --   -0.43754  -0.43725  -0.43665  -0.43378  -0.43174
 Alpha  occ. eigenvalues --   -0.42989  -0.42684  -0.42400  -0.42234  -0.41931
 Alpha  occ. eigenvalues --   -0.41587  -0.41428  -0.40836  -0.40715  -0.40504
 Alpha  occ. eigenvalues --   -0.40288  -0.39927  -0.39839  -0.39683  -0.39566
 Alpha  occ. eigenvalues --   -0.39301  -0.39016  -0.38369  -0.38259  -0.37928
 Alpha  occ. eigenvalues --   -0.37317  -0.36859  -0.36653  -0.36215  -0.35503
 Alpha  occ. eigenvalues --   -0.35404  -0.34897  -0.34341  -0.32276  -0.31749
 Alpha  occ. eigenvalues --   -0.31582  -0.29804  -0.28529  -0.27670  -0.23884
 Alpha  occ. eigenvalues --   -0.18633
 Alpha virt. eigenvalues --   -0.06802  -0.01006   0.03267   0.05573   0.07453
 Alpha virt. eigenvalues --    0.09237   0.10551   0.11235   0.11671   0.11918
 Alpha virt. eigenvalues --    0.12266   0.12383   0.12808   0.13237   0.13417

 Mulliken charges:
               1
     1  O   -0.556181
     2  O   -0.536334
     3  C    0.014330
     4  C   -0.177697
     5  C   -0.186885
     6  C    0.185264
     7  C    0.209410
     8  C   -0.021431
     9  C   -0.295822
    10  C   -0.274267
    11  C   -0.185878
    12  C   -0.200357
    13  C    0.137661
    14  C    0.066296
    15  C   -0.055064
    16  C   -0.210709
    17  C    0.087638
    18  C   -0.288126
    19  C   -0.274920
    20  C   -0.365247
    21  C   -0.092363
    22  C   -0.123323
    23  C   -0.367323
    24  C    0.150152
    25  C   -0.099667
    26  C   -0.391120
    27  C    0.076900
    28  C   -0.151473
    29  C   -0.367152
    30  C   -0.129198
    31  C   -0.064454
    32  C   -0.088938
    33  C   -0.126271
    34  C    0.050202
    35  C   -0.125264
    36  C    0.176668
    37  C   -0.362732
    38  C   -0.060165
    39  C   -0.148824
    40  C   -0.340385
    41  C   -0.058671
    42  C   -0.089007
    43  H    0.075196
    44  H    0.087344
    45  H    0.104081
    46  H    0.098276
    47  H    0.095043
    48  H    0.108734
    49  H    0.104198
    50  H    0.106494
    51  H    0.097325
    52  H    0.095495
    53  H    0.105895
    54  H    0.069011
    55  H    0.044037
    56  H    0.078940
    57  H    0.083056
    58  H    0.109801
    59  H    0.103342
    60  H    0.083890
    61  H    0.081666
    62  H    0.107954
    63  H    0.117283
    64  H    0.101401
    65  H    0.067589
    66  H    0.098088
    67  H    0.091618
    68  H    0.119239
    69  H    0.298725
    70  H    0.072362
    71  H    0.070405
    72  H    0.103391
    73  H    0.136900
    74  H    0.099445
    75  H    0.296507
    76  H    0.078594
    77  H    0.118583
    78  H    0.090026
    79  H    0.131163
    80  H    0.088457
    81  H    0.125927
    82  H    0.110373
    83  H    0.098657
    84  H    0.087039
    85  H    0.080874
    86  H    0.090662
    87  H    0.070198
    88  H    0.065047
    89  H    0.141000
    90  H    0.135810
    91  H    0.083990
    92  H    0.040205
    93  H    0.086173
    94  H    0.093495
    95  H    0.086919
    96  H    0.101705
    97  H    0.077819
    98  H    0.065279
 Sum of Mulliken charges =  -0.00000

 Dipole moment (field-independent basis, Debye):
    X=              0.2435    Y=             -0.8579    Z=              0.5387  Tot=              1.0419
 Quadrupole moment (field-independent basis, Debye-Ang):
   XX=           -271.4020   YY=           -244.6415   ZZ=           -263.7500
   XY=              0.1971   XZ=             40.6774   YZ=              2.8721

 Normal termination of Gaussian 16 at Mon Jul 15 21:14:10 2019.
