 Gaussian 16, Revision A.03,
 Gaussian 16:  ES64L-G16RevA.03 25-Dec-2016

 -------------------------------------
 # td=(NStates=1) CAM-B3LYP/6-31G(d,p)
 -------------------------------------

 --
 TD
 --
 Symbolic Z-matrix:
 Charge =  0 Multiplicity = 1

                         Standard orientation:
 ---------------------------------------------------------------------
 Center     Atomic      Atomic             Coordinates (Angstroms)
 Number     Number       Type             X           Y           Z
 ---------------------------------------------------------------------
      1          8           0      -13.956161   -2.192076    0.329154
      2          8           0       14.785776    1.036245   -0.113103
      3          6           0      -11.794295    0.050457    1.230748
      4          6           0      -10.993215    0.389611   -0.038674
      5          6           0      -11.989234   -1.450956    1.332344
      6          6           0      -12.577010   -2.147688    0.092189
      7          6           0      -11.538367   -0.408527   -1.268066
      8          6           0       10.987457    1.168952    0.871636
      9          6           0      -11.106670    0.642877    2.518653
     10          6           0      -13.129437    0.803208    1.175417
     11          6           0       12.536390    1.614080    0.494838
     12          6           0      -12.245146   -1.494395   -1.236854
     13          6           0       13.536986    0.470604    0.229176
     14          6           0       10.695500   -0.053636   -0.022164
     15          6           0       -9.536009   -0.011082    0.047829
     16          6           0       12.944801   -0.300753   -0.910330
     17          6           0       11.519936   -0.831902   -0.851171
     18          6           0       10.032344    2.239097    0.645757
     19          6           0       10.888580    0.597476    2.375665
     20          6           0      -11.272574    0.295888   -2.596080
     21          6           0       -8.570538    0.848272   -0.068300
     22          6           0        9.304657   -0.446269    0.073912
     23          6           0       11.227639   -1.799182   -1.885442
     24          6           0       -7.166476    0.491822   -0.125508
     25          6           0        8.825836   -1.731186   -0.012668
     26          6           0       -6.791557   -0.975059   -0.169752
     27          6           0        7.437312   -2.124936    0.101355
     28          6           0       -6.150850    1.513464   -0.236753
     29          6           0        7.125387   -3.570967    0.510143
     30          6           0        6.412374   -1.230193   -0.121721
     31          6           0       -4.813314    1.435016   -0.276665
     32          6           0        5.036279   -1.434452    0.077243
     33          6           0       -3.966543    2.536113   -0.511578
     34          6           0       -2.647222    2.609565   -0.603642
     35          6           0        4.060774   -0.499252   -0.225084
     36          6           0        2.655850   -0.828257   -0.040787
     37          6           0       -2.013732    3.898436   -0.903195
     38          6           0       -1.752774    1.526047   -0.396067
     39          6           0        1.851682    0.326661   -0.103657
     40          6           0        2.144519   -2.153554    0.214849
     41          6           0       -0.401104    1.462738   -0.300990
     42          6           0        0.388819    0.359421   -0.091828
     43          1           0      -11.014302    1.603940   -0.360043
     44          1           0      -12.757416   -1.889660    2.125603
     45          1           0      -10.903612   -2.135537    1.454122
     46          1           0      -12.163877   -3.271184   -0.032101
     47          1           0      -10.107805    0.092196    2.930609
     48          1           0      -10.691770    1.599159    2.450025
     49          1           0      -11.739477    0.499311    3.485383
     50          1           0      -13.985090    0.493544    0.433653
     51          1           0      -13.597546    0.191702    2.156526
     52          1           0      -12.948611    1.851810    1.326323
     53          1           0       12.537126    2.129592   -0.436247
     54          1           0       12.589976    2.253339    1.308200
     55          1           0      -12.207628   -2.039582   -2.190280
     56          1           0       13.624895   -0.146018    1.144387
     57          1           0       -9.013703   -1.070465    0.117107
     58          1           0       13.697578   -1.255999   -1.087176
     59          1           0       13.082958    0.058881   -1.923110
     60          1           0        9.105745    2.146383    1.268122
     61          1           0        9.713345    2.284720   -0.432029
     62          1           0       10.556777    3.338741    0.901145
     63          1           0       11.675018   -0.240812    2.450355
     64          1           0        9.932375   -0.030816    2.428281
     65          1           0       11.058905    1.251243    3.274979
     66          1           0      -10.137422    0.302932   -2.540251
     67          1           0      -11.920382    1.166461   -2.755590
     68          1           0      -11.603260   -0.328347   -3.449939
     69          1           0      -14.506147   -2.489967   -0.453475
     70          1           0        8.476490    0.430514    0.433483
     71          1           0       -9.035269    1.814831   -0.177588
     72          1           0       11.387431   -2.711698   -1.268062
     73          1           0       10.088916   -1.756273   -2.062384
     74          1           0       11.787527   -1.859310   -2.873040
     75          1           0       15.091948    1.560011    0.649044
     76          1           0        9.541947   -2.452240   -0.367402
     77          1           0       -5.726790   -0.959608   -0.200174
     78          1           0       -7.221346   -1.403581    0.837983
     79          1           0       -6.915123   -1.538266   -1.243441
     80          1           0       -6.654240    2.534175   -0.387704
     81          1           0        6.865155   -3.601429    1.587711
     82          1           0        6.242211   -3.795710   -0.223236
     83          1           0        7.777286   -4.309465    0.262633
     84          1           0        6.830874   -0.172923   -0.455475
     85          1           0       -4.266836    0.444853   -0.302124
     86          1           0        4.693927   -2.625482    0.346636
     87          1           0       -4.568595    3.349280   -0.675056
     88          1           0        4.555583    0.451674   -0.293796
     89          1           0       -1.005786    3.745163   -1.511017
     90          1           0       -1.581241    4.451315    0.061869
     91          1           0       -2.642692    4.821559   -1.704019
     92          1           0       -2.151435    0.488295   -0.004342
     93          1           0        2.338999    1.386687   -0.519442
     94          1           0        1.840222   -2.186841    1.427906
     95          1           0        1.199523   -2.613202   -0.350635
     96          1           0        3.088443   -3.072979    0.049297
     97          1           0        0.156171    2.382430   -0.369965
     98          1           0       -0.049195   -0.646054    0.040676
 ---------------------------------------------------------------------

 SCF Done:  E(RCAM-B3LYP) =  -1706.84816952     A.U. after   16 cycles

 Excitation energies and oscillator strengths:

 Excited State   1:      Singlet-A      1.8764 eV  660.75 nm  f=3.0020  <S**2>=0.000
     155 ->158        -0.13591
     156 ->157         0.70016
     156 <-157        -0.11753
 This state for optimization and/or second-order correction.
 Total Energy, E(TD-HF/TD-DFT) =  -1706.77921260
 Copying the excited state density for this state as the 1-particle RhoCI density.

 The electronic state is 1-A.
 Alpha  occ. eigenvalues --  -19.21595 -19.21091 -10.31262 -10.31156 -10.30131
 Alpha  occ. eigenvalues --  -10.28903 -10.28668 -10.28472 -10.28469 -10.28184
 Alpha  occ. eigenvalues --  -10.27992 -10.27960 -10.27700 -10.27304 -10.27276
 Alpha  occ. eigenvalues --  -10.27195 -10.27181 -10.27048 -10.27010 -10.26974
 Alpha  occ. eigenvalues --  -10.26739 -10.26592 -10.26556 -10.26520 -10.26397
 Alpha  occ. eigenvalues --  -10.26392 -10.26304 -10.26252 -10.26180 -10.26178
 Alpha  occ. eigenvalues --  -10.25989 -10.25661 -10.25653 -10.25495 -10.25486
 Alpha  occ. eigenvalues --  -10.25437 -10.25434 -10.25379 -10.24813 -10.24580
 Alpha  occ. eigenvalues --  -10.24368 -10.23905  -1.09937  -1.09111  -0.93607
 Alpha  occ. eigenvalues --   -0.93537  -0.92555  -0.91430  -0.90382  -0.89655
 Alpha  occ. eigenvalues --   -0.87899  -0.87580  -0.86877  -0.85613  -0.84884
 Alpha  occ. eigenvalues --   -0.82857  -0.81928  -0.80482  -0.80158  -0.77493
 Alpha  occ. eigenvalues --   -0.76674  -0.75671  -0.75575  -0.75378  -0.75122
 Alpha  occ. eigenvalues --   -0.74924  -0.74616  -0.73779  -0.71765  -0.69877
 Alpha  occ. eigenvalues --   -0.68897  -0.67013  -0.66214  -0.64496  -0.63548
 Alpha  occ. eigenvalues --   -0.62434  -0.61684  -0.61296  -0.59954  -0.59744
 Alpha  occ. eigenvalues --   -0.59237  -0.58696  -0.57784  -0.57411  -0.56204
 Alpha  occ. eigenvalues --   -0.55586  -0.54847  -0.54316  -0.53728  -0.53524
 Alpha  occ. eigenvalues --   -0.53224  -0.52420  -0.51930  -0.51453  -0.50884
 Alpha  occ. eigenvalues --   -0.50515  -0.50193  -0.49626  -0.49439  -0.49280
 Alpha  occ. eigenvalues --   -0.48839  -0.48639  -0.48511  -0.48186  -0.47545
 Alpha  occ. eigenvalues --   -0.47397  -0.46996  -0.46887  -0.46633  -0.46260
 Alpha  occ. eigenvalues --   -0.46137  -0.45780  -0.45084  -0.44421  -0.44143
 Alpha  occ. eigenvalues --   -0.44104  -0.43493  -0.43229  -0.43013  -0.42937
 Alpha  occ. eigenvalues --   -0.42689  -0.42330  -0.41843  -0.41712  -0.41430
 Alpha  occ. eigenvalues --   -0.41212  -0.40418  -0.40265  -0.39914  -0.39799
 Alpha  occ. eigenvalues --   -0.39474  -0.39271  -0.38920  -0.38898  -0.38620
 Alpha  occ. eigenvalues --   -0.38438  -0.38146  -0.37894  -0.37730  -0.37533
 Alpha  occ. eigenvalues --   -0.37082  -0.36871  -0.36548  -0.36010  -0.35349
 Alpha  occ. eigenvalues --   -0.35013  -0.34274  -0.33831  -0.32024  -0.31825
 Alpha  occ. eigenvalues --   -0.31690  -0.29651  -0.29234  -0.26669  -0.22924
 Alpha  occ. eigenvalues --   -0.18453
 Alpha virt. eigenvalues --   -0.06733  -0.01421   0.02779   0.05839   0.07319
 Alpha virt. eigenvalues --    0.08897   0.09495   0.10874   0.11271   0.11507
 Alpha virt. eigenvalues --    0.11675   0.12191   0.12352   0.12707   0.12932

 Mulliken charges:
               1
     1  O   -0.552535
     2  O   -0.555111
     3  C    0.049058
     4  C   -0.158413
     5  C   -0.182077
     6  C    0.167554
     7  C    0.109374
     8  C    0.008995
     9  C   -0.308665
    10  C   -0.280345
    11  C   -0.201204
    12  C   -0.146665
    13  C    0.176652
    14  C    0.058354
    15  C   -0.060439
    16  C   -0.239129
    17  C    0.070406
    18  C   -0.305448
    19  C   -0.321012
    20  C   -0.350626
    21  C   -0.051460
    22  C   -0.113090
    23  C   -0.383965
    24  C    0.053223
    25  C   -0.123062
    26  C   -0.370715
    27  C    0.064738
    28  C   -0.113723
    29  C   -0.357813
    30  C   -0.112918
    31  C   -0.061329
    32  C   -0.090347
    33  C   -0.125800
    34  C    0.151759
    35  C   -0.102899
    36  C    0.139843
    37  C   -0.367092
    38  C   -0.127248
    39  C   -0.132902
    40  C   -0.361489
    41  C   -0.063725
    42  C   -0.095050
    43  H    0.076970
    44  H    0.118273
    45  H    0.063581
    46  H    0.047740
    47  H    0.076675
    48  H    0.114132
    49  H    0.097267
    50  H    0.114065
    51  H    0.075245
    52  H    0.105179
    53  H    0.109703
    54  H    0.086664
    55  H    0.082949
    56  H    0.082874
    57  H    0.081950
    58  H    0.067893
    59  H    0.128866
    60  H    0.113592
    61  H    0.114291
    62  H    0.075242
    63  H    0.092909
    64  H    0.115808
    65  H    0.101661
    66  H    0.117890
    67  H    0.124241
    68  H    0.096144
    69  H    0.306794
    70  H    0.068439
    71  H    0.065147
    72  H    0.135433
    73  H    0.128391
    74  H    0.123462
    75  H    0.311127
    76  H    0.074564
    77  H    0.116340
    78  H    0.122677
    79  H    0.113341
    80  H    0.078906
    81  H    0.129318
    82  H    0.103486
    83  H    0.116496
    84  H    0.072204
    85  H    0.084587
    86  H    0.063712
    87  H    0.076042
    88  H    0.097188
    89  H    0.109192
    90  H    0.115887
    91  H    0.065144
    92  H    0.069220
    93  H    0.072978
    94  H    0.112996
    95  H    0.123735
    96  H    0.079408
    97  H    0.073876
    98  H    0.074446
 Sum of Mulliken charges =  -0.00000

 Dipole moment (field-independent basis, Debye):
    X=              1.3759    Y=             -0.9647    Z=             -0.5742  Tot=              1.7758
 Quadrupole moment (field-independent basis, Debye-Ang):
   XX=           -260.3089   YY=           -247.2388   ZZ=           -262.7276
   XY=              3.4660   XZ=             35.4241   YZ=              5.1692

 Normal termination of Gaussian 16 at Sat Jul 13 09:01:14 2019.
