 Gaussian 16, Revision A.03,
 Gaussian 16:  ES64L-G16RevA.03 25-Dec-2016

 -------------------------------------
 # td=(NStates=1) CAM-B3LYP/6-31G(d,p)
 -------------------------------------

 --
 TD
 --
 Symbolic Z-matrix:
 Charge =  0 Multiplicity = 1

                         Standard orientation:
 ---------------------------------------------------------------------
 Center     Atomic      Atomic             Coordinates (Angstroms)
 Number     Number       Type             X           Y           Z
 ---------------------------------------------------------------------
      1          8           0      -14.175829   -1.950345    0.496747
      2          8           0       14.812960    0.902921    0.285661
      3          6           0      -11.709745   -0.140094    1.444503
      4          6           0      -10.893996    0.313860    0.079268
      5          6           0      -12.068964   -1.718424    1.418590
      6          6           0      -12.689272   -2.111885    0.156389
      7          6           0      -11.691386   -0.250122   -1.147256
      8          6           0       11.123592    0.883436    1.194759
      9          6           0      -10.823505    0.229083    2.664284
     10          6           0      -13.102758    0.679930    1.527143
     11          6           0       12.633270    1.341492    0.906479
     12          6           0      -12.371001   -1.294058   -1.050186
     13          6           0       13.532690    0.316541    0.528241
     14          6           0       10.743358   -0.035688   -0.038572
     15          6           0       -9.451288   -0.112600    0.015678
     16          6           0       13.065301   -0.236077   -0.877089
     17          6           0       11.603612   -0.573756   -0.946606
     18          6           0       10.209445    2.095508    1.215916
     19          6           0       11.001267    0.198884    2.419092
     20          6           0      -11.526664    0.446972   -2.501655
     21          6           0       -8.548333    0.722811   -0.247266
     22          6           0        9.360056   -0.457410    0.143509
     23          6           0       11.293509   -1.406157   -2.009056
     24          6           0       -7.149092    0.468300   -0.283516
     25          6           0        8.769644   -1.608355   -0.399550
     26          6           0       -6.617351   -0.972592   -0.288813
     27          6           0        7.398120   -2.045272   -0.122120
     28          6           0       -6.257624    1.517510   -0.412048
     29          6           0        7.064813   -3.465657    0.020591
     30          6           0        6.393975   -1.060198   -0.324966
     31          6           0       -4.879356    1.447427   -0.449635
     32          6           0        5.015851   -1.412621   -0.282903
     33          6           0       -4.058993    2.625408   -0.621365
     34          6           0       -2.648301    2.695585   -0.644064
     35          6           0        4.049135   -0.458002   -0.296679
     36          6           0        2.689924   -0.696550   -0.272740
     37          6           0       -1.903738    4.065689   -0.862853
     38          6           0       -1.913635    1.445726   -0.456197
     39          6           0        1.721341    0.339872   -0.390039
     40          6           0        2.127968   -2.114540    0.087306
     41          6           0       -0.491854    1.417555   -0.517064
     42          6           0        0.334045    0.309779   -0.374611
     43          1           0      -11.160450    1.383552    0.172020
     44          1           0      -12.463751   -1.807977    2.490905
     45          1           0      -10.992327   -2.153164    1.553612
     46          1           0      -12.396263   -3.203402   -0.046845
     47          1           0      -10.021660   -0.535084    2.509698
     48          1           0      -10.475028    1.369151    2.872407
     49          1           0      -11.274990   -0.037052    3.584110
     50          1           0      -14.065356    0.504514    0.878777
     51          1           0      -13.469550    0.680013    2.494386
     52          1           0      -12.903278    1.759516    1.482052
     53          1           0       12.818239    2.267715    0.174209
     54          1           0       12.738415    1.863442    1.818210
     55          1           0      -12.866368   -1.533530   -1.975896
     56          1           0       13.551506   -0.405719    1.255449
     57          1           0       -9.082904   -1.126338    0.000764
     58          1           0       13.748212   -1.288698   -0.997698
     59          1           0       13.437421    0.519576   -1.740466
     60          1           0        9.215336    2.025405    1.661120
     61          1           0       10.195681    2.562815    0.203555
     62          1           0       10.977327    2.837823    1.737774
     63          1           0       11.793990   -0.533743    2.552129
     64          1           0       10.039652   -0.429063    2.471761
     65          1           0       11.230891    0.742443    3.292868
     66          1           0      -10.529046    0.791707   -2.807694
     67          1           0      -12.137081    1.443032   -2.582127
     68          1           0      -11.859399   -0.270146   -3.255048
     69          1           0      -14.726276   -2.140011   -0.288463
     70          1           0        8.662455    0.103314    0.629662
     71          1           0       -9.035157    1.670952   -0.106561
     72          1           0       11.576720   -2.479278   -1.682827
     73          1           0       10.237214   -1.343119   -2.314580
     74          1           0       11.953141   -1.236003   -3.087737
     75          1           0       15.154545    1.310920    1.047462
     76          1           0        9.502972   -2.352472   -0.827028
     77          1           0       -5.620458   -1.251005   -0.535201
     78          1           0       -6.752813   -1.367729    0.729875
     79          1           0       -7.314140   -1.770257   -1.012002
     80          1           0       -6.724190    2.536960   -0.481573
     81          1           0        6.718978   -3.403565    1.140579
     82          1           0        6.147914   -3.775801   -0.454913
     83          1           0        7.907664   -3.991707   -0.058580
     84          1           0        6.419864    0.022850   -0.855651
     85          1           0       -4.300844    0.580865   -0.319509
     86          1           0        4.470955   -2.293279   -0.075053
     87          1           0       -4.419516    3.614763   -0.843762
     88          1           0        4.086722    0.520980   -0.660739
     89          1           0       -1.231543    3.852586   -1.732849
     90          1           0       -1.175249    4.280110   -0.065354
     91          1           0       -2.512932    4.841511   -1.017427
     92          1           0       -2.411054    0.347747    0.021702
     93          1           0        2.341746    1.460082   -0.506276
     94          1           0        2.687055   -2.410484    0.818672
     95          1           0        1.074936   -1.994642    0.373997
     96          1           0        2.211781   -2.678225   -0.818925
     97          1           0        0.237324    2.502821   -0.763609
     98          1           0       -0.318438   -0.554138   -0.341993
 ---------------------------------------------------------------------

 SCF Done:  E(RCAM-B3LYP) =  -1706.86821662     A.U. after   16 cycles

 Excitation energies and oscillator strengths:

 Excited State   1:      Singlet-A      1.8535 eV  668.90 nm  f=2.9673  <S**2>=0.000
     155 ->158        -0.13863
     156 ->157         0.69929
     156 <-157        -0.11443
 This state for optimization and/or second-order correction.
 Total Energy, E(TD-HF/TD-DFT) =  -1706.80010006
 Copying the excited state density for this state as the 1-particle RhoCI density.

 The electronic state is 1-A.
 Alpha  occ. eigenvalues --  -19.20702 -19.20400 -10.32034 -10.29465 -10.28791
 Alpha  occ. eigenvalues --  -10.28708 -10.28276 -10.27975 -10.27953 -10.27792
 Alpha  occ. eigenvalues --  -10.27694 -10.27576 -10.27422 -10.27043 -10.27006
 Alpha  occ. eigenvalues --  -10.26796 -10.26758 -10.26527 -10.26490 -10.26470
 Alpha  occ. eigenvalues --  -10.26359 -10.26330 -10.26234 -10.26148 -10.26089
 Alpha  occ. eigenvalues --  -10.25982 -10.25952 -10.25854 -10.25852 -10.25616
 Alpha  occ. eigenvalues --  -10.25492 -10.25392 -10.25336 -10.25287 -10.24634
 Alpha  occ. eigenvalues --  -10.24553 -10.24424 -10.24015 -10.23980 -10.23893
 Alpha  occ. eigenvalues --  -10.23893 -10.23200  -1.09736  -1.06030  -0.94297
 Alpha  occ. eigenvalues --   -0.93233  -0.92109  -0.91390  -0.90368  -0.89771
 Alpha  occ. eigenvalues --   -0.88864  -0.87385  -0.86370  -0.85842  -0.85196
 Alpha  occ. eigenvalues --   -0.82971  -0.82232  -0.81400  -0.80541  -0.78158
 Alpha  occ. eigenvalues --   -0.77031  -0.76828  -0.76448  -0.76000  -0.75799
 Alpha  occ. eigenvalues --   -0.75046  -0.74678  -0.74485  -0.72509  -0.70868
 Alpha  occ. eigenvalues --   -0.68984  -0.67851  -0.66368  -0.64958  -0.63331
 Alpha  occ. eigenvalues --   -0.63099  -0.61661  -0.61146  -0.60751  -0.60728
 Alpha  occ. eigenvalues --   -0.59836  -0.58791  -0.57709  -0.57015  -0.56335
 Alpha  occ. eigenvalues --   -0.55699  -0.54939  -0.54626  -0.54101  -0.53514
 Alpha  occ. eigenvalues --   -0.53281  -0.52791  -0.52178  -0.51643  -0.51095
 Alpha  occ. eigenvalues --   -0.50789  -0.50592  -0.49726  -0.49513  -0.49306
 Alpha  occ. eigenvalues --   -0.49132  -0.48425  -0.48284  -0.48200  -0.47700
 Alpha  occ. eigenvalues --   -0.47315  -0.47073  -0.47029  -0.46782  -0.46610
 Alpha  occ. eigenvalues --   -0.46331  -0.45689  -0.45103  -0.44943  -0.44853
 Alpha  occ. eigenvalues --   -0.43955  -0.43861  -0.43575  -0.43250  -0.43013
 Alpha  occ. eigenvalues --   -0.42956  -0.42585  -0.42289  -0.41893  -0.41730
 Alpha  occ. eigenvalues --   -0.41556  -0.40973  -0.40901  -0.40784  -0.40308
 Alpha  occ. eigenvalues --   -0.40256  -0.39679  -0.39507  -0.39456  -0.39217
 Alpha  occ. eigenvalues --   -0.38816  -0.38116  -0.37901  -0.37822  -0.37410
 Alpha  occ. eigenvalues --   -0.37098  -0.36879  -0.36569  -0.35906  -0.35524
 Alpha  occ. eigenvalues --   -0.35227  -0.33901  -0.33511  -0.32197  -0.32123
 Alpha  occ. eigenvalues --   -0.31561  -0.31090  -0.29238  -0.26467  -0.23133
 Alpha  occ. eigenvalues --   -0.18329
 Alpha virt. eigenvalues --   -0.06598  -0.01242   0.02907   0.05914   0.07741
 Alpha virt. eigenvalues --    0.08764   0.09732   0.11402   0.11854   0.12489
 Alpha virt. eigenvalues --    0.12881   0.13005   0.13647   0.13706   0.14076

 Mulliken charges:
               1
     1  O   -0.558820
     2  O   -0.560506
     3  C   -0.006670
     4  C   -0.159784
     5  C   -0.165113
     6  C    0.132184
     7  C    0.146255
     8  C   -0.017826
     9  C   -0.304099
    10  C   -0.310995
    11  C   -0.206243
    12  C   -0.115778
    13  C    0.183476
    14  C    0.079996
    15  C   -0.068710
    16  C   -0.217235
    17  C    0.111170
    18  C   -0.296088
    19  C   -0.296966
    20  C   -0.369255
    21  C   -0.055862
    22  C   -0.101024
    23  C   -0.390056
    24  C    0.099143
    25  C   -0.139151
    26  C   -0.377681
    27  C    0.032081
    28  C   -0.114506
    29  C   -0.342126
    30  C   -0.116508
    31  C   -0.050500
    32  C   -0.080560
    33  C   -0.121504
    34  C    0.064175
    35  C   -0.088697
    36  C    0.062147
    37  C   -0.356614
    38  C   -0.139294
    39  C   -0.127773
    40  C   -0.364639
    41  C   -0.068608
    42  C   -0.086650
    43  H    0.100643
    44  H    0.123853
    45  H    0.071864
    46  H    0.091355
    47  H    0.101122
    48  H    0.090796
    49  H    0.105505
    50  H    0.114200
    51  H    0.102972
    52  H    0.075349
    53  H    0.087444
    54  H    0.078234
    55  H    0.067564
    56  H    0.090247
    57  H    0.074027
    58  H    0.072478
    59  H    0.113970
    60  H    0.114917
    61  H    0.109811
    62  H    0.076595
    63  H    0.093170
    64  H    0.111705
    65  H    0.106296
    66  H    0.123276
    67  H    0.102843
    68  H    0.107315
    69  H    0.297877
    70  H    0.083747
    71  H    0.075436
    72  H    0.113961
    73  H    0.132377
    74  H    0.078689
    75  H    0.296275
    76  H    0.082599
    77  H    0.125161
    78  H    0.126353
    79  H    0.082876
    80  H    0.083864
    81  H    0.119960
    82  H    0.136038
    83  H    0.119713
    84  H    0.102227
    85  H    0.076857
    86  H    0.072085
    87  H    0.071358
    88  H    0.064804
    89  H    0.130851
    90  H    0.133373
    91  H    0.116179
    92  H    0.082668
    93  H    0.051167
    94  H    0.129293
    95  H    0.108150
    96  H    0.125062
    97  H    0.051997
    98  H    0.086668
 Sum of Mulliken charges =  -0.00000

 Dipole moment (field-independent basis, Debye):
    X=              0.2282    Y=             -0.9290    Z=              0.3661  Tot=              1.0242
 Quadrupole moment (field-independent basis, Debye-Ang):
   XX=           -275.2633   YY=           -243.4729   ZZ=           -260.6347
   XY=             -2.7072   XZ=             39.4088   YZ=              2.8438

 Normal termination of Gaussian 16 at Sat Jul 13 09:28:03 2019.
