 Gaussian 16, Revision A.03,
 Gaussian 16:  ES64L-G16RevA.03 25-Dec-2016

 -------------------------------------
 # td=(NStates=1) CAM-B3LYP/6-31G(d,p)
 -------------------------------------

 --
 TD
 --
 Symbolic Z-matrix:
 Charge =  0 Multiplicity = 1

                         Standard orientation:
 ---------------------------------------------------------------------
 Center     Atomic      Atomic             Coordinates (Angstroms)
 Number     Number       Type             X           Y           Z
 ---------------------------------------------------------------------
      1          8           0      -14.147915   -1.772926    0.778662
      2          8           0       14.754961    1.043011    0.201723
      3          6           0      -11.814173    0.232177    1.217338
      4          6           0      -11.051334    0.299168   -0.155007
      5          6           0      -12.144235   -1.315755    1.623147
      6          6           0      -12.753170   -2.052954    0.566699
      7          6           0      -11.594043   -0.605779   -1.165166
      8          6           0       11.080036    1.020018    1.166814
      9          6           0      -10.959687    0.970484    2.293944
     10          6           0      -13.157413    0.994071    1.076755
     11          6           0       12.457719    1.600341    0.730505
     12          6           0      -12.351684   -1.656226   -0.816881
     13          6           0       13.465983    0.533329    0.332325
     14          6           0       10.744790   -0.102772    0.028224
     15          6           0       -9.542104   -0.096544   -0.039818
     16          6           0       13.083241   -0.202763   -0.855162
     17          6           0       11.570982   -0.578052   -0.967002
     18          6           0       10.037518    2.171159    1.038269
     19          6           0       10.994938    0.386788    2.515492
     20          6           0      -11.278449   -0.364183   -2.630860
     21          6           0       -8.535027    0.767382   -0.347841
     22          6           0        9.254647   -0.400518    0.104094
     23          6           0       11.161662   -1.457636   -2.089134
     24          6           0       -7.111428    0.538384   -0.257708
     25          6           0        8.807364   -1.678208   -0.149618
     26          6           0       -6.671623   -0.890916    0.238320
     27          6           0        7.430864   -2.140823    0.001024
     28          6           0       -6.162965    1.449434   -0.701331
     29          6           0        7.139862   -3.574875    0.173905
     30          6           0        6.382183   -1.296704   -0.148217
     31          6           0       -4.799411    1.442873   -0.546914
     32          6           0        5.015808   -1.606858   -0.076576
     33          6           0       -3.894240    2.548630   -0.784201
     34          6           0       -2.497387    2.598722   -0.770522
     35          6           0        3.947885   -0.711722   -0.318983
     36          6           0        2.669246   -0.821252   -0.044936
     37          6           0       -1.724708    3.876767   -0.984535
     38          6           0       -1.815686    1.404727   -0.531615
     39          6           0        1.820804    0.176858   -0.300121
     40          6           0        2.139808   -2.205333    0.307579
     41          6           0       -0.363867    1.319793   -0.644317
     42          6           0        0.384530    0.236070   -0.340305
     43          1           0      -10.832495    1.332261   -0.510888
     44          1           0      -12.701135   -1.229987    2.622233
     45          1           0      -11.150270   -1.632733    1.954096
     46          1           0      -12.535909   -3.295580    0.573027
     47          1           0      -10.095451    0.387262    2.565723
     48          1           0      -10.483154    1.974156    1.948967
     49          1           0      -11.573544    1.090383    3.259212
     50          1           0      -13.836792    0.723801    0.240776
     51          1           0      -13.724798    1.124781    2.012154
     52          1           0      -12.867374    2.095607    1.264220
     53          1           0       12.237402    2.415293   -0.198369
     54          1           0       12.612732    2.252824    1.724046
     55          1           0      -12.604151   -2.377073   -1.677964
     56          1           0       13.566480   -0.237811    1.154859
     57          1           0       -9.315775   -0.950283    0.463074
     58          1           0       13.755024   -1.099630   -1.046010
     59          1           0       13.315686    0.415953   -1.798271
     60          1           0        9.040654    2.031337    1.137260
     61          1           0        9.739351    2.654993    0.062945
     62          1           0       10.377714    3.071388    1.615634
     63          1           0       11.539113   -0.635782    2.575516
     64          1           0        9.939212    0.103390    2.958247
     65          1           0       11.454055    1.116313    3.151880
     66          1           0      -10.079604   -0.465785   -2.643951
     67          1           0      -11.850926    0.735789   -2.629271
     68          1           0      -11.735286   -1.128942   -3.381689
     69          1           0      -14.467870   -2.185512    0.012830
     70          1           0        8.597576    0.353694    0.479860
     71          1           0       -8.849262    1.759198   -0.861404
     72          1           0       11.323697   -2.514851   -1.791584
     73          1           0       10.082842   -1.227785   -2.312069
     74          1           0       11.907721   -1.263819   -2.912360
     75          1           0       14.853763    1.681500    0.898028
     76          1           0        9.417816   -2.513308   -0.533080
     77          1           0       -5.553469   -0.961016    0.548273
     78          1           0       -7.298796   -1.358334    1.080898
     79          1           0       -6.888846   -1.561831   -0.690489
     80          1           0       -6.518912    2.461687   -0.994290
     81          1           0        6.784498   -3.764851    1.310580
     82          1           0        6.362224   -4.015073   -0.506774
     83          1           0        8.174632   -4.249139    0.216656
     84          1           0        6.729629   -0.328887   -0.270137
     85          1           0       -4.316022    0.538183   -0.424141
     86          1           0        4.944366   -2.565761    0.320333
     87          1           0       -4.162703    3.599849   -1.087031
     88          1           0        4.318899    0.382674   -0.703560
     89          1           0       -1.156872    3.741123   -1.947221
     90          1           0       -1.032755    4.084369   -0.127246
     91          1           0       -2.455798    4.671616   -0.920488
     92          1           0       -2.129918    0.457273   -0.013022
     93          1           0        2.114551    1.286180   -0.729005
     94          1           0        2.687427   -2.599396    1.210251
     95          1           0        0.969608   -2.300589    0.408023
     96          1           0        2.257163   -2.690682   -0.589240
     97          1           0        0.303074    2.273744   -0.666498
     98          1           0       -0.248796   -0.666672   -0.132611
 ---------------------------------------------------------------------

 SCF Done:  E(RCAM-B3LYP) =  -1706.97188673     A.U. after   15 cycles

 Excitation energies and oscillator strengths:

 Excited State   1:      Singlet-A      2.0601 eV  601.83 nm  f=3.0661  <S**2>=0.000
     155 ->158        -0.15448
     156 ->157         0.69095
 This state for optimization and/or second-order correction.
 Total Energy, E(TD-HF/TD-DFT) =  -1706.89617847
 Copying the excited state density for this state as the 1-particle RhoCI density.

 The electronic state is 1-A.
 Alpha  occ. eigenvalues --  -19.20720 -19.20671 -10.31612 -10.30551 -10.28793
 Alpha  occ. eigenvalues --  -10.28437 -10.28410 -10.28045 -10.27929 -10.27859
 Alpha  occ. eigenvalues --  -10.27834 -10.27546 -10.27338 -10.27334 -10.27158
 Alpha  occ. eigenvalues --  -10.26976 -10.26962 -10.26928 -10.26925 -10.26743
 Alpha  occ. eigenvalues --  -10.26742 -10.26697 -10.26569 -10.26508 -10.26450
 Alpha  occ. eigenvalues --  -10.26443 -10.26398 -10.26370 -10.26319 -10.26288
 Alpha  occ. eigenvalues --  -10.26125 -10.26040 -10.26015 -10.26011 -10.26000
 Alpha  occ. eigenvalues --  -10.25856 -10.25438 -10.25081 -10.24933 -10.24877
 Alpha  occ. eigenvalues --  -10.24128 -10.23808  -1.10765  -1.10628  -0.93548
 Alpha  occ. eigenvalues --   -0.93220  -0.92708  -0.91876  -0.90952  -0.90066
 Alpha  occ. eigenvalues --   -0.87304  -0.87129  -0.86203  -0.85542  -0.84916
 Alpha  occ. eigenvalues --   -0.82938  -0.82316  -0.80123  -0.79881  -0.78170
 Alpha  occ. eigenvalues --   -0.77366  -0.76494  -0.76101  -0.75488  -0.75158
 Alpha  occ. eigenvalues --   -0.75142  -0.74757  -0.74442  -0.73062  -0.70930
 Alpha  occ. eigenvalues --   -0.69274  -0.66935  -0.66473  -0.65202  -0.64062
 Alpha  occ. eigenvalues --   -0.63360  -0.62546  -0.61656  -0.60787  -0.59813
 Alpha  occ. eigenvalues --   -0.59215  -0.58719  -0.58067  -0.57238  -0.56657
 Alpha  occ. eigenvalues --   -0.55960  -0.54668  -0.54391  -0.53962  -0.53078
 Alpha  occ. eigenvalues --   -0.52557  -0.52418  -0.52000  -0.51597  -0.51049
 Alpha  occ. eigenvalues --   -0.50828  -0.50688  -0.49959  -0.49898  -0.49618
 Alpha  occ. eigenvalues --   -0.49211  -0.48855  -0.48463  -0.48296  -0.48105
 Alpha  occ. eigenvalues --   -0.47830  -0.47208  -0.47072  -0.46886  -0.46277
 Alpha  occ. eigenvalues --   -0.45805  -0.45285  -0.45141  -0.44940  -0.44765
 Alpha  occ. eigenvalues --   -0.44628  -0.44214  -0.43909  -0.43493  -0.43137
 Alpha  occ. eigenvalues --   -0.42786  -0.42648  -0.42196  -0.41685  -0.41591
 Alpha  occ. eigenvalues --   -0.41502  -0.41210  -0.41084  -0.40885  -0.40565
 Alpha  occ. eigenvalues --   -0.39987  -0.39885  -0.39777  -0.39514  -0.39405
 Alpha  occ. eigenvalues --   -0.39195  -0.38631  -0.38560  -0.38217  -0.38188
 Alpha  occ. eigenvalues --   -0.37459  -0.37274  -0.37029  -0.36893  -0.35739
 Alpha  occ. eigenvalues --   -0.34804  -0.34550  -0.33708  -0.32065  -0.31685
 Alpha  occ. eigenvalues --   -0.31227  -0.29726  -0.28964  -0.26998  -0.23267
 Alpha  occ. eigenvalues --   -0.19500
 Alpha virt. eigenvalues --   -0.06415  -0.01825   0.03074   0.05328   0.07076
 Alpha virt. eigenvalues --    0.09321   0.11384   0.11443   0.11786   0.11811
 Alpha virt. eigenvalues --    0.12677   0.13220   0.13271   0.13556   0.13726

 Mulliken charges:
               1
     1  O   -0.513694
     2  O   -0.554970
     3  C    0.022988
     4  C   -0.131803
     5  C   -0.173315
     6  C    0.139845
     7  C    0.133927
     8  C    0.001409
     9  C   -0.319784
    10  C   -0.283486
    11  C   -0.209360
    12  C   -0.163941
    13  C    0.203685
    14  C    0.030742
    15  C   -0.096672
    16  C   -0.224744
    17  C    0.060788
    18  C   -0.322351
    19  C   -0.285775
    20  C   -0.324344
    21  C   -0.094429
    22  C   -0.117752
    23  C   -0.366689
    24  C    0.099999
    25  C   -0.109138
    26  C   -0.368569
    27  C    0.095479
    28  C   -0.118012
    29  C   -0.390860
    30  C   -0.084208
    31  C   -0.070392
    32  C   -0.096038
    33  C   -0.107630
    34  C    0.066969
    35  C   -0.123146
    36  C    0.140941
    37  C   -0.357933
    38  C   -0.122696
    39  C   -0.139525
    40  C   -0.365095
    41  C   -0.094673
    42  C   -0.077751
    43  H    0.091569
    44  H    0.113881
    45  H    0.086492
    46  H    0.046688
    47  H    0.105279
    48  H    0.102512
    49  H    0.092242
    50  H    0.117158
    51  H    0.096838
    52  H    0.069715
    53  H    0.092609
    54  H    0.064959
    55  H    0.068720
    56  H    0.072994
    57  H    0.083528
    58  H    0.107896
    59  H    0.102695
    60  H    0.113915
    61  H    0.097276
    62  H    0.094554
    63  H    0.105939
    64  H    0.106622
    65  H    0.099495
    66  H    0.116164
    67  H    0.103614
    68  H    0.106622
    69  H    0.293269
    70  H    0.090964
    71  H    0.077999
    72  H    0.120954
    73  H    0.131124
    74  H    0.102925
    75  H    0.304276
    76  H    0.091926
    77  H    0.105344
    78  H    0.112940
    79  H    0.119654
    80  H    0.080915
    81  H    0.107721
    82  H    0.131088
    83  H    0.084034
    84  H    0.057991
    85  H    0.082828
    86  H    0.079579
    87  H    0.063674
    88  H    0.073402
    89  H    0.136303
    90  H    0.130330
    91  H    0.109056
    92  H    0.098868
    93  H    0.064840
    94  H    0.119774
    95  H    0.095948
    96  H    0.144888
    97  H    0.072153
    98  H    0.067260
 Sum of Mulliken charges =  -0.00000

 Dipole moment (field-independent basis, Debye):
    X=              0.7784    Y=             -0.2887    Z=              0.2587  Tot=              0.8696
 Quadrupole moment (field-independent basis, Debye-Ang):
   XX=           -310.8667   YY=           -243.6253   ZZ=           -262.9677
   XY=              8.4356   XZ=             30.0830   YZ=              3.4358

 Normal termination of Gaussian 16 at Sat Jul 13 10:04:15 2019.
