 Gaussian 16, Revision A.03,
 Gaussian 16:  ES64L-G16RevA.03 25-Dec-2016

 -------------------------------------
 # td=(NStates=1) CAM-B3LYP/6-31G(d,p)
 -------------------------------------

 --
 TD
 --
 Symbolic Z-matrix:
 Charge =  0 Multiplicity = 1

                         Standard orientation:
 ---------------------------------------------------------------------
 Center     Atomic      Atomic             Coordinates (Angstroms)
 Number     Number       Type             X           Y           Z
 ---------------------------------------------------------------------
      1          8           0      -14.242273   -1.950642    0.610619
      2          8           0       14.839288    1.135248    0.201939
      3          6           0      -11.756729    0.186843    1.416691
      4          6           0      -10.988355    0.364617    0.050577
      5          6           0      -12.108774   -1.382549    1.495434
      6          6           0      -12.756942   -2.013213    0.333479
      7          6           0      -11.640710   -0.300807   -1.106856
      8          6           0       11.072276    1.019148    1.227193
      9          6           0      -10.814400    0.643243    2.464843
     10          6           0      -13.046850    0.955050    1.433198
     11          6           0       12.477536    1.617461    0.907620
     12          6           0      -12.492979   -1.347911   -1.002547
     13          6           0       13.487955    0.577002    0.362953
     14          6           0       10.727179   -0.010596    0.134922
     15          6           0       -9.551707   -0.068859    0.174371
     16          6           0       12.991305   -0.011474   -0.939141
     17          6           0       11.553690   -0.454073   -0.939354
     18          6           0       10.133971    2.259581    1.238816
     19          6           0       11.055766    0.258190    2.530180
     20          6           0      -11.370175    0.331435   -2.424930
     21          6           0       -8.526467    0.729780   -0.198787
     22          6           0        9.343310   -0.485203    0.178238
     23          6           0       11.056467   -1.251663   -2.099325
     24          6           0       -7.149407    0.458306   -0.243307
     25          6           0        8.884433   -1.688147   -0.014942
     26          6           0       -6.717135   -0.887618    0.079649
     27          6           0        7.456070   -2.174727   -0.014374
     28          6           0       -6.230741    1.407616   -0.504388
     29          6           0        7.233149   -3.620641   -0.032246
     30          6           0        6.477533   -1.258955   -0.159078
     31          6           0       -4.849593    1.266039   -0.536490
     32          6           0        5.054130   -1.640703   -0.170608
     33          6           0       -3.990900    2.401749   -0.851461
     34          6           0       -2.622451    2.437437   -0.921144
     35          6           0        4.125259   -0.731748   -0.338686
     36          6           0        2.701686   -0.937428   -0.325029
     37          6           0       -2.003192    3.807406   -1.022321
     38          6           0       -1.835636    1.287926   -0.616104
     39          6           0        1.821282    0.141862   -0.451090
     40          6           0        2.202380   -2.276656    0.129285
     41          6           0       -0.396435    1.275584   -0.749363
     42          6           0        0.400341    0.059395   -0.569373
     43          1           0      -11.033488    1.338974   -0.069672
     44          1           0      -12.580877   -1.614015    2.435146
     45          1           0      -11.040715   -1.946563    1.366195
     46          1           0      -12.614732   -3.072190    0.264718
     47          1           0       -9.993861   -0.019328    2.748581
     48          1           0      -10.654953    1.757458    2.335126
     49          1           0      -11.384764    0.768106    3.480610
     50          1           0      -13.626581    1.154990    0.369399
     51          1           0      -13.744427    0.725818    2.156449
     52          1           0      -12.888740    2.148023    1.408814
     53          1           0       12.359357    2.356350    0.010404
     54          1           0       12.919264    2.171441    1.714329
     55          1           0      -12.618239   -1.739324   -1.876444
     56          1           0       13.481828   -0.249501    1.173238
     57          1           0       -9.292313   -0.961325    0.264579
     58          1           0       13.790149   -0.784242   -1.251032
     59          1           0       13.080635    0.745613   -1.683120
     60          1           0        9.199797    1.794339    1.745951
     61          1           0        9.947557    2.561319    0.191078
     62          1           0       10.347285    3.085674    1.855089
     63          1           0       11.876545   -0.501427    2.759012
     64          1           0        9.875100   -0.155790    2.680943
     65          1           0       11.326521    1.006070    3.256124
     66          1           0      -10.242098    0.278059   -2.621202
     67          1           0      -11.770745    1.418700   -2.486778
     68          1           0      -11.956225   -0.339026   -3.187886
     69          1           0      -14.723718   -2.618033    0.036214
     70          1           0        8.707140    0.261867    0.732702
     71          1           0       -8.647601    1.742513   -0.596357
     72          1           0       11.335657   -2.183336   -1.918325
     73          1           0        9.913184   -1.181287   -2.125897
     74          1           0       11.534369   -0.884455   -3.079598
     75          1           0       15.120197    1.695323    1.094093
     76          1           0        9.425858   -2.495327   -0.340792
     77          1           0       -5.631472   -0.854992    0.104964
     78          1           0       -7.071120   -1.158508    1.109348
     79          1           0       -7.404592   -1.624070   -0.490527
     80          1           0       -6.762886    2.329238   -0.649233
     81          1           0        6.855434   -3.897404    1.045742
     82          1           0        6.544061   -3.917575   -0.801369
     83          1           0        8.179592   -4.272563   -0.221162
     84          1           0        6.709851   -0.407076   -0.246148
     85          1           0       -4.428236    0.296301   -0.567215
     86          1           0        4.908640   -2.670198   -0.043425
     87          1           0       -4.491930    3.512757   -0.931338
     88          1           0        4.481369    0.365264   -0.245980
     89          1           0       -1.251593    3.822271   -1.880247
     90          1           0       -1.170077    3.865346   -0.159094
     91          1           0       -2.676291    4.612261   -0.949517
     92          1           0       -2.205607    0.345973   -0.307431
     93          1           0        2.363184    1.074167   -0.785136
     94          1           0        2.702584   -2.581359    0.999972
     95          1           0        1.173091   -2.314917    0.145070
     96          1           0        2.383408   -3.098219   -0.634335
     97          1           0        0.166896    2.152647   -0.894070
     98          1           0       -0.013624   -0.977858   -0.500038
 ---------------------------------------------------------------------

 SCF Done:  E(RCAM-B3LYP) =  -1706.95806820     A.U. after   15 cycles

 Excitation energies and oscillator strengths:

 Excited State   1:      Singlet-A      2.0178 eV  614.47 nm  f=2.6989  <S**2>=0.000
     155 ->158        -0.11636
     156 ->157         0.70301
     156 <-157        -0.11667
 This state for optimization and/or second-order correction.
 Total Energy, E(TD-HF/TD-DFT) =  -1706.88391703
 Copying the excited state density for this state as the 1-particle RhoCI density.

 The electronic state is 1-A.
 Alpha  occ. eigenvalues --  -19.21970 -19.19184 -10.30860 -10.30382 -10.28035
 Alpha  occ. eigenvalues --  -10.27875 -10.27827 -10.27497 -10.27399 -10.27292
 Alpha  occ. eigenvalues --  -10.27205 -10.26962 -10.26923 -10.26713 -10.26710
 Alpha  occ. eigenvalues --  -10.26632 -10.26520 -10.26515 -10.26417 -10.26345
 Alpha  occ. eigenvalues --  -10.26261 -10.26034 -10.25930 -10.25811 -10.25684
 Alpha  occ. eigenvalues --  -10.25607 -10.25484 -10.25476 -10.25342 -10.25305
 Alpha  occ. eigenvalues --  -10.25236 -10.25213 -10.25199 -10.24931 -10.24919
 Alpha  occ. eigenvalues --  -10.24815 -10.24807 -10.24733 -10.24657 -10.24537
 Alpha  occ. eigenvalues --  -10.23505 -10.23120  -1.05744  -1.04854  -0.94157
 Alpha  occ. eigenvalues --   -0.93435  -0.92540  -0.92057  -0.90889  -0.90170
 Alpha  occ. eigenvalues --   -0.87420  -0.87053  -0.86650  -0.85873  -0.84768
 Alpha  occ. eigenvalues --   -0.83202  -0.82394  -0.80677  -0.80521  -0.78431
 Alpha  occ. eigenvalues --   -0.76961  -0.76833  -0.76354  -0.76114  -0.75965
 Alpha  occ. eigenvalues --   -0.75095  -0.75025  -0.74812  -0.73125  -0.71374
 Alpha  occ. eigenvalues --   -0.68310  -0.67311  -0.66554  -0.64788  -0.64329
 Alpha  occ. eigenvalues --   -0.63928  -0.62691  -0.62241  -0.61364  -0.60158
 Alpha  occ. eigenvalues --   -0.59446  -0.58357  -0.57560  -0.57095  -0.56207
 Alpha  occ. eigenvalues --   -0.55590  -0.55259  -0.54757  -0.54112  -0.53775
 Alpha  occ. eigenvalues --   -0.53671  -0.53378  -0.52634  -0.52133  -0.51213
 Alpha  occ. eigenvalues --   -0.50955  -0.50526  -0.50136  -0.49924  -0.49613
 Alpha  occ. eigenvalues --   -0.49340  -0.49067  -0.49052  -0.48232  -0.47649
 Alpha  occ. eigenvalues --   -0.47421  -0.47100  -0.46952  -0.46280  -0.46078
 Alpha  occ. eigenvalues --   -0.45864  -0.45760  -0.45570  -0.45365  -0.45229
 Alpha  occ. eigenvalues --   -0.44982  -0.44410  -0.44159  -0.43952  -0.43500
 Alpha  occ. eigenvalues --   -0.43457  -0.43328  -0.42999  -0.42713  -0.42462
 Alpha  occ. eigenvalues --   -0.42290  -0.41601  -0.41523  -0.41213  -0.40766
 Alpha  occ. eigenvalues --   -0.40300  -0.40146  -0.39402  -0.39141  -0.38848
 Alpha  occ. eigenvalues --   -0.38694  -0.38517  -0.38419  -0.38266  -0.37942
 Alpha  occ. eigenvalues --   -0.37593  -0.37391  -0.36536  -0.35606  -0.35235
 Alpha  occ. eigenvalues --   -0.34863  -0.34734  -0.33768  -0.31614  -0.31363
 Alpha  occ. eigenvalues --   -0.30966  -0.29120  -0.28736  -0.26411  -0.23736
 Alpha  occ. eigenvalues --   -0.19071
 Alpha virt. eigenvalues --   -0.06381  -0.00564   0.02646   0.05341   0.07094
 Alpha virt. eigenvalues --    0.08724   0.09835   0.11139   0.11843   0.12199
 Alpha virt. eigenvalues --    0.12916   0.13547   0.13667   0.13912   0.14165

 Mulliken charges:
               1
     1  O   -0.581802
     2  O   -0.581066
     3  C    0.051600
     4  C   -0.108026
     5  C   -0.183196
     6  C    0.134461
     7  C    0.092869
     8  C   -0.029053
     9  C   -0.299981
    10  C   -0.293684
    11  C   -0.189992
    12  C   -0.066754
    13  C    0.181051
    14  C    0.064291
    15  C   -0.054746
    16  C   -0.227661
    17  C    0.048215
    18  C   -0.296000
    19  C   -0.280256
    20  C   -0.347000
    21  C   -0.094141
    22  C   -0.132074
    23  C   -0.359798
    24  C    0.137872
    25  C   -0.078194
    26  C   -0.384066
    27  C    0.062379
    28  C   -0.093421
    29  C   -0.387723
    30  C   -0.029436
    31  C   -0.109863
    32  C   -0.075646
    33  C   -0.137160
    34  C    0.121640
    35  C   -0.121265
    36  C    0.097194
    37  C   -0.375711
    38  C   -0.107503
    39  C   -0.123613
    40  C   -0.365241
    41  C   -0.095850
    42  C   -0.103874
    43  H    0.081828
    44  H    0.115994
    45  H    0.063515
    46  H    0.090336
    47  H    0.114337
    48  H    0.104042
    49  H    0.074237
    50  H    0.091851
    51  H    0.125890
    52  H    0.060204
    53  H    0.085341
    54  H    0.074644
    55  H    0.057094
    56  H    0.065236
    57  H    0.050254
    58  H    0.105210
    59  H    0.123763
    60  H    0.082870
    61  H    0.117750
    62  H    0.116421
    63  H    0.107468
    64  H    0.086010
    65  H    0.096618
    66  H    0.116585
    67  H    0.111194
    68  H    0.090403
    69  H    0.293862
    70  H    0.075414
    71  H    0.061945
    72  H    0.136642
    73  H    0.123019
    74  H    0.099681
    75  H    0.307760
    76  H    0.072091
    77  H    0.101556
    78  H    0.116725
    79  H    0.110435
    80  H    0.070637
    81  H    0.117305
    82  H    0.133156
    83  H    0.101683
    84  H    0.021790
    85  H    0.103746
    86  H    0.080850
    87  H    0.069229
    88  H    0.080039
    89  H    0.121193
    90  H    0.110071
    91  H    0.121277
    92  H    0.086209
    93  H    0.079758
    94  H    0.132000
    95  H    0.107030
    96  H    0.104505
    97  H    0.083613
    98  H    0.089915
 Sum of Mulliken charges =  -0.00000

 Dipole moment (field-independent basis, Debye):
    X=              1.3471    Y=             -0.8623    Z=              0.3310  Tot=              1.6333
 Quadrupole moment (field-independent basis, Debye-Ang):
   XX=           -297.1699   YY=           -237.8801   ZZ=           -262.6001
   XY=             12.6371   XZ=             31.9236   YZ=              4.0724

 Normal termination of Gaussian 16 at Mon Jul 15 12:20:03 2019.
