 Gaussian 16, Revision A.03,
 Gaussian 16:  ES64L-G16RevA.03 25-Dec-2016

 -------------------------------------
 # td=(NStates=1) CAM-B3LYP/6-31G(d,p)
 -------------------------------------

 --
 TD
 --
 Symbolic Z-matrix:
 Charge =  0 Multiplicity = 1

                         Standard orientation:
 ---------------------------------------------------------------------
 Center     Atomic      Atomic             Coordinates (Angstroms)
 Number     Number       Type             X           Y           Z
 ---------------------------------------------------------------------
      1          8           0      -14.125250   -2.079518    0.520686
      2          8           0       14.820029    0.774578    0.280610
      3          6           0      -11.739802    0.017869    1.340982
      4          6           0      -11.004317    0.335867   -0.021668
      5          6           0      -11.955750   -1.534387    1.392151
      6          6           0      -12.711310   -2.176579    0.309109
      7          6           0      -11.693530   -0.329247   -1.176632
      8          6           0       11.142909    0.904327    1.083316
      9          6           0      -10.987408    0.565908    2.549560
     10          6           0      -13.105803    0.835749    1.271844
     11          6           0       12.528723    1.488847    0.951401
     12          6           0      -12.388191   -1.429961   -1.037385
     13          6           0       13.451301    0.329522    0.370840
     14          6           0       10.691691   -0.001075    0.029805
     15          6           0       -9.530770   -0.100884    0.093449
     16          6           0       12.923415   -0.101631   -0.986608
     17          6           0       11.454188   -0.400367   -1.028244
     18          6           0       10.168910    2.077674    1.135644
     19          6           0       10.974686    0.123198    2.440391
     20          6           0      -11.291239    0.362704   -2.482499
     21          6           0       -8.523080    0.796878   -0.172555
     22          6           0        9.256489   -0.448551    0.116114
     23          6           0       11.127473   -1.221504   -2.200940
     24          6           0       -7.013589    0.484147   -0.279076
     25          6           0        8.828289   -1.662670   -0.073700
     26          6           0       -6.777888   -0.960563   -0.197070
     27          6           0        7.412407   -2.157448   -0.190784
     28          6           0       -6.142548    1.492513   -0.337960
     29          6           0        7.074870   -3.581375   -0.221414
     30          6           0        6.434860   -1.181332   -0.178822
     31          6           0       -4.706875    1.469566   -0.469555
     32          6           0        5.035470   -1.439720   -0.179766
     33          6           0       -3.963319    2.627942   -0.599119
     34          6           0       -2.529058    2.592073   -0.769673
     35          6           0        4.080331   -0.576492   -0.062362
     36          6           0        2.633718   -0.802708    0.044571
     37          6           0       -1.821803    3.921515   -0.986667
     38          6           0       -1.860794    1.404432   -0.654062
     39          6           0        1.760322    0.294081   -0.189055
     40          6           0        2.187943   -2.185195    0.293601
     41          6           0       -0.428403    1.401848   -0.532060
     42          6           0        0.317529    0.266154   -0.184538
     43          1           0      -10.900086    1.384334   -0.065860
     44          1           0      -12.424265   -1.532862    2.338269
     45          1           0      -11.118057   -2.098404    1.471275
     46          1           0      -12.410906   -3.265410    0.121173
     47          1           0      -10.230936   -0.098171    2.704147
     48          1           0      -10.589172    1.534673    2.553647
     49          1           0      -11.782639    0.454001    3.468510
     50          1           0      -13.535131    0.657250    0.167199
     51          1           0      -13.783795    0.292683    2.114867
     52          1           0      -12.962258    1.911594    1.529109
     53          1           0       12.848678    2.216427    0.208515
     54          1           0       12.885434    2.055680    1.794453
     55          1           0      -12.763569   -1.991939   -1.919100
     56          1           0       13.316978   -0.589931    1.017841
     57          1           0       -9.234367   -1.097697   -0.013435
     58          1           0       13.669991   -0.757400   -1.414657
     59          1           0       13.237069    0.867491   -1.621005
     60          1           0        9.151472    1.797772    1.421235
     61          1           0       10.203217    2.741125    0.261348
     62          1           0       10.440647    2.835423    1.998365
     63          1           0       11.735291   -0.512089    2.518087
     64          1           0       10.004831   -0.223438    2.448794
     65          1           0       11.202302    0.885042    3.276247
     66          1           0      -10.266721    0.525526   -2.751158
     67          1           0      -11.845125    1.422975   -2.504293
     68          1           0      -11.742648   -0.388637   -3.219918
     69          1           0      -14.653856   -2.119161   -0.269347
     70          1           0        8.596000    0.388705    0.258785
     71          1           0       -8.868299    1.700660   -0.257107
     72          1           0       11.516181   -2.126939   -2.121560
     73          1           0       10.079713   -1.275818   -2.350376
     74          1           0       11.390870   -0.789529   -3.146514
     75          1           0       14.985042    1.342799    1.123080
     76          1           0        9.517270   -2.547774   -0.334680
     77          1           0       -5.729255   -0.974422   -0.247120
     78          1           0       -6.921990   -1.317262    0.614697
     79          1           0       -7.140973   -1.436669   -1.020632
     80          1           0       -6.523953    2.529733   -0.258393
     81          1           0        6.922481   -3.973821    0.815060
     82          1           0        6.126595   -3.877907   -0.828824
     83          1           0        7.932967   -4.068121   -0.585743
     84          1           0        6.675847   -0.148270   -0.101573
     85          1           0       -4.291618    0.508841   -0.067174
     86          1           0        4.855609   -2.558783   -0.071290
     87          1           0       -4.483480    3.619094   -0.903979
     88          1           0        4.520498    0.548480   -0.205722
     89          1           0       -1.023640    4.064178   -1.896216
     90          1           0       -1.249594    4.168723   -0.175833
     91          1           0       -2.435152    4.739720   -1.340505
     92          1           0       -2.585998    0.717788   -0.252489
     93          1           0        2.285822    1.243891   -0.268542
     94          1           0        3.280218   -2.856005    0.811550
     95          1           0        1.022735   -1.910673    1.077443
     96          1           0        1.662920   -2.764306   -0.962219
     97          1           0        0.259140    2.246896   -0.506927
     98          1           0       -0.246868   -0.667295   -0.105253
 ---------------------------------------------------------------------

 SCF Done:  E(RCAM-B3LYP) =  -1706.87515245     A.U. after   14 cycles

 Excitation energies and oscillator strengths:

 Excited State   1:      Singlet-A      2.4542 eV  505.19 nm  f=2.4874  <S**2>=0.000
     155 ->158        -0.14346
     156 ->157         0.68680
 This state for optimization and/or second-order correction.
 Total Energy, E(TD-HF/TD-DFT) =  -1706.78496218
 Copying the excited state density for this state as the 1-particle RhoCI density.

 The electronic state is 1-A.
 Alpha  occ. eigenvalues --  -19.21713 -19.20570 -10.32942 -10.31795 -10.30427
 Alpha  occ. eigenvalues --  -10.27980 -10.27870 -10.27821 -10.27704 -10.27645
 Alpha  occ. eigenvalues --  -10.27272 -10.27175 -10.27073 -10.26884 -10.26804
 Alpha  occ. eigenvalues --  -10.26716 -10.26677 -10.26663 -10.26649 -10.26596
 Alpha  occ. eigenvalues --  -10.26356 -10.26280 -10.26132 -10.26049 -10.25889
 Alpha  occ. eigenvalues --  -10.25859 -10.25657 -10.25603 -10.25512 -10.25489
 Alpha  occ. eigenvalues --  -10.25380 -10.25282 -10.25233 -10.25144 -10.25104
 Alpha  occ. eigenvalues --  -10.25033 -10.24989 -10.23940 -10.23560 -10.23487
 Alpha  occ. eigenvalues --  -10.22841 -10.22589  -1.08841  -1.07678  -0.94365
 Alpha  occ. eigenvalues --   -0.93482  -0.92536  -0.91766  -0.90982  -0.89737
 Alpha  occ. eigenvalues --   -0.87610  -0.87086  -0.86561  -0.85606  -0.84843
 Alpha  occ. eigenvalues --   -0.83851  -0.82259  -0.81545  -0.80908  -0.78433
 Alpha  occ. eigenvalues --   -0.77858  -0.77290  -0.76694  -0.75852  -0.75545
 Alpha  occ. eigenvalues --   -0.75354  -0.74523  -0.73694  -0.72360  -0.69804
 Alpha  occ. eigenvalues --   -0.68836  -0.68374  -0.66262  -0.65090  -0.64084
 Alpha  occ. eigenvalues --   -0.63786  -0.62124  -0.62067  -0.60868  -0.60047
 Alpha  occ. eigenvalues --   -0.59695  -0.59327  -0.58261  -0.57582  -0.56382
 Alpha  occ. eigenvalues --   -0.55826  -0.55292  -0.54520  -0.54134  -0.53708
 Alpha  occ. eigenvalues --   -0.53429  -0.53146  -0.52987  -0.52451  -0.52019
 Alpha  occ. eigenvalues --   -0.51396  -0.50876  -0.50434  -0.50164  -0.49656
 Alpha  occ. eigenvalues --   -0.49371  -0.49337  -0.48731  -0.48374  -0.48288
 Alpha  occ. eigenvalues --   -0.47820  -0.47122  -0.47003  -0.46609  -0.46375
 Alpha  occ. eigenvalues --   -0.46093  -0.45938  -0.45235  -0.44761  -0.44553
 Alpha  occ. eigenvalues --   -0.44539  -0.44311  -0.44176  -0.43969  -0.43494
 Alpha  occ. eigenvalues --   -0.43092  -0.43033  -0.42586  -0.42371  -0.42119
 Alpha  occ. eigenvalues --   -0.41759  -0.41393  -0.41301  -0.40798  -0.40573
 Alpha  occ. eigenvalues --   -0.40392  -0.40075  -0.39580  -0.39420  -0.38879
 Alpha  occ. eigenvalues --   -0.38657  -0.38411  -0.38253  -0.37817  -0.37618
 Alpha  occ. eigenvalues --   -0.37253  -0.37080  -0.36539  -0.35920  -0.35617
 Alpha  occ. eigenvalues --   -0.34920  -0.34706  -0.33728  -0.32089  -0.31305
 Alpha  occ. eigenvalues --   -0.30715  -0.30340  -0.28688  -0.26921  -0.24631
 Alpha  occ. eigenvalues --   -0.20680
 Alpha virt. eigenvalues --   -0.05224  -0.00603   0.02515   0.05137   0.06723
 Alpha virt. eigenvalues --    0.07098   0.07719   0.10581   0.11177   0.11584
 Alpha virt. eigenvalues --    0.11638   0.12044   0.12814   0.13533   0.13764

 Mulliken charges:
               1
     1  O   -0.554926
     2  O   -0.574809
     3  C    0.003063
     4  C   -0.125498
     5  C   -0.168528
     6  C    0.170892
     7  C    0.133561
     8  C   -0.038324
     9  C   -0.295117
    10  C   -0.280274
    11  C   -0.211510
    12  C   -0.179187
    13  C    0.153464
    14  C    0.063798
    15  C   -0.077434
    16  C   -0.231641
    17  C    0.074056
    18  C   -0.303973
    19  C   -0.278811
    20  C   -0.347120
    21  C   -0.086932
    22  C   -0.130255
    23  C   -0.367615
    24  C    0.064546
    25  C   -0.085193
    26  C   -0.340692
    27  C    0.072841
    28  C   -0.130049
    29  C   -0.381260
    30  C   -0.095053
    31  C   -0.085242
    32  C   -0.061996
    33  C   -0.125974
    34  C    0.093642
    35  C   -0.116626
    36  C    0.120036
    37  C   -0.375497
    38  C   -0.096353
    39  C   -0.115130
    40  C   -0.293140
    41  C   -0.088974
    42  C   -0.095681
    43  H    0.082243
    44  H    0.109752
    45  H    0.103166
    46  H    0.078435
    47  H    0.110828
    48  H    0.110587
    49  H    0.069254
    50  H    0.087307
    51  H    0.087936
    52  H    0.095172
    53  H    0.106992
    54  H    0.083622
    55  H    0.073211
    56  H    0.071316
    57  H    0.076601
    58  H    0.120086
    59  H    0.087080
    60  H    0.101019
    61  H    0.109880
    62  H    0.075594
    63  H    0.112997
    64  H    0.120617
    65  H    0.078846
    66  H    0.135989
    67  H    0.100407
    68  H    0.093532
    69  H    0.304903
    70  H    0.099311
    71  H    0.054115
    72  H    0.129256
    73  H    0.115569
    74  H    0.113799
    75  H    0.313039
    76  H    0.073162
    77  H    0.092510
    78  H    0.134422
    79  H    0.133459
    80  H    0.083604
    81  H    0.128660
    82  H    0.121394
    83  H    0.114100
    84  H    0.070498
    85  H    0.105107
    86  H    0.059598
    87  H    0.092562
    88  H    0.064037
    89  H    0.095055
    90  H    0.141835
    91  H    0.110650
    92  H    0.076823
    93  H    0.083830
    94  H    0.087266
    95  H    0.068738
    96  H    0.058862
    97  H    0.093189
    98  H    0.087096
 Sum of Mulliken charges =  -0.00000

 Dipole moment (field-independent basis, Debye):
    X=             -0.6782    Y=              0.6084    Z=             -0.4525  Tot=              1.0172
 Quadrupole moment (field-independent basis, Debye-Ang):
   XX=           -299.7347   YY=           -242.3727   ZZ=           -263.6122
   XY=              5.8975   XZ=             34.3016   YZ=              4.9111

 Normal termination of Gaussian 16 at Sat Jul 13 02:41:07 2019.
