 Gaussian 16, Revision A.03,
 Gaussian 16:  ES64L-G16RevA.03 25-Dec-2016

 -------------------------------------
 # td=(NStates=1) CAM-B3LYP/6-31G(d,p)
 -------------------------------------

 --
 TD
 --
 Symbolic Z-matrix:
 Charge =  0 Multiplicity = 1

                         Standard orientation:
 ---------------------------------------------------------------------
 Center     Atomic      Atomic             Coordinates (Angstroms)
 Number     Number       Type             X           Y           Z
 ---------------------------------------------------------------------
      1          8           0      -14.187255   -2.025220    0.664811
      2          8           0       14.785988    0.869600    0.361261
      3          6           0      -11.834984    0.123108    1.278467
      4          6           0      -10.894543    0.229400   -0.049153
      5          6           0      -12.142252   -1.352052    1.619696
      6          6           0      -12.742526   -2.170068    0.460403
      7          6           0      -11.623402   -0.553047   -1.086124
      8          6           0       11.125105    1.018282    1.101666
      9          6           0      -11.115195    0.649625    2.438044
     10          6           0      -13.129859    0.929556    1.112867
     11          6           0       12.482677    1.486335    0.747897
     12          6           0      -12.446788   -1.652601   -0.942023
     13          6           0       13.460496    0.389444    0.543661
     14          6           0       10.696365   -0.035833    0.071362
     15          6           0       -9.491883   -0.098557    0.060543
     16          6           0       13.061860   -0.388220   -0.757979
     17          6           0       11.538696   -0.645752   -0.814968
     18          6           0       10.120688    2.214560    1.081225
     19          6           0       11.069859    0.387966    2.471150
     20          6           0      -11.362928   -0.053085   -2.465905
     21          6           0       -8.551599    0.835517   -0.067744
     22          6           0        9.302773   -0.470467    0.010808
     23          6           0       11.158256   -1.524341   -1.934861
     24          6           0       -7.063712    0.558777   -0.079660
     25          6           0        8.765000   -1.677735   -0.090936
     26          6           0       -6.674193   -0.846263    0.152883
     27          6           0        7.469302   -2.036060   -0.076924
     28          6           0       -6.185372    1.537379   -0.349419
     29          6           0        7.109965   -3.481271    0.029361
     30          6           0        6.421673   -1.124795   -0.094896
     31          6           0       -4.764807    1.506169   -0.358888
     32          6           0        5.051024   -1.326383   -0.105294
     33          6           0       -4.035793    2.546291   -0.761824
     34          6           0       -2.561900    2.514617   -0.828419
     35          6           0        4.051584   -0.508805   -0.395341
     36          6           0        2.721709   -0.783850   -0.285933
     37          6           0       -1.914842    3.945450   -1.153196
     38          6           0       -1.716916    1.450414   -0.616572
     39          6           0        1.869986    0.332353   -0.458696
     40          6           0        2.181720   -2.146199   -0.227792
     41          6           0       -0.370677    1.542562   -0.550444
     42          6           0        0.409012    0.303374   -0.507515
     43          1           0      -10.919587    1.344957   -0.447238
     44          1           0      -12.648982   -1.443885    2.566189
     45          1           0      -11.073264   -1.872334    1.849780
     46          1           0      -12.415933   -3.169710    0.439305
     47          1           0      -10.161959    0.013676    2.667128
     48          1           0      -10.717465    1.779889    2.160009
     49          1           0      -11.751030    0.710925    3.275872
     50          1           0      -13.789209    0.785628    0.259708
     51          1           0      -13.769589    0.457853    1.981960
     52          1           0      -12.955858    1.989131    1.045700
     53          1           0       12.318580    2.136551   -0.292325
     54          1           0       12.833238    2.071642    1.613012
     55          1           0      -12.709392   -2.022060   -1.777244
     56          1           0       13.291181   -0.512109    1.482183
     57          1           0       -9.420932   -1.069075    0.100968
     58          1           0       13.741094   -1.165210   -0.865173
     59          1           0       13.281283    0.436569   -1.525976
     60          1           0        9.086134    2.078570    1.741442
     61          1           0        9.963683    2.568631   -0.076966
     62          1           0       10.783259    3.044409    1.353370
     63          1           0       11.709204   -0.530585    2.455193
     64          1           0       10.144561   -0.041596    2.539514
     65          1           0       11.344989    1.118490    3.382379
     66          1           0      -10.220971   -0.056333   -2.529278
     67          1           0      -11.700315    0.969416   -2.600300
     68          1           0      -11.503466   -0.640651   -3.350734
     69          1           0      -14.531926   -2.597060   -0.014896
     70          1           0        8.466159    0.380842    0.155122
     71          1           0       -8.524860    1.883722   -0.257786
     72          1           0       11.401533   -2.502576   -1.912669
     73          1           0       10.015713   -1.560124   -2.177851
     74          1           0       11.958931   -1.329549   -2.639746
     75          1           0       15.124124    1.134371    1.155649
     76          1           0        9.408445   -2.435337   -0.303862
     77          1           0       -5.597770   -1.081410    0.081510
     78          1           0       -6.922546   -1.240824    1.100046
     79          1           0       -6.940122   -1.513768   -0.510347
     80          1           0       -6.729708    2.481362   -0.614675
     81          1           0        7.147144   -3.700015    1.305113
     82          1           0        6.147537   -3.747444   -0.574367
     83          1           0        7.927563   -4.410374   -0.382405
     84          1           0        6.487783   -0.020166   -0.227912
     85          1           0       -4.135590    0.564844   -0.311276
     86          1           0        4.578535   -2.467698    0.166252
     87          1           0       -4.671000    3.216035   -1.094563
     88          1           0        4.383642    0.484330   -0.519037
     89          1           0       -1.544906    3.938601   -2.455542
     90          1           0       -0.998561    4.298266   -0.668209
     91          1           0       -2.804861    4.739556   -0.882327
     92          1           0       -2.168342    0.454170   -0.535779
     93          1           0        2.162608    1.368294   -0.683056
     94          1           0        2.570750   -2.513637    0.761154
     95          1           0        1.080643   -2.427011   -0.002748
     96          1           0        2.591279   -2.661013   -1.165781
     97          1           0        0.068562    2.310621   -0.810786
     98          1           0       -0.141340   -0.539593   -0.353433
 ---------------------------------------------------------------------

 SCF Done:  E(RCAM-B3LYP) =  -1706.83816840     A.U. after   15 cycles

 Excitation energies and oscillator strengths:

 Excited State   1:      Singlet-A      2.1490 eV  576.93 nm  f=3.0786  <S**2>=0.000
     155 ->158         0.14700
     156 ->157         0.69329
 This state for optimization and/or second-order correction.
 Total Energy, E(TD-HF/TD-DFT) =  -1706.75919276
 Copying the excited state density for this state as the 1-particle RhoCI density.

 The electronic state is 1-A.
 Alpha  occ. eigenvalues --  -19.21683 -19.20471 -10.32348 -10.30458 -10.29615
 Alpha  occ. eigenvalues --  -10.28964 -10.28070 -10.27321 -10.27283 -10.27247
 Alpha  occ. eigenvalues --  -10.27222 -10.27132 -10.27097 -10.26743 -10.26572
 Alpha  occ. eigenvalues --  -10.26512 -10.26399 -10.26390 -10.26370 -10.26366
 Alpha  occ. eigenvalues --  -10.26359 -10.26181 -10.26159 -10.26033 -10.26012
 Alpha  occ. eigenvalues --  -10.25985 -10.25874 -10.25833 -10.25527 -10.25424
 Alpha  occ. eigenvalues --  -10.25031 -10.25007 -10.24813 -10.24685 -10.24650
 Alpha  occ. eigenvalues --  -10.24590 -10.24557 -10.24456 -10.23953 -10.23733
 Alpha  occ. eigenvalues --  -10.23701 -10.23230  -1.11333  -1.08399  -0.94579
 Alpha  occ. eigenvalues --   -0.93689  -0.93039  -0.92027  -0.91536  -0.90385
 Alpha  occ. eigenvalues --   -0.88020  -0.87779  -0.87119  -0.85853  -0.84859
 Alpha  occ. eigenvalues --   -0.83761  -0.81935  -0.80903  -0.80366  -0.78363
 Alpha  occ. eigenvalues --   -0.77196  -0.77009  -0.76375  -0.75737  -0.75494
 Alpha  occ. eigenvalues --   -0.74982  -0.74956  -0.74436  -0.72312  -0.69941
 Alpha  occ. eigenvalues --   -0.69093  -0.67922  -0.66953  -0.65070  -0.64302
 Alpha  occ. eigenvalues --   -0.64121  -0.63514  -0.61845  -0.61527  -0.60525
 Alpha  occ. eigenvalues --   -0.59606  -0.58680  -0.58141  -0.57718  -0.57008
 Alpha  occ. eigenvalues --   -0.56303  -0.56016  -0.55788  -0.54959  -0.54086
 Alpha  occ. eigenvalues --   -0.53922  -0.53149  -0.52972  -0.52519  -0.50995
 Alpha  occ. eigenvalues --   -0.50803  -0.50517  -0.50450  -0.49573  -0.49435
 Alpha  occ. eigenvalues --   -0.49031  -0.48986  -0.48852  -0.48284  -0.47975
 Alpha  occ. eigenvalues --   -0.47691  -0.47341  -0.46873  -0.46445  -0.46111
 Alpha  occ. eigenvalues --   -0.45696  -0.45532  -0.45044  -0.44980  -0.44563
 Alpha  occ. eigenvalues --   -0.44165  -0.43934  -0.43656  -0.43414  -0.42960
 Alpha  occ. eigenvalues --   -0.42787  -0.42305  -0.41895  -0.41655  -0.41407
 Alpha  occ. eigenvalues --   -0.41279  -0.41080  -0.40734  -0.40625  -0.40236
 Alpha  occ. eigenvalues --   -0.39985  -0.39870  -0.39507  -0.39439  -0.39268
 Alpha  occ. eigenvalues --   -0.39058  -0.38587  -0.38506  -0.38141  -0.38035
 Alpha  occ. eigenvalues --   -0.37208  -0.36781  -0.36372  -0.36175  -0.35842
 Alpha  occ. eigenvalues --   -0.35837  -0.35036  -0.33530  -0.32895  -0.32107
 Alpha  occ. eigenvalues --   -0.31567  -0.28988  -0.28491  -0.26968  -0.24007
 Alpha  occ. eigenvalues --   -0.19160
 Alpha virt. eigenvalues --   -0.05776  -0.00881   0.02671   0.06130   0.07221
 Alpha virt. eigenvalues --    0.08878   0.11050   0.11748   0.12111   0.12178
 Alpha virt. eigenvalues --    0.12541   0.12551   0.12627   0.12887   0.13493

 Mulliken charges:
               1
     1  O   -0.541049
     2  O   -0.540426
     3  C    0.032449
     4  C   -0.156080
     5  C   -0.176163
     6  C    0.115273
     7  C    0.095516
     8  C    0.009368
     9  C   -0.273848
    10  C   -0.289203
    11  C   -0.167762
    12  C   -0.093918
    13  C    0.160405
    14  C    0.043636
    15  C   -0.038810
    16  C   -0.232950
    17  C    0.077345
    18  C   -0.301351
    19  C   -0.285133
    20  C   -0.367019
    21  C   -0.068084
    22  C   -0.127517
    23  C   -0.374075
    24  C    0.113141
    25  C   -0.078804
    26  C   -0.385511
    27  C    0.115003
    28  C   -0.167878
    29  C   -0.341118
    30  C   -0.129022
    31  C   -0.048564
    32  C   -0.085498
    33  C   -0.084311
    34  C    0.050525
    35  C   -0.086932
    36  C    0.115823
    37  C   -0.339454
    38  C   -0.088913
    39  C   -0.135326
    40  C   -0.378682
    41  C   -0.042576
    42  C   -0.093048
    43  H    0.073449
    44  H    0.121488
    45  H    0.057848
    46  H    0.091421
    47  H    0.088553
    48  H    0.066103
    49  H    0.103647
    50  H    0.117110
    51  H    0.093985
    52  H    0.095313
    53  H    0.081540
    54  H    0.079559
    55  H    0.059169
    56  H    0.038472
    57  H    0.084069
    58  H    0.117929
    59  H    0.114403
    60  H    0.099811
    61  H    0.084475
    62  H    0.107952
    63  H    0.095823
    64  H    0.118092
    65  H    0.084066
    66  H    0.100860
    67  H    0.118221
    68  H    0.106989
    69  H    0.297022
    70  H    0.069374
    71  H    0.078151
    72  H    0.128624
    73  H    0.121786
    74  H    0.105607
    75  H    0.300815
    76  H    0.077561
    77  H    0.094113
    78  H    0.120629
    79  H    0.130904
    80  H    0.073793
    81  H    0.097757
    82  H    0.123026
    83  H    0.073457
    84  H    0.078820
    85  H    0.080394
    86  H    0.045016
    87  H    0.074146
    88  H    0.074778
    89  H    0.068159
    90  H    0.127055
    91  H    0.093285
    92  H    0.076375
    93  H    0.082302
    94  H    0.125050
    95  H    0.113369
    96  H    0.130246
    97  H    0.058459
    98  H    0.070126
 Sum of Mulliken charges =  -0.00000

 Dipole moment (field-independent basis, Debye):
    X=              1.6129    Y=             -1.9405    Z=             -0.4295  Tot=              2.5596
 Quadrupole moment (field-independent basis, Debye-Ang):
   XX=           -272.5124   YY=           -244.2327   ZZ=           -262.4461
   XY=             11.3930   XZ=             35.5067   YZ=              3.6790

 Normal termination of Gaussian 16 at Mon Jul 15 01:25:51 2019.
