 Gaussian 16, Revision A.03,
 Gaussian 16:  ES64L-G16RevA.03 25-Dec-2016

 -------------------------------------
 # td=(NStates=1) CAM-B3LYP/6-31G(d,p)
 -------------------------------------

 --
 TD
 --
 Symbolic Z-matrix:
 Charge =  0 Multiplicity = 1

                         Standard orientation:
 ---------------------------------------------------------------------
 Center     Atomic      Atomic             Coordinates (Angstroms)
 Number     Number       Type             X           Y           Z
 ---------------------------------------------------------------------
      1          8           0      -14.193799   -2.016589    0.626669
      2          8           0       14.877101    0.463399    0.435268
      3          6           0      -11.710803   -0.214987    1.405180
      4          6           0      -10.974089    0.245750    0.107536
      5          6           0      -12.009047   -1.669908    1.333094
      6          6           0      -12.816389   -2.146560    0.199298
      7          6           0      -11.806748   -0.299511   -1.209298
      8          6           0       11.237414    0.972499    0.968329
      9          6           0      -10.886888    0.179454    2.531217
     10          6           0      -12.956401    0.668235    1.519190
     11          6           0       12.624687    1.270310    0.891254
     12          6           0      -12.406371   -1.455567   -1.013859
     13          6           0       13.430411    0.126232    0.432494
     14          6           0       10.779266   -0.063580   -0.033453
     15          6           0       -9.437118   -0.185283   -0.107480
     16          6           0       13.089602   -0.361479   -0.843883
     17          6           0       11.631843   -0.593116   -0.940784
     18          6           0       10.273649    2.369201    0.852390
     19          6           0       10.911767    0.416756    2.389600
     20          6           0      -11.556357    0.346983   -2.507412
     21          6           0       -8.541838    0.824928   -0.249107
     22          6           0        9.387944   -0.323772   -0.002327
     23          6           0       11.178015   -1.489213   -2.047513
     24          6           0       -7.054447    0.513839   -0.409314
     25          6           0        8.785600   -1.537591   -0.101760
     26          6           0       -6.671702   -0.927767   -0.320693
     27          6           0        7.422949   -1.910545   -0.111445
     28          6           0       -6.227237    1.574908   -0.454465
     29          6           0        7.133025   -3.410607   -0.061864
     30          6           0        6.405584   -1.037996   -0.302508
     31          6           0       -4.818045    1.589452   -0.383455
     32          6           0        5.021263   -1.385776   -0.182865
     33          6           0       -3.988230    2.656058   -0.526724
     34          6           0       -2.576738    2.716418   -0.515884
     35          6           0        3.995776   -0.525319   -0.242714
     36          6           0        2.581359   -0.642516   -0.146105
     37          6           0       -2.056419    4.049479   -0.832061
     38          6           0       -1.860889    1.536891   -0.359388
     39          6           0        1.699959    0.413196   -0.357452
     40          6           0        2.151240   -2.042148    0.284478
     41          6           0       -0.479539    1.503558   -0.470408
     42          6           0        0.277985    0.425213   -0.255554
     43          1           0      -10.783032    1.403974   -0.191156
     44          1           0      -12.381527   -2.019205    2.165649
     45          1           0      -11.049410   -2.273542    1.052655
     46          1           0      -12.764822   -3.275581    0.028531
     47          1           0       -9.922076   -0.384906    2.721615
     48          1           0      -10.689329    1.287302    2.438175
     49          1           0      -11.501383    0.058072    3.460841
     50          1           0      -13.653863    0.379587    0.699175
     51          1           0      -13.323571    0.381302    2.516370
     52          1           0      -12.799949    1.828745    1.830960
     53          1           0       12.781441    1.880711   -0.167382
     54          1           0       13.170937    1.900031    1.585271
     55          1           0      -12.949740   -1.712376   -2.039871
     56          1           0       13.365137   -0.581881    1.279714
     57          1           0       -9.298401   -1.160157   -0.006181
     58          1           0       13.543194   -1.293326   -0.822593
     59          1           0       13.463791    0.437124   -1.609563
     60          1           0        9.301918    2.346424    0.956885
     61          1           0       10.462925    2.702735   -0.130415
     62          1           0       10.741637    3.099940    1.672858
     63          1           0       11.347635   -0.589011    2.546961
     64          1           0        9.905946    0.290162    2.564225
     65          1           0       11.169296    0.976563    3.203884
     66          1           0      -10.593665    0.394655   -2.841115
     67          1           0      -12.095475    1.364024   -2.409884
     68          1           0      -12.110015   -0.229572   -3.375170
     69          1           0      -14.698194   -1.901714   -0.308357
     70          1           0        8.793381    0.522546    0.026986
     71          1           0       -8.921785    1.885523   -0.354047
     72          1           0       11.598824   -2.473948   -1.849516
     73          1           0       10.155050   -1.533435   -2.344937
     74          1           0       11.749770   -1.218505   -2.963677
     75          1           0       15.142964    0.663234    1.442777
     76          1           0        9.483467   -2.301462   -0.320116
     77          1           0       -5.611733   -0.823465   -0.214573
     78          1           0       -6.942601   -1.437095    0.555663
     79          1           0       -6.971576   -1.654970   -1.064668
     80          1           0       -6.663125    2.535498   -0.542987
     81          1           0        6.372022   -3.776410    0.687790
     82          1           0        6.829647   -3.932050   -1.124829
     83          1           0        8.048823   -3.969779   -0.007387
     84          1           0        6.601755   -0.028374   -0.523401
     85          1           0       -4.377866    0.576380   -0.307081
     86          1           0        4.969972   -2.485439   -0.145274
     87          1           0       -4.409115    3.628426   -0.560860
     88          1           0        4.279330    0.552881   -0.458049
     89          1           0       -1.822117    3.960085   -1.934119
     90          1           0       -0.912635    4.168530   -0.208780
     91          1           0       -2.677723    4.916969   -0.748593
     92          1           0       -2.246165    0.557603    0.061143
     93          1           0        2.264051    1.173174   -0.799449
     94          1           0        2.430073   -2.174313    1.399385
     95          1           0        1.185128   -2.287775    0.278381
     96          1           0        2.763584   -2.857386   -0.271316
     97          1           0        0.025554    2.451399   -0.526484
     98          1           0       -0.347031   -0.579100   -0.045279
 ---------------------------------------------------------------------

 SCF Done:  E(RCAM-B3LYP) =  -1706.98290750     A.U. after   14 cycles

 Excitation energies and oscillator strengths:

 Excited State   1:      Singlet-A      2.3800 eV  520.95 nm  f=3.0416  <S**2>=0.000
     155 ->158        -0.16396
     156 ->157         0.68602
 This state for optimization and/or second-order correction.
 Total Energy, E(TD-HF/TD-DFT) =  -1706.89544479
 Copying the excited state density for this state as the 1-particle RhoCI density.

 The electronic state is 1-A.
 Alpha  occ. eigenvalues --  -19.21662 -19.21002 -10.30541 -10.29325 -10.27987
 Alpha  occ. eigenvalues --  -10.27848 -10.27756 -10.27726 -10.27391 -10.27316
 Alpha  occ. eigenvalues --  -10.27298 -10.27027 -10.26936 -10.26901 -10.26766
 Alpha  occ. eigenvalues --  -10.26530 -10.26377 -10.26344 -10.26206 -10.26191
 Alpha  occ. eigenvalues --  -10.26018 -10.25983 -10.25904 -10.25596 -10.25568
 Alpha  occ. eigenvalues --  -10.25555 -10.25285 -10.25275 -10.25115 -10.25091
 Alpha  occ. eigenvalues --  -10.25086 -10.25055 -10.24849 -10.24849 -10.24843
 Alpha  occ. eigenvalues --  -10.24829 -10.24772 -10.24731 -10.24631 -10.24293
 Alpha  occ. eigenvalues --  -10.24189 -10.22654  -1.07611  -1.06158  -0.95247
 Alpha  occ. eigenvalues --   -0.93829  -0.92828  -0.91864  -0.90972  -0.90169
 Alpha  occ. eigenvalues --   -0.88023  -0.87770  -0.87665  -0.86464  -0.85216
 Alpha  occ. eigenvalues --   -0.83560  -0.82920  -0.81360  -0.80383  -0.78622
 Alpha  occ. eigenvalues --   -0.77502  -0.77160  -0.76736  -0.76674  -0.76358
 Alpha  occ. eigenvalues --   -0.75904  -0.74376  -0.74255  -0.73559  -0.70521
 Alpha  occ. eigenvalues --   -0.69560  -0.67752  -0.66601  -0.65697  -0.64293
 Alpha  occ. eigenvalues --   -0.63685  -0.62704  -0.62268  -0.60995  -0.60555
 Alpha  occ. eigenvalues --   -0.60333  -0.59305  -0.58499  -0.57307  -0.56584
 Alpha  occ. eigenvalues --   -0.56472  -0.55545  -0.55318  -0.54537  -0.53759
 Alpha  occ. eigenvalues --   -0.53201  -0.53042  -0.52480  -0.52183  -0.51342
 Alpha  occ. eigenvalues --   -0.51145  -0.50293  -0.49908  -0.49806  -0.49572
 Alpha  occ. eigenvalues --   -0.49031  -0.48594  -0.48502  -0.48459  -0.48160
 Alpha  occ. eigenvalues --   -0.47462  -0.47446  -0.47038  -0.46526  -0.46258
 Alpha  occ. eigenvalues --   -0.46224  -0.46006  -0.45834  -0.45540  -0.45382
 Alpha  occ. eigenvalues --   -0.45171  -0.44878  -0.44662  -0.44153  -0.43850
 Alpha  occ. eigenvalues --   -0.43284  -0.42974  -0.42850  -0.42664  -0.42197
 Alpha  occ. eigenvalues --   -0.42046  -0.41750  -0.41691  -0.41126  -0.40645
 Alpha  occ. eigenvalues --   -0.40554  -0.40072  -0.39810  -0.39631  -0.39330
 Alpha  occ. eigenvalues --   -0.38818  -0.38743  -0.38425  -0.38251  -0.37999
 Alpha  occ. eigenvalues --   -0.37518  -0.37101  -0.36853  -0.36109  -0.35263
 Alpha  occ. eigenvalues --   -0.35104  -0.34735  -0.33426  -0.32177  -0.31733
 Alpha  occ. eigenvalues --   -0.31047  -0.30159  -0.29171  -0.27146  -0.23964
 Alpha  occ. eigenvalues --   -0.20089
 Alpha virt. eigenvalues --   -0.05196  -0.01003   0.03165   0.05477   0.06979
 Alpha virt. eigenvalues --    0.08863   0.10711   0.10816   0.11507   0.12040
 Alpha virt. eigenvalues --    0.12734   0.12948   0.13240   0.13755   0.14212

 Mulliken charges:
               1
     1  O   -0.554432
     2  O   -0.586933
     3  C    0.029503
     4  C   -0.131362
     5  C   -0.149095
     6  C    0.148612
     7  C    0.116209
     8  C   -0.003512
     9  C   -0.294147
    10  C   -0.280621
    11  C   -0.179782
    12  C   -0.142400
    13  C    0.152422
    14  C    0.063135
    15  C   -0.058353
    16  C   -0.202095
    17  C    0.048789
    18  C   -0.313929
    19  C   -0.308914
    20  C   -0.357367
    21  C   -0.108587
    22  C   -0.099389
    23  C   -0.373279
    24  C    0.086967
    25  C   -0.118796
    26  C   -0.375917
    27  C    0.106447
    28  C   -0.099228
    29  C   -0.385759
    30  C   -0.100965
    31  C   -0.071855
    32  C   -0.069770
    33  C   -0.123123
    34  C    0.107701
    35  C   -0.134287
    36  C    0.122210
    37  C   -0.369577
    38  C   -0.122165
    39  C   -0.136379
    40  C   -0.364836
    41  C   -0.046087
    42  C   -0.100369
    43  H    0.059493
    44  H    0.109105
    45  H    0.080065
    46  H    0.081726
    47  H    0.091918
    48  H    0.100076
    49  H    0.085791
    50  H    0.109204
    51  H    0.097290
    52  H    0.080053
    53  H    0.057259
    54  H    0.090851
    55  H    0.037422
    56  H    0.078214
    57  H    0.081860
    58  H    0.123674
    59  H    0.121488
    60  H    0.118226
    61  H    0.111481
    62  H    0.082752
    63  H    0.091621
    64  H    0.113327
    65  H    0.099781
    66  H    0.143565
    67  H    0.113532
    68  H    0.091839
    69  H    0.297979
    70  H    0.079965
    71  H    0.088273
    72  H    0.114647
    73  H    0.129937
    74  H    0.103401
    75  H    0.301145
    76  H    0.078208
    77  H    0.102990
    78  H    0.129464
    79  H    0.127609
    80  H    0.075616
    81  H    0.125381
    82  H    0.094938
    83  H    0.114943
    84  H    0.074705
    85  H    0.078542
    86  H    0.081397
    87  H    0.067785
    88  H    0.065889
    89  H    0.137574
    90  H    0.084848
    91  H    0.128245
    92  H    0.090775
    93  H    0.081105
    94  H    0.108948
    95  H    0.112120
    96  H    0.105082
    97  H    0.075026
    98  H    0.073160
 Sum of Mulliken charges =  -0.00000

 Dipole moment (field-independent basis, Debye):
    X=             -0.4140    Y=              0.0777    Z=             -0.5999  Tot=              0.7330
 Quadrupole moment (field-independent basis, Debye-Ang):
   XX=           -296.9768   YY=           -244.6245   ZZ=           -259.3804
   XY=            -10.5283   XZ=             36.5639   YZ=              1.3789

 Normal termination of Gaussian 16 at Mon Jul 15 13:24:04 2019.
