 Gaussian 16, Revision A.03,
 Gaussian 16:  ES64L-G16RevA.03 25-Dec-2016

 -------------------------------------
 # td=(NStates=1) CAM-B3LYP/6-31G(d,p)
 -------------------------------------

 --
 TD
 --
 Symbolic Z-matrix:
 Charge =  0 Multiplicity = 1

                         Standard orientation:
 ---------------------------------------------------------------------
 Center     Atomic      Atomic             Coordinates (Angstroms)
 Number     Number       Type             X           Y           Z
 ---------------------------------------------------------------------
      1          8           0       14.200878   -1.946911   -0.590779
      2          8           0      -14.830171    1.026837    0.178014
      3          6           0       11.908202    0.181331   -1.094708
      4          6           0       11.061843    0.283630    0.191071
      5          6           0       12.002084   -1.348544   -1.503229
      6          6           0       12.729137   -2.108240   -0.286208
      7          6           0       11.669261   -0.532358    1.319722
      8          6           0      -11.303099    0.914236   -1.145209
      9          6           0       11.094735    0.873779   -2.247899
     10          6           0       13.254421    0.788287   -1.110459
     11          6           0      -12.645933    1.444745   -0.789409
     12          6           0       12.434664   -1.577178    1.050957
     13          6           0      -13.517788    0.401121   -0.200390
     14          6           0      -10.741365   -0.016954   -0.061559
     15          6           0        9.598032   -0.035823    0.008896
     16          6           0      -12.991307   -0.048880    1.106081
     17          6           0      -11.489016   -0.495247    0.998635
     18          6           0      -10.351518    2.225962   -1.125188
     19          6           0      -11.241354    0.258457   -2.398641
     20          6           0       11.234101   -0.075476    2.692320
     21          6           0        8.530690    0.892800    0.133720
     22          6           0       -9.371258   -0.547807   -0.269813
     23          6           0      -11.087651   -1.276423    2.343644
     24          6           0        7.155252    0.477033    0.063166
     25          6           0       -8.931035   -1.778343    0.043203
     26          6           0        6.835492   -0.952259   -0.176831
     27          6           0       -7.523325   -2.160714    0.071527
     28          6           0        6.285199    1.532595    0.303683
     29          6           0       -7.208413   -3.672779   -0.074678
     30          6           0       -6.488107   -1.344992    0.024293
     31          6           0        4.863382    1.440720    0.374065
     32          6           0       -5.002454   -1.573109    0.055810
     33          6           0        4.027227    2.472059    0.689751
     34          6           0        2.620039    2.538111    0.652442
     35          6           0       -4.125804   -0.588535    0.151780
     36          6           0       -2.709542   -0.755630   -0.063868
     37          6           0        2.000381    3.975455    1.057647
     38          6           0        1.857223    1.410736    0.373913
     39          6           0       -1.793698    0.285797    0.256397
     40          6           0       -2.116890   -2.108134   -0.464111
     41          6           0        0.325793    1.427018    0.410633
     42          6           0       -0.405594    0.336245    0.086663
     43          1           0       10.925790    1.395202    0.289216
     44          1           0       12.597251   -1.615137   -2.289628
     45          1           0       11.158706   -1.655856   -1.558548
     46          1           0       12.474709   -3.281986   -0.342841
     47          1           0       10.042812    0.497985   -2.459288
     48          1           0       10.713100    1.848362   -2.048198
     49          1           0       11.714072    1.019167   -3.062340
     50          1           0       13.863039    0.261724   -0.290218
     51          1           0       13.922082    0.471915   -1.885412
     52          1           0       13.325059    1.948463   -1.168735
     53          1           0      -12.549752    2.183324   -0.011400
     54          1           0      -12.992196    2.266434   -1.585085
     55          1           0       12.777682   -2.242575    1.877100
     56          1           0      -13.701190   -0.496509   -1.020029
     57          1           0        9.253622   -1.138470   -0.109134
     58          1           0      -13.694518   -0.656020    1.539109
     59          1           0      -12.961966    0.829894    1.822736
     60          1           0       -9.271620    2.209756   -1.232132
     61          1           0      -10.203698    2.869169   -0.194485
     62          1           0      -10.708668    2.745166   -2.063548
     63          1           0      -11.714175   -0.775803   -2.314573
     64          1           0      -10.204429   -0.012267   -2.602794
     65          1           0      -11.526124    0.740998   -3.341981
     66          1           0       10.210327    0.363046    2.560741
     67          1           0       11.810146    0.988390    2.735093
     68          1           0       11.514995   -0.874347    3.511150
     69          1           0       14.520987   -2.281878    0.296132
     70          1           0       -8.668763    0.291351   -0.706813
     71          1           0        8.993986    1.853181    0.326038
     72          1           0      -11.377731   -2.383470    2.254842
     73          1           0       -9.937623   -1.223053    2.309775
     74          1           0      -11.591375   -0.926487    3.240320
     75          1           0      -15.185799    1.338753   -0.760682
     76          1           0       -9.589611   -2.493520    0.393687
     77          1           0        5.890800   -0.973558   -0.388948
     78          1           0        7.446336   -1.336115   -1.114057
     79          1           0        6.867298   -1.649609    0.709279
     80          1           0        6.738111    2.409918    0.487703
     81          1           0       -6.857982   -3.944768   -1.142254
     82          1           0       -6.331525   -3.973595    0.630378
     83          1           0       -7.984996   -4.200365    0.047486
     84          1           0       -6.928864   -0.255063    0.202459
     85          1           0        4.471235    0.384541    0.049607
     86          1           0       -4.681271   -2.512778   -0.213719
     87          1           0        4.495261    3.369967    0.764285
     88          1           0       -4.548053    0.311499    0.323734
     89          1           0        1.290800    3.826900    1.783944
     90          1           0        1.688359    4.522601    0.144053
     91          1           0        2.897794    4.642108    1.292487
     92          1           0        2.197320    0.525607    0.180705
     93          1           0       -2.481218    1.145515    0.494905
     94          1           0       -2.405097   -2.402964   -1.550639
     95          1           0       -1.016153   -2.172288   -0.716068
     96          1           0       -2.328760   -2.888426    0.306434
     97          1           0        0.025870    2.252110    0.431621
     98          1           0       -0.002103   -0.761700   -0.216266
 ---------------------------------------------------------------------

 SCF Done:  E(RCAM-B3LYP) =  -1706.88722674     A.U. after   14 cycles

 Excitation energies and oscillator strengths:

 Excited State   1:      Singlet-A      2.5244 eV  491.14 nm  f=3.0250  <S**2>=0.000
     155 ->158         0.16420
     156 ->157         0.68411
 This state for optimization and/or second-order correction.
 Total Energy, E(TD-HF/TD-DFT) =  -1706.79445627
 Copying the excited state density for this state as the 1-particle RhoCI density.

 The electronic state is 1-A.
 Alpha  occ. eigenvalues --  -19.21339 -19.21157 -10.31513 -10.31356 -10.28149
 Alpha  occ. eigenvalues --  -10.28042 -10.27956 -10.27842 -10.27766 -10.27712
 Alpha  occ. eigenvalues --  -10.27521 -10.27414 -10.27171 -10.27075 -10.27008
 Alpha  occ. eigenvalues --  -10.26974 -10.26928 -10.26862 -10.26649 -10.26641
 Alpha  occ. eigenvalues --  -10.26576 -10.26573 -10.26530 -10.26324 -10.26018
 Alpha  occ. eigenvalues --  -10.25886 -10.25778 -10.25775 -10.25733 -10.25675
 Alpha  occ. eigenvalues --  -10.25523 -10.25396 -10.25340 -10.25202 -10.25107
 Alpha  occ. eigenvalues --  -10.25094 -10.24820 -10.24722 -10.24414 -10.23112
 Alpha  occ. eigenvalues --  -10.22612 -10.22392  -1.06792  -1.05944  -0.94343
 Alpha  occ. eigenvalues --   -0.93724  -0.92084  -0.91689  -0.90590  -0.89833
 Alpha  occ. eigenvalues --   -0.87662  -0.86839  -0.86630  -0.85213  -0.84563
 Alpha  occ. eigenvalues --   -0.83174  -0.81922  -0.80367  -0.79868  -0.78050
 Alpha  occ. eigenvalues --   -0.77834  -0.77015  -0.76356  -0.76246  -0.75849
 Alpha  occ. eigenvalues --   -0.75662  -0.75508  -0.74938  -0.73824  -0.70543
 Alpha  occ. eigenvalues --   -0.68783  -0.67536  -0.66896  -0.64930  -0.64307
 Alpha  occ. eigenvalues --   -0.63512  -0.63235  -0.62147  -0.61596  -0.60919
 Alpha  occ. eigenvalues --   -0.60301  -0.58397  -0.57990  -0.57076  -0.56237
 Alpha  occ. eigenvalues --   -0.55852  -0.55230  -0.54283  -0.54170  -0.53443
 Alpha  occ. eigenvalues --   -0.53167  -0.52761  -0.52247  -0.51921  -0.51241
 Alpha  occ. eigenvalues --   -0.51166  -0.50151  -0.49893  -0.49178  -0.49000
 Alpha  occ. eigenvalues --   -0.48901  -0.48682  -0.48360  -0.48199  -0.47962
 Alpha  occ. eigenvalues --   -0.47671  -0.47378  -0.47162  -0.47091  -0.46505
 Alpha  occ. eigenvalues --   -0.46377  -0.45935  -0.45488  -0.45405  -0.44915
 Alpha  occ. eigenvalues --   -0.44813  -0.44633  -0.44202  -0.43979  -0.43808
 Alpha  occ. eigenvalues --   -0.43342  -0.43032  -0.42717  -0.42518  -0.42034
 Alpha  occ. eigenvalues --   -0.41809  -0.41000  -0.40806  -0.40716  -0.40367
 Alpha  occ. eigenvalues --   -0.40084  -0.40045  -0.39647  -0.39436  -0.39301
 Alpha  occ. eigenvalues --   -0.39138  -0.38866  -0.38649  -0.38166  -0.37993
 Alpha  occ. eigenvalues --   -0.37491  -0.37215  -0.37043  -0.36142  -0.35427
 Alpha  occ. eigenvalues --   -0.34953  -0.34304  -0.33782  -0.32083  -0.31628
 Alpha  occ. eigenvalues --   -0.31257  -0.29880  -0.29471  -0.26781  -0.24146
 Alpha  occ. eigenvalues --   -0.20680
 Alpha virt. eigenvalues --   -0.05006  -0.01050   0.02320   0.05259   0.06738
 Alpha virt. eigenvalues --    0.08594   0.11071   0.11566   0.12002   0.12412
 Alpha virt. eigenvalues --    0.12623   0.13065   0.13487   0.14064   0.14165

 Mulliken charges:
               1
     1  O   -0.546116
     2  O   -0.571208
     3  C    0.027877
     4  C   -0.160776
     5  C   -0.122779
     6  C    0.076748
     7  C    0.161070
     8  C    0.005925
     9  C   -0.322079
    10  C   -0.306278
    11  C   -0.177831
    12  C   -0.148051
    13  C    0.144522
    14  C    0.047588
    15  C   -0.100201
    16  C   -0.209753
    17  C    0.019053
    18  C   -0.330121
    19  C   -0.303340
    20  C   -0.351194
    21  C   -0.102400
    22  C   -0.111874
    23  C   -0.357263
    24  C    0.095480
    25  C   -0.098990
    26  C   -0.359173
    27  C    0.078420
    28  C   -0.093473
    29  C   -0.351549
    30  C   -0.130953
    31  C   -0.073552
    32  C   -0.080903
    33  C   -0.109332
    34  C    0.061844
    35  C   -0.073732
    36  C    0.081693
    37  C   -0.370266
    38  C   -0.098484
    39  C   -0.105756
    40  C   -0.380622
    41  C   -0.029753
    42  C   -0.084976
    43  H    0.086172
    44  H    0.118093
    45  H    0.085366
    46  H    0.069324
    47  H    0.091391
    48  H    0.087959
    49  H    0.103778
    50  H    0.107785
    51  H    0.119802
    52  H    0.074076
    53  H    0.117535
    54  H    0.071245
    55  H    0.073483
    56  H    0.064031
    57  H    0.079260
    58  H    0.120938
    59  H    0.119144
    60  H    0.100757
    61  H    0.105404
    62  H    0.095245
    63  H    0.103208
    64  H    0.114829
    65  H    0.101316
    66  H    0.130669
    67  H    0.104648
    68  H    0.109013
    69  H    0.300890
    70  H    0.085237
    71  H    0.084104
    72  H    0.110366
    73  H    0.120965
    74  H    0.121276
    75  H    0.301052
    76  H    0.091562
    77  H    0.116637
    78  H    0.113783
    79  H    0.127402
    80  H    0.076040
    81  H    0.108418
    82  H    0.103062
    83  H    0.107012
    84  H    0.054637
    85  H    0.076250
    86  H    0.085793
    87  H    0.072535
    88  H    0.079945
    89  H    0.140070
    90  H    0.126881
    91  H    0.105792
    92  H    0.063326
    93  H    0.072126
    94  H    0.109574
    95  H    0.104064
    96  H    0.125193
    97  H    0.046045
    98  H    0.078054
 Sum of Mulliken charges =  -0.00000

 Dipole moment (field-independent basis, Debye):
    X=             -0.8984    Y=             -0.4583    Z=              0.1420  Tot=              1.0185
 Quadrupole moment (field-independent basis, Debye-Ang):
   XX=           -311.3300   YY=           -242.4275   ZZ=           -261.4768
   XY=             -1.3003   XZ=             38.0659   YZ=             -3.9748

 Normal termination of Gaussian 16 at Mon Jul 15 10:29:42 2019.
