 Gaussian 16, Revision A.03,
 Gaussian 16:  ES64L-G16RevA.03 25-Dec-2016

 -------------------------------------
 # td=(NStates=1) CAM-B3LYP/6-31G(d,p)
 -------------------------------------

 --
 TD
 --
 Symbolic Z-matrix:
 Charge =  0 Multiplicity = 1

                         Standard orientation:
 ---------------------------------------------------------------------
 Center     Atomic      Atomic             Coordinates (Angstroms)
 Number     Number       Type             X           Y           Z
 ---------------------------------------------------------------------
      1          8           0      -14.039720   -2.070129    0.586992
      2          8           0       14.710730    1.012187    0.224307
      3          6           0      -11.826811    0.113967    1.163935
      4          6           0      -10.955409    0.414053   -0.148143
      5          6           0      -11.912997   -1.345626    1.382690
      6          6           0      -12.645118   -2.216212    0.265121
      7          6           0      -11.544515   -0.399591   -1.218754
      8          6           0       10.990515    1.127823    0.974471
      9          6           0      -11.060480    0.658112    2.384826
     10          6           0      -13.180617    0.736855    1.181729
     11          6           0       12.461370    1.598078    0.718996
     12          6           0      -12.293352   -1.562402   -0.999156
     13          6           0       13.382420    0.520175    0.371387
     14          6           0       10.626577   -0.055557   -0.003680
     15          6           0       -9.493635   -0.039627   -0.049011
     16          6           0       13.049146   -0.295992   -0.854442
     17          6           0       11.621441   -0.626283   -0.836627
     18          6           0       10.075926    2.300478    0.878681
     19          6           0       10.911572    0.451725    2.394529
     20          6           0      -11.303505   -0.011859   -2.576148
     21          6           0       -8.412479    0.905562   -0.069207
     22          6           0        9.280491   -0.588912    0.098415
     23          6           0       11.221448   -1.656847   -1.917220
     24          6           0       -7.102054    0.573540    0.037887
     25          6           0        8.834886   -1.824360   -0.052612
     26          6           0       -6.716737   -0.842852    0.346281
     27          6           0        7.417544   -2.197994   -0.030622
     28          6           0       -6.205094    1.527082   -0.222037
     29          6           0        7.142807   -3.584730    0.186065
     30          6           0        6.417554   -1.363135   -0.175045
     31          6           0       -4.764669    1.420064   -0.267013
     32          6           0        5.020370   -1.524940   -0.205940
     33          6           0       -3.989428    2.438398   -0.584764
     34          6           0       -2.468152    2.486912   -0.709285
     35          6           0        3.986025   -0.527228   -0.357174
     36          6           0        2.595237   -0.690552   -0.197074
     37          6           0       -2.009500    3.866045   -1.137084
     38          6           0       -1.658489    1.448822   -0.517815
     39          6           0        1.715709    0.350614   -0.402534
     40          6           0        2.190725   -2.000477    0.253590
     41          6           0       -0.352703    1.494386   -0.609649
     42          6           0        0.336873    0.251084   -0.384543
     43          1           0      -11.005203    1.401716   -0.539526
     44          1           0      -12.554422   -1.596468    2.339677
     45          1           0      -10.847483   -1.937261    1.419581
     46          1           0      -12.256127   -3.165173    0.176992
     47          1           0      -10.146788    0.275165    2.545328
     48          1           0      -10.985264    1.641336    2.450489
     49          1           0      -11.420612    0.337301    3.244875
     50          1           0      -13.842505    0.108638    0.308980
     51          1           0      -13.846311    0.632470    1.958560
     52          1           0      -13.101275    1.762848    0.976001
     53          1           0       12.321961    2.262859   -0.164105
     54          1           0       12.772954    2.159816    1.452333
     55          1           0      -12.501535   -2.091429   -1.958064
     56          1           0       13.484058   -0.121000    1.149094
     57          1           0       -9.233895   -1.171731    0.135607
     58          1           0       13.709744   -1.198637   -1.064472
     59          1           0       13.026716    0.553250   -1.728802
     60          1           0        9.131820    2.222550    1.425004
     61          1           0        9.866588    2.668369   -0.243654
     62          1           0       10.520395    3.080728    1.396236
     63          1           0       11.705592   -0.379114    2.716642
     64          1           0        9.910141   -0.048349    2.577257
     65          1           0       10.984635    1.245023    3.131854
     66          1           0      -10.206712    0.248129   -2.837339
     67          1           0      -11.591477    1.011380   -2.849557
     68          1           0      -11.795264   -0.535006   -3.312419
     69          1           0      -14.665024   -1.842613   -0.329098
     70          1           0        8.518506    0.264107    0.195051
     71          1           0       -8.772200    1.954876   -0.305716
     72          1           0       11.404615   -2.791515   -1.802214
     73          1           0       10.242333   -1.564596   -2.236047
     74          1           0       11.873894   -1.471869   -2.580717
     75          1           0       15.037290    1.547967    0.951498
     76          1           0        9.597971   -2.617991   -0.029040
     77          1           0       -5.770083   -1.141808    0.452388
     78          1           0       -7.245108   -1.193066    1.406856
     79          1           0       -7.027387   -1.632590   -0.398121
     80          1           0       -6.300121    2.736281   -0.193989
     81          1           0        7.020774   -3.670051    1.372304
     82          1           0        6.228061   -3.907500   -0.277204
     83          1           0        7.849838   -4.212252   -0.528701
     84          1           0        6.749839   -0.291246   -0.425951
     85          1           0       -4.124503    0.469303   -0.153067
     86          1           0        4.626504   -2.525045   -0.047801
     87          1           0       -4.599938    3.342914   -0.769887
     88          1           0        4.455979    0.472687   -0.647960
     89          1           0       -1.211019    3.856037   -2.068451
     90          1           0       -1.579814    4.623163   -0.244623
     91          1           0       -2.964393    4.457313   -1.349155
     92          1           0       -2.151076    0.678557   -0.149209
     93          1           0        2.336223    1.219769   -0.568730
     94          1           0        3.265377   -2.458061    1.052356
     95          1           0        1.107287   -2.037300    0.948387
     96          1           0        2.259873   -2.778924   -0.448920
     97          1           0        0.392345    2.236761   -0.662719
     98          1           0       -0.321192   -0.598772   -0.036619
 ---------------------------------------------------------------------

 SCF Done:  E(RCAM-B3LYP) =  -1706.83511956     A.U. after   15 cycles

 Excitation energies and oscillator strengths:

 Excited State   1:      Singlet-A      2.1915 eV  565.74 nm  f=3.0392  <S**2>=0.000
     155 ->158         0.13587
     156 ->157         0.69296
 This state for optimization and/or second-order correction.
 Total Energy, E(TD-HF/TD-DFT) =  -1706.75458242
 Copying the excited state density for this state as the 1-particle RhoCI density.

 The electronic state is 1-A.
 Alpha  occ. eigenvalues --  -19.21879 -19.19777 -10.29569 -10.28995 -10.28300
 Alpha  occ. eigenvalues --  -10.28090 -10.27851 -10.27812 -10.27669 -10.27627
 Alpha  occ. eigenvalues --  -10.27266 -10.27220 -10.27170 -10.26980 -10.26785
 Alpha  occ. eigenvalues --  -10.26635 -10.26592 -10.26569 -10.26554 -10.26540
 Alpha  occ. eigenvalues --  -10.26523 -10.26520 -10.26387 -10.26306 -10.26113
 Alpha  occ. eigenvalues --  -10.26021 -10.26004 -10.25970 -10.25931 -10.25763
 Alpha  occ. eigenvalues --  -10.25721 -10.25656 -10.25409 -10.25267 -10.24822
 Alpha  occ. eigenvalues --  -10.24723 -10.24531 -10.24071 -10.23989 -10.23157
 Alpha  occ. eigenvalues --  -10.23154 -10.19917  -1.08681  -1.06289  -0.93912
 Alpha  occ. eigenvalues --   -0.93449  -0.93357  -0.92356  -0.91889  -0.90931
 Alpha  occ. eigenvalues --   -0.87854  -0.87599  -0.87546  -0.85916  -0.84591
 Alpha  occ. eigenvalues --   -0.83044  -0.82089  -0.80961  -0.80505  -0.78514
 Alpha  occ. eigenvalues --   -0.77547  -0.77135  -0.76970  -0.76309  -0.75406
 Alpha  occ. eigenvalues --   -0.75083  -0.74611  -0.74201  -0.73503  -0.70136
 Alpha  occ. eigenvalues --   -0.69297  -0.68315  -0.66778  -0.65052  -0.63983
 Alpha  occ. eigenvalues --   -0.63389  -0.63198  -0.62591  -0.61284  -0.60115
 Alpha  occ. eigenvalues --   -0.58748  -0.58223  -0.57755  -0.57459  -0.56452
 Alpha  occ. eigenvalues --   -0.56205  -0.55726  -0.55181  -0.54634  -0.54345
 Alpha  occ. eigenvalues --   -0.53707  -0.53643  -0.52992  -0.52228  -0.51383
 Alpha  occ. eigenvalues --   -0.50876  -0.50469  -0.49983  -0.49536  -0.49405
 Alpha  occ. eigenvalues --   -0.48772  -0.48421  -0.48134  -0.47766  -0.47562
 Alpha  occ. eigenvalues --   -0.47409  -0.47202  -0.46707  -0.46602  -0.46312
 Alpha  occ. eigenvalues --   -0.45930  -0.45768  -0.45152  -0.45062  -0.44998
 Alpha  occ. eigenvalues --   -0.44846  -0.44259  -0.44014  -0.43838  -0.43285
 Alpha  occ. eigenvalues --   -0.42945  -0.42278  -0.42110  -0.41723  -0.41378
 Alpha  occ. eigenvalues --   -0.41294  -0.40967  -0.40579  -0.40411  -0.40357
 Alpha  occ. eigenvalues --   -0.40291  -0.40050  -0.39877  -0.39598  -0.39303
 Alpha  occ. eigenvalues --   -0.39186  -0.38844  -0.38622  -0.38430  -0.38225
 Alpha  occ. eigenvalues --   -0.37612  -0.36941  -0.36596  -0.35881  -0.35496
 Alpha  occ. eigenvalues --   -0.35301  -0.34543  -0.33739  -0.32499  -0.31989
 Alpha  occ. eigenvalues --   -0.30739  -0.28349  -0.27690  -0.25843  -0.23872
 Alpha  occ. eigenvalues --   -0.19531
 Alpha virt. eigenvalues --   -0.05965  -0.00846   0.01846   0.04894   0.06057
 Alpha virt. eigenvalues --    0.08929   0.10471   0.10928   0.11447   0.11743
 Alpha virt. eigenvalues --    0.12351   0.12855   0.13230   0.13393   0.13771

 Mulliken charges:
               1
     1  O   -0.557992
     2  O   -0.588147
     3  C    0.034320
     4  C   -0.143957
     5  C   -0.181751
     6  C    0.182235
     7  C    0.175134
     8  C   -0.004039
     9  C   -0.289885
    10  C   -0.275002
    11  C   -0.184742
    12  C   -0.201969
    13  C    0.206108
    14  C    0.043823
    15  C   -0.086827
    16  C   -0.227334
    17  C    0.033090
    18  C   -0.317778
    19  C   -0.309548
    20  C   -0.383865
    21  C   -0.114089
    22  C   -0.100189
    23  C   -0.347204
    24  C    0.160505
    25  C   -0.105897
    26  C   -0.368835
    27  C    0.103333
    28  C   -0.160006
    29  C   -0.377002
    30  C   -0.106159
    31  C   -0.043627
    32  C   -0.102365
    33  C   -0.136758
    34  C    0.092832
    35  C   -0.139527
    36  C    0.160887
    37  C   -0.365584
    38  C   -0.075190
    39  C   -0.123983
    40  C   -0.366770
    41  C   -0.053301
    42  C   -0.092788
    43  H    0.089719
    44  H    0.100509
    45  H    0.059028
    46  H    0.098973
    47  H    0.099854
    48  H    0.093434
    49  H    0.097305
    50  H    0.061064
    51  H    0.119362
    52  H    0.090652
    53  H    0.094912
    54  H    0.086730
    55  H    0.063652
    56  H    0.086602
    57  H    0.095114
    58  H    0.121700
    59  H    0.107234
    60  H    0.108377
    61  H    0.096655
    62  H    0.109936
    63  H    0.092902
    64  H    0.109230
    65  H    0.091204
    66  H    0.109721
    67  H    0.107472
    68  H    0.117176
    69  H    0.303023
    70  H    0.081501
    71  H    0.085548
    72  H    0.089640
    73  H    0.129855
    74  H    0.110778
    75  H    0.299088
    76  H    0.095429
    77  H    0.121443
    78  H    0.097140
    79  H    0.116383
    80  H    0.083122
    81  H    0.121775
    82  H    0.119469
    83  H    0.099200
    84  H    0.059372
    85  H    0.072517
    86  H    0.069275
    87  H    0.071497
    88  H    0.071699
    89  H    0.105618
    90  H    0.094214
    91  H    0.109486
    92  H    0.066640
    93  H    0.086717
    94  H    0.050099
    95  H    0.081357
    96  H    0.141180
    97  H    0.101678
    98  H    0.096582
 Sum of Mulliken charges =  -0.00000

 Dipole moment (field-independent basis, Debye):
    X=              0.7187    Y=              0.9837    Z=             -0.2671  Tot=              1.2472
 Quadrupole moment (field-independent basis, Debye-Ang):
   XX=           -277.9618   YY=           -246.2863   ZZ=           -261.8814
   XY=             -1.5351   XZ=             37.0016   YZ=              4.9706

 Normal termination of Gaussian 16 at Fri Jul 12 23:48:03 2019.
