 Gaussian 16, Revision A.03,
 Gaussian 16:  ES64L-G16RevA.03 25-Dec-2016

 -------------------------------------
 # td=(NStates=1) CAM-B3LYP/6-31G(d,p)
 -------------------------------------

 --
 TD
 --
 Symbolic Z-matrix:
 Charge =  0 Multiplicity = 1

                         Standard orientation:
 ---------------------------------------------------------------------
 Center     Atomic      Atomic             Coordinates (Angstroms)
 Number     Number       Type             X           Y           Z
 ---------------------------------------------------------------------
      1          8           0      -14.133553   -2.042083    0.555110
      2          8           0       14.908132    0.935946    0.080527
      3          6           0      -11.748671    0.050374    1.294377
      4          6           0      -11.057746    0.183189   -0.095478
      5          6           0      -11.920454   -1.542256    1.537872
      6          6           0      -12.690515   -2.124469    0.400280
      7          6           0      -11.613363   -0.478238   -1.241653
      8          6           0       11.123467    0.905394    0.929400
      9          6           0      -10.912139    0.691626    2.390969
     10          6           0      -13.062130    0.726411    1.058030
     11          6           0       12.537161    1.456892    0.665669
     12          6           0      -12.317974   -1.583490   -1.001254
     13          6           0       13.569078    0.357969    0.358743
     14          6           0       10.619578   -0.066435   -0.028481
     15          6           0       -9.529815   -0.154142   -0.014792
     16          6           0       13.007044   -0.352530   -0.992741
     17          6           0       11.549172   -0.607554   -0.947410
     18          6           0       10.149212    2.101267    1.179179
     19          6           0       11.190826    0.223511    2.416523
     20          6           0      -11.279831    0.069583   -2.553083
     21          6           0       -8.565116    0.832793   -0.224236
     22          6           0        9.229610   -0.467235    0.112755
     23          6           0       11.107982   -1.475762   -2.113102
     24          6           0       -7.112512    0.612246   -0.281712
     25          6           0        8.688913   -1.705789   -0.106112
     26          6           0       -6.688367   -0.790643    0.019784
     27          6           0        7.413494   -2.041648   -0.033254
     28          6           0       -6.240025    1.663185   -0.418105
     29          6           0        7.074714   -3.469534    0.212073
     30          6           0        6.319259   -1.121414   -0.091797
     31          6           0       -4.802310    1.577233   -0.347724
     32          6           0        4.948463   -1.428063    0.004656
     33          6           0       -3.959450    2.662968   -0.585107
     34          6           0       -2.554709    2.689292   -0.542352
     35          6           0        3.972374   -0.459261   -0.165639
     36          6           0        2.617329   -0.754311   -0.191866
     37          6           0       -1.894956    3.973733   -0.806728
     38          6           0       -1.878802    1.486294   -0.434008
     39          6           0        1.753751    0.275552   -0.362064
     40          6           0        1.939901   -2.139995    0.109977
     41          6           0       -0.395978    1.397593   -0.537489
     42          6           0        0.329412    0.287107   -0.257939
     43          1           0      -10.858723    1.483684   -0.325414
     44          1           0      -12.582864   -1.703585    2.536385
     45          1           0      -10.888110   -1.938777    1.751255
     46          1           0      -12.393963   -3.080440    0.506168
     47          1           0      -10.108948    0.015318    2.692848
     48          1           0      -10.387507    1.648282    2.180748
     49          1           0      -11.466359    0.866526    3.323853
     50          1           0      -13.660745    0.166943    0.213719
     51          1           0      -13.665915    0.934534    2.160914
     52          1           0      -13.039114    1.814875    0.823062
     53          1           0       12.336276    2.238255   -0.080880
     54          1           0       13.000166    1.876590    1.501009
     55          1           0      -12.826275   -2.078582   -1.866805
     56          1           0       13.379661   -0.515756    0.918505
     57          1           0       -9.127191   -1.198193    0.143233
     58          1           0       13.682278   -1.233477   -1.252489
     59          1           0       13.263417    0.615722   -1.598680
     60          1           0        9.184542    2.049403    1.731276
     61          1           0       10.064328    2.794050    0.315662
     62          1           0       10.892180    2.803599    1.958571
     63          1           0       11.829180   -0.711725    2.211306
     64          1           0       10.135701   -0.033555    2.692435
     65          1           0       11.665865    0.945251    3.156921
     66          1           0      -10.323314    0.125604   -2.593434
     67          1           0      -11.702656    1.008531   -2.478869
     68          1           0      -11.717997   -0.557186   -3.530140
     69          1           0      -14.511489   -2.719349   -0.143890
     70          1           0        8.676420    0.318963    0.594114
     71          1           0       -8.886157    1.774104   -0.493026
     72          1           0       11.533308   -2.495780   -2.030047
     73          1           0       10.138070   -1.537723   -2.438721
     74          1           0       11.623711   -1.002543   -2.959976
     75          1           0       15.355849    1.373567    0.833802
     76          1           0        9.443753   -2.488213   -0.124986
     77          1           0       -5.597494   -0.895935   -0.131253
     78          1           0       -6.907068   -1.286904    0.998097
     79          1           0       -7.043607   -1.510005   -0.573356
     80          1           0       -6.706710    2.538098   -0.731638
     81          1           0        6.817136   -3.677705    1.177609
     82          1           0        6.510469   -3.882386   -0.550454
     83          1           0        8.059640   -3.954699    0.231786
     84          1           0        6.491917   -0.057859   -0.389817
     85          1           0       -4.459065    0.510123   -0.215832
     86          1           0        4.696969   -2.568510    0.071408
     87          1           0       -4.525072    3.687299   -0.597246
     88          1           0        4.347270    0.713236   -0.298201
     89          1           0       -1.339661    3.940149   -1.766557
     90          1           0       -0.941702    4.131459   -0.225095
     91          1           0       -2.695962    4.831619   -0.818398
     92          1           0       -2.436857    0.556254   -0.489181
     93          1           0        2.116308    1.340816   -0.493515
     94          1           0        1.960144   -2.429008    1.206178
     95          1           0        1.000577   -2.219997   -0.536734
     96          1           0        2.814792   -2.938753   -0.384059
     97          1           0        0.264473    2.321843   -1.042177
     98          1           0       -0.175786   -0.627622    0.247950
 ---------------------------------------------------------------------

 SCF Done:  E(RCAM-B3LYP) =  -1706.94964286     A.U. after   15 cycles

 Excitation energies and oscillator strengths:

 Excited State   1:      Singlet-A      2.1241 eV  583.69 nm  f=3.0846  <S**2>=0.000
     155 ->158        -0.18082
     156 ->157         0.68033
 This state for optimization and/or second-order correction.
 Total Energy, E(TD-HF/TD-DFT) =  -1706.87158225
 Copying the excited state density for this state as the 1-particle RhoCI density.

 The electronic state is 1-A.
 Alpha  occ. eigenvalues --  -19.22258 -19.21926 -10.31131 -10.30112 -10.28605
 Alpha  occ. eigenvalues --  -10.28237 -10.28046 -10.27535 -10.27498 -10.27450
 Alpha  occ. eigenvalues --  -10.27394 -10.27258 -10.27192 -10.27120 -10.27101
 Alpha  occ. eigenvalues --  -10.26994 -10.26931 -10.26909 -10.26765 -10.26636
 Alpha  occ. eigenvalues --  -10.26631 -10.26596 -10.26551 -10.26340 -10.26054
 Alpha  occ. eigenvalues --  -10.25949 -10.25929 -10.25879 -10.25813 -10.25804
 Alpha  occ. eigenvalues --  -10.25770 -10.25726 -10.25604 -10.25103 -10.24869
 Alpha  occ. eigenvalues --  -10.24755 -10.24754 -10.24669 -10.24444 -10.24083
 Alpha  occ. eigenvalues --  -10.23914 -10.23547  -1.07650  -1.07513  -0.94109
 Alpha  occ. eigenvalues --   -0.93736  -0.92106  -0.91789  -0.90923  -0.90172
 Alpha  occ. eigenvalues --   -0.87351  -0.86805  -0.86315  -0.85070  -0.84483
 Alpha  occ. eigenvalues --   -0.83048  -0.82364  -0.80463  -0.80314  -0.77585
 Alpha  occ. eigenvalues --   -0.77267  -0.77049  -0.76730  -0.75305  -0.75013
 Alpha  occ. eigenvalues --   -0.74716  -0.74175  -0.74153  -0.72560  -0.70633
 Alpha  occ. eigenvalues --   -0.69357  -0.67057  -0.66312  -0.64959  -0.63696
 Alpha  occ. eigenvalues --   -0.63105  -0.62449  -0.61063  -0.60288  -0.59372
 Alpha  occ. eigenvalues --   -0.59096  -0.58736  -0.58129  -0.57779  -0.55845
 Alpha  occ. eigenvalues --   -0.55506  -0.54860  -0.54586  -0.54233  -0.53839
 Alpha  occ. eigenvalues --   -0.53289  -0.52544  -0.52085  -0.51860  -0.51305
 Alpha  occ. eigenvalues --   -0.51161  -0.50404  -0.49986  -0.49685  -0.49335
 Alpha  occ. eigenvalues --   -0.48883  -0.48306  -0.48097  -0.47839  -0.47517
 Alpha  occ. eigenvalues --   -0.47379  -0.46993  -0.46522  -0.46154  -0.45980
 Alpha  occ. eigenvalues --   -0.45748  -0.45427  -0.45166  -0.44685  -0.44494
 Alpha  occ. eigenvalues --   -0.44211  -0.44007  -0.43989  -0.43444  -0.43238
 Alpha  occ. eigenvalues --   -0.43115  -0.42982  -0.42313  -0.42095  -0.41947
 Alpha  occ. eigenvalues --   -0.41810  -0.41329  -0.41174  -0.40931  -0.40767
 Alpha  occ. eigenvalues --   -0.40469  -0.40359  -0.39588  -0.39386  -0.39260
 Alpha  occ. eigenvalues --   -0.38793  -0.38671  -0.38477  -0.38054  -0.37636
 Alpha  occ. eigenvalues --   -0.37014  -0.36830  -0.36783  -0.36200  -0.35236
 Alpha  occ. eigenvalues --   -0.35025  -0.34024  -0.33482  -0.32893  -0.32121
 Alpha  occ. eigenvalues --   -0.31148  -0.29074  -0.28686  -0.26592  -0.22784
 Alpha  occ. eigenvalues --   -0.19208
 Alpha virt. eigenvalues --   -0.05661  -0.02179   0.02577   0.05427   0.06911
 Alpha virt. eigenvalues --    0.08432   0.10747   0.11220   0.11358   0.11682
 Alpha virt. eigenvalues --    0.11857   0.12180   0.12611   0.13162   0.13658

 Mulliken charges:
               1
     1  O   -0.547149
     2  O   -0.580333
     3  C    0.045578
     4  C   -0.148186
     5  C   -0.196890
     6  C    0.139117
     7  C    0.153134
     8  C   -0.064425
     9  C   -0.315496
    10  C   -0.280809
    11  C   -0.163040
    12  C   -0.155502
    13  C    0.144122
    14  C    0.113859
    15  C   -0.091548
    16  C   -0.254999
    17  C    0.028503
    18  C   -0.309259
    19  C   -0.283975
    20  C   -0.326689
    21  C   -0.089987
    22  C   -0.107499
    23  C   -0.357254
    24  C    0.104855
    25  C   -0.120601
    26  C   -0.388161
    27  C    0.089435
    28  C   -0.114182
    29  C   -0.380296
    30  C   -0.119600
    31  C   -0.065146
    32  C   -0.090559
    33  C   -0.148470
    34  C    0.151112
    35  C   -0.114131
    36  C    0.114246
    37  C   -0.387461
    38  C   -0.133828
    39  C   -0.126392
    40  C   -0.353573
    41  C   -0.109111
    42  C   -0.075324
    43  H    0.044260
    44  H    0.102776
    45  H    0.102717
    46  H    0.098790
    47  H    0.097855
    48  H    0.102989
    49  H    0.098992
    50  H    0.130289
    51  H    0.048922
    52  H    0.092568
    53  H    0.102519
    54  H    0.084889
    55  H    0.061545
    56  H    0.109908
    57  H    0.083003
    58  H    0.108974
    59  H    0.125014
    60  H    0.118081
    61  H    0.105302
    62  H    0.053604
    63  H    0.088128
    64  H    0.102789
    65  H    0.095502
    66  H    0.133977
    67  H    0.125631
    68  H    0.081921
    69  H    0.309901
    70  H    0.082695
    71  H    0.072172
    72  H    0.105876
    73  H    0.127436
    74  H    0.109894
    75  H    0.314447
    76  H    0.090433
    77  H    0.092443
    78  H    0.117659
    79  H    0.132548
    80  H    0.077992
    81  H    0.136159
    82  H    0.130119
    83  H    0.095647
    84  H    0.075336
    85  H    0.084605
    86  H    0.083847
    87  H    0.077843
    88  H    0.084003
    89  H    0.130268
    90  H    0.123715
    91  H    0.104411
    92  H    0.093154
    93  H    0.071898
    94  H    0.135609
    95  H    0.127871
    96  H    0.069806
    97  H    0.069603
    98  H    0.087578
 Sum of Mulliken charges =  -0.00000

 Dipole moment (field-independent basis, Debye):
    X=              0.8037    Y=             -1.3830    Z=             -0.0184  Tot=              1.5996
 Quadrupole moment (field-independent basis, Debye-Ang):
   XX=           -279.1152   YY=           -240.5153   ZZ=           -264.3831
   XY=             16.8213   XZ=             37.2272   YZ=              0.6413

 Normal termination of Gaussian 16 at Mon Jul 15 07:31:08 2019.
