 Gaussian 16, Revision A.03,
 Gaussian 16:  ES64L-G16RevA.03 25-Dec-2016

 -------------------------------------
 # td=(NStates=1) CAM-B3LYP/6-31G(d,p)
 -------------------------------------

 --
 TD
 --
 Symbolic Z-matrix:
 Charge =  0 Multiplicity = 1

                         Standard orientation:
 ---------------------------------------------------------------------
 Center     Atomic      Atomic             Coordinates (Angstroms)
 Number     Number       Type             X           Y           Z
 ---------------------------------------------------------------------
      1          8           0      -13.997893   -2.129256    0.643240
      2          8           0       14.771230    0.877352    0.322477
      3          6           0      -11.740615    0.031322    1.278420
      4          6           0      -10.924253    0.342870    0.040493
      5          6           0      -11.885256   -1.373385    1.504351
      6          6           0      -12.547395   -2.158020    0.421625
      7          6           0      -11.391737   -0.464308   -1.138436
      8          6           0       11.119440    0.940748    1.180682
      9          6           0      -11.096037    0.674226    2.520419
     10          6           0      -13.131250    0.739182    1.265772
     11          6           0       12.443481    1.510179    1.003159
     12          6           0      -12.265454   -1.437489   -0.871102
     13          6           0       13.393637    0.393857    0.477326
     14          6           0       10.607983   -0.048454    0.126379
     15          6           0       -9.502315   -0.042228    0.151549
     16          6           0       12.970911   -0.166218   -0.913283
     17          6           0       11.502838   -0.480144   -0.966924
     18          6           0       10.060230    2.087627    1.511108
     19          6           0       11.056349    0.122474    2.489901
     20          6           0      -11.224632   -0.012805   -2.527722
     21          6           0       -8.501984    0.766015   -0.140255
     22          6           0        9.206894   -0.516935    0.075353
     23          6           0       11.019636   -1.213218   -2.143698
     24          6           0       -7.127968    0.459171   -0.109320
     25          6           0        8.761205   -1.687747   -0.246482
     26          6           0       -6.660799   -0.896279    0.232684
     27          6           0        7.322235   -2.166459   -0.232304
     28          6           0       -6.099307    1.457377   -0.480113
     29          6           0        7.143294   -3.578737    0.064744
     30          6           0        6.396415   -1.193093   -0.435768
     31          6           0       -4.739454    1.399167   -0.540958
     32          6           0        4.961964   -1.480111   -0.358549
     33          6           0       -3.947852    2.608087   -0.707617
     34          6           0       -2.581127    2.698568   -0.941534
     35          6           0        4.017637   -0.507514   -0.381635
     36          6           0        2.659443   -0.809021   -0.326158
     37          6           0       -2.018481    4.010378   -1.045056
     38          6           0       -1.695645    1.562111   -0.776490
     39          6           0        1.753961    0.331465   -0.460551
     40          6           0        2.078777   -2.199127    0.068971
     41          6           0       -0.310691    1.589969   -0.631150
     42          6           0        0.402281    0.376923   -0.455661
     43          1           0      -10.944068    1.398065   -0.179249
     44          1           0      -12.522183   -1.726316    2.451243
     45          1           0      -10.847107   -1.945885    1.623092
     46          1           0      -12.222452   -3.194374    0.441876
     47          1           0      -10.123539    0.379679    2.782766
     48          1           0      -11.214998    1.811062    2.208400
     49          1           0      -11.759422    0.648126    3.429249
     50          1           0      -13.854551    0.457364    0.384843
     51          1           0      -13.885856    0.567066    2.128480
     52          1           0      -13.158103    1.843725    1.038954
     53          1           0       12.471312    2.334319    0.324361
     54          1           0       12.801851    1.744624    1.945590
     55          1           0      -12.424902   -1.983191   -1.688919
     56          1           0       13.605616   -0.239951    1.270672
     57          1           0       -9.057439   -1.100162    0.551912
     58          1           0       13.424850   -1.051968   -1.155228
     59          1           0       13.213702    0.656934   -1.650413
     60          1           0        9.230002    1.576242    2.005350
     61          1           0        9.700964    2.787181    0.713502
     62          1           0       10.433775    2.820430    2.322680
     63          1           0       11.689530   -0.662522    2.680714
     64          1           0       10.131504   -0.342676    2.538509
     65          1           0       11.128672    0.963363    3.294260
     66          1           0      -10.212903    0.511308   -2.578586
     67          1           0      -11.834545    0.861605   -2.809672
     68          1           0      -11.352235   -0.894955   -3.259736
     69          1           0      -14.364427   -2.415369   -0.332612
     70          1           0        8.512811    0.213156    0.381840
     71          1           0       -8.582111    1.888337   -0.497387
     72          1           0       11.114580   -2.390423   -2.128200
     73          1           0        9.943726   -0.974784   -2.433087
     74          1           0       11.510666   -0.725473   -2.846391
     75          1           0       15.187403    0.956322    1.078492
     76          1           0        9.466436   -2.445470   -0.207126
     77          1           0       -5.609268   -0.866679    0.312484
     78          1           0       -7.150824   -1.158578    1.155375
     79          1           0       -7.088892   -1.679431   -0.508404
     80          1           0       -6.700283    2.484072   -1.000178
     81          1           0        7.032275   -3.913373    1.094231
     82          1           0        6.203412   -3.936255   -0.554618
     83          1           0        8.034849   -4.110030   -0.422030
     84          1           0        6.708958   -0.215308   -0.554909
     85          1           0       -4.127846    0.398750   -0.340149
     86          1           0        4.809605   -2.579223   -0.121555
     87          1           0       -4.542729    3.374021   -0.838569
     88          1           0        4.279964    0.435370   -0.228212
     89          1           0       -1.533926    4.144980   -1.971541
     90          1           0       -1.416888    4.344780   -0.044102
     91          1           0       -2.884004    4.580025   -1.221063
     92          1           0       -2.224991    0.455014   -0.966065
     93          1           0        2.279582    1.341548   -0.439652
     94          1           0        2.088034   -2.200860    1.185071
     95          1           0        0.957815   -2.125154   -0.259462
     96          1           0        2.449313   -2.988354   -0.472659
     97          1           0        0.240966    2.547994   -0.334150
     98          1           0       -0.116544   -0.666028   -0.518778
 ---------------------------------------------------------------------

 SCF Done:  E(RCAM-B3LYP) =  -1706.92712636     A.U. after   17 cycles

 Excitation energies and oscillator strengths:

 Excited State   1:      Singlet-A      1.6622 eV  745.90 nm  f=2.7119  <S**2>=0.000
     155 ->158        -0.10550
     156 ->157         0.71468
     156 <-157        -0.16265
 This state for optimization and/or second-order correction.
 Total Energy, E(TD-HF/TD-DFT) =  -1706.86604113
 Copying the excited state density for this state as the 1-particle RhoCI density.

 The electronic state is 1-A.
 Alpha  occ. eigenvalues --  -19.21128 -19.18868 -10.30341 -10.29712 -10.28070
 Alpha  occ. eigenvalues --  -10.28042 -10.27584 -10.27312 -10.27307 -10.27299
 Alpha  occ. eigenvalues --  -10.27259 -10.27239 -10.27160 -10.27107 -10.26920
 Alpha  occ. eigenvalues --  -10.26819 -10.26774 -10.26672 -10.26587 -10.26586
 Alpha  occ. eigenvalues --  -10.26515 -10.26440 -10.26415 -10.26342 -10.26258
 Alpha  occ. eigenvalues --  -10.25819 -10.25774 -10.25602 -10.25367 -10.25245
 Alpha  occ. eigenvalues --  -10.25124 -10.25052 -10.24920 -10.24865 -10.24792
 Alpha  occ. eigenvalues --  -10.24769 -10.24707 -10.24643 -10.24167 -10.23937
 Alpha  occ. eigenvalues --  -10.23813 -10.23170  -1.09413  -1.06130  -0.95229
 Alpha  occ. eigenvalues --   -0.93721  -0.92071  -0.91622  -0.90662  -0.90220
 Alpha  occ. eigenvalues --   -0.87985  -0.87675  -0.87349  -0.85682  -0.85187
 Alpha  occ. eigenvalues --   -0.83208  -0.82285  -0.81220  -0.80616  -0.78596
 Alpha  occ. eigenvalues --   -0.77248  -0.77165  -0.76749  -0.75596  -0.75554
 Alpha  occ. eigenvalues --   -0.75335  -0.75168  -0.73692  -0.72129  -0.70199
 Alpha  occ. eigenvalues --   -0.69300  -0.67757  -0.67002  -0.65218  -0.63495
 Alpha  occ. eigenvalues --   -0.63160  -0.62253  -0.61346  -0.60629  -0.59626
 Alpha  occ. eigenvalues --   -0.59162  -0.58020  -0.57590  -0.56852  -0.56257
 Alpha  occ. eigenvalues --   -0.55645  -0.55503  -0.55123  -0.54684  -0.53630
 Alpha  occ. eigenvalues --   -0.53560  -0.53257  -0.52787  -0.52290  -0.51428
 Alpha  occ. eigenvalues --   -0.51324  -0.50875  -0.50291  -0.49970  -0.49525
 Alpha  occ. eigenvalues --   -0.49111  -0.48907  -0.48775  -0.48671  -0.47954
 Alpha  occ. eigenvalues --   -0.47685  -0.47539  -0.46969  -0.46374  -0.46061
 Alpha  occ. eigenvalues --   -0.45872  -0.45542  -0.45134  -0.44847  -0.44711
 Alpha  occ. eigenvalues --   -0.44213  -0.44091  -0.43863  -0.43454  -0.43361
 Alpha  occ. eigenvalues --   -0.43237  -0.42852  -0.42714  -0.42439  -0.42257
 Alpha  occ. eigenvalues --   -0.41768  -0.41277  -0.41093  -0.40827  -0.40603
 Alpha  occ. eigenvalues --   -0.40430  -0.40140  -0.39737  -0.39464  -0.39360
 Alpha  occ. eigenvalues --   -0.38843  -0.38453  -0.38386  -0.38156  -0.37910
 Alpha  occ. eigenvalues --   -0.37778  -0.36902  -0.36873  -0.36445  -0.35997
 Alpha  occ. eigenvalues --   -0.35359  -0.34913  -0.33539  -0.31863  -0.31773
 Alpha  occ. eigenvalues --   -0.31290  -0.29540  -0.28598  -0.25626  -0.23506
 Alpha  occ. eigenvalues --   -0.17450
 Alpha virt. eigenvalues --   -0.07303  -0.00811   0.02293   0.05021   0.06419
 Alpha virt. eigenvalues --    0.08624   0.10567   0.11220   0.11561   0.12121
 Alpha virt. eigenvalues --    0.12862   0.13028   0.13477   0.13733   0.13950

 Mulliken charges:
               1
     1  O   -0.555205
     2  O   -0.571606
     3  C    0.035714
     4  C   -0.150811
     5  C   -0.178071
     6  C    0.154479
     7  C    0.128854
     8  C   -0.019556
     9  C   -0.281548
    10  C   -0.310045
    11  C   -0.161906
    12  C   -0.123944
    13  C    0.144370
    14  C    0.056883
    15  C   -0.101812
    16  C   -0.201805
    17  C    0.013146
    18  C   -0.318020
    19  C   -0.303149
    20  C   -0.357027
    21  C   -0.052714
    22  C   -0.106053
    23  C   -0.350653
    24  C    0.097520
    25  C   -0.101507
    26  C   -0.371813
    27  C    0.091745
    28  C   -0.127151
    29  C   -0.383360
    30  C   -0.093389
    31  C   -0.088014
    32  C   -0.106517
    33  C   -0.089927
    34  C    0.072375
    35  C   -0.083022
    36  C    0.066748
    37  C   -0.361203
    38  C   -0.109501
    39  C   -0.119094
    40  C   -0.351711
    41  C   -0.097971
    42  C   -0.076815
    43  H    0.103183
    44  H    0.099970
    45  H    0.073581
    46  H    0.089867
    47  H    0.105416
    48  H    0.075856
    49  H    0.100152
    50  H    0.096628
    51  H    0.106900
    52  H    0.085054
    53  H    0.106829
    54  H    0.088725
    55  H    0.051922
    56  H    0.086947
    57  H    0.082097
    58  H    0.124121
    59  H    0.122049
    60  H    0.107603
    61  H    0.102524
    62  H    0.090789
    63  H    0.105301
    64  H    0.114087
    65  H    0.079411
    66  H    0.105874
    67  H    0.127113
    68  H    0.108720
    69  H    0.298941
    70  H    0.081445
    71  H    0.063246
    72  H    0.102433
    73  H    0.119309
    74  H    0.117095
    75  H    0.282357
    76  H    0.070653
    77  H    0.111613
    78  H    0.119639
    79  H    0.113491
    80  H    0.050033
    81  H    0.139442
    82  H    0.104356
    83  H    0.111657
    84  H    0.079258
    85  H    0.084003
    86  H    0.081886
    87  H    0.069601
    88  H    0.084679
    89  H    0.127572
    90  H    0.108658
    91  H    0.107620
    92  H    0.067925
    93  H    0.069810
    94  H    0.139671
    95  H    0.092501
    96  H    0.128126
    97  H    0.095229
    98  H    0.080117
 Sum of Mulliken charges =  -0.00000

 Dipole moment (field-independent basis, Debye):
    X=              2.4668    Y=             -1.4230    Z=              0.1190  Tot=              2.8503
 Quadrupole moment (field-independent basis, Debye-Ang):
   XX=           -285.7965   YY=           -244.2575   ZZ=           -261.1391
   XY=             -6.8151   XZ=             44.6930   YZ=              1.2107

 Normal termination of Gaussian 16 at Mon Jul 15 14:18:32 2019.
