 Gaussian 16, Revision A.03,
 Gaussian 16:  ES64L-G16RevA.03 25-Dec-2016

 -------------------------------------
 # td=(NStates=1) CAM-B3LYP/6-31G(d,p)
 -------------------------------------

 --
 TD
 --
 Symbolic Z-matrix:
 Charge =  0 Multiplicity = 1

                         Standard orientation:
 ---------------------------------------------------------------------
 Center     Atomic      Atomic             Coordinates (Angstroms)
 Number     Number       Type             X           Y           Z
 ---------------------------------------------------------------------
      1          8           0      -14.059190   -2.083043    0.253649
      2          8           0       14.786191    0.870244    0.147294
      3          6           0      -11.806949   -0.059584    1.253309
      4          6           0      -11.085552    0.335856   -0.002522
      5          6           0      -12.049050   -1.531909    1.264086
      6          6           0      -12.722837   -2.082727    0.042446
      7          6           0      -11.556870   -0.202035   -1.281893
      8          6           0       11.113699    1.020780    0.971660
      9          6           0      -11.000842    0.280420    2.500737
     10          6           0      -13.195179    0.557524    1.329251
     11          6           0       12.567614    1.400750    0.876728
     12          6           0      -12.265633   -1.382554   -1.253494
     13          6           0       13.502195    0.262538    0.398464
     14          6           0       10.710473   -0.022200   -0.043813
     15          6           0       -9.611522   -0.014769    0.026371
     16          6           0       13.097560   -0.316826   -0.905544
     17          6           0       11.580106   -0.608793   -0.908616
     18          6           0       10.320781    2.393588    0.698707
     19          6           0       10.927580    0.406681    2.368377
     20          6           0      -11.363707    0.522200   -2.526140
     21          6           0       -8.551900    0.828201   -0.070176
     22          6           0        9.252218   -0.313453   -0.001137
     23          6           0       11.202231   -1.547871   -2.078065
     24          6           0       -7.121685    0.547000   -0.056740
     25          6           0        8.793745   -1.632046   -0.096113
     26          6           0       -6.665997   -1.013798    0.125823
     27          6           0        7.365658   -2.008365   -0.098068
     28          6           0       -6.156446    1.586277   -0.271656
     29          6           0        7.147486   -3.535425    0.198702
     30          6           0        6.362476   -1.119667   -0.262184
     31          6           0       -4.780476    1.486403   -0.238376
     32          6           0        4.968587   -1.528453   -0.171914
     33          6           0       -3.993914    2.599155   -0.428316
     34          6           0       -2.555165    2.634781   -0.532375
     35          6           0        3.945776   -0.670471   -0.303049
     36          6           0        2.598893   -0.762513   -0.152176
     37          6           0       -1.976138    4.029251   -0.858038
     38          6           0       -1.712134    1.518961   -0.167150
     39          6           0        1.776449    0.317108   -0.389212
     40          6           0        2.059789   -2.196370    0.198317
     41          6           0       -0.379714    1.437954   -0.413598
     42          6           0        0.449508    0.278847   -0.353665
     43          1           0      -11.078591    1.350161   -0.114890
     44          1           0      -12.683735   -1.770168    2.216733
     45          1           0      -11.078920   -2.090800    1.490945
     46          1           0      -12.417075   -3.247335   -0.149166
     47          1           0      -10.128814   -0.329076    2.400229
     48          1           0      -11.042007    1.430573    2.800911
     49          1           0      -11.412787   -0.150598    3.368189
     50          1           0      -13.909143    0.349680    0.660336
     51          1           0      -13.594719    0.112227    2.276969
     52          1           0      -12.933685    1.586112    1.274715
     53          1           0       12.744765    2.016892    0.005086
     54          1           0       13.110022    1.721946    1.944113
     55          1           0      -12.577263   -1.878668   -2.003348
     56          1           0       13.443072   -0.501721    1.390676
     57          1           0       -9.301686   -1.136838    0.296786
     58          1           0       13.702922   -1.236055   -1.097872
     59          1           0       13.283835    0.359232   -1.687024
     60          1           0        9.347727    2.337416    1.143939
     61          1           0       10.114293    2.566463   -0.330206
     62          1           0       10.948724    3.282626    1.126819
     63          1           0       11.482803   -0.233577    2.583182
     64          1           0        9.800257    0.109827    2.424923
     65          1           0       11.153933    1.184065    3.188087
     66          1           0      -10.440154    0.889500   -2.749409
     67          1           0      -12.100544    1.399964   -2.517485
     68          1           0      -11.778962    0.050104   -3.372596
     69          1           0      -14.633692   -2.378655   -0.549619
     70          1           0        8.464515    0.347749    0.350893
     71          1           0       -8.806877    2.042003   -0.282402
     72          1           0       11.454244   -2.727965   -1.598462
     73          1           0       10.261867   -1.565619   -2.600037
     74          1           0       12.018417   -1.573421   -2.782190
     75          1           0       15.122596    1.180304    0.897083
     76          1           0        9.561120   -2.436928   -0.040595
     77          1           0       -5.619636   -1.432956   -0.024981
     78          1           0       -7.158268   -1.204094    1.040398
     79          1           0       -7.188210   -1.673403   -0.617538
     80          1           0       -6.670277    2.607071   -0.284554
     81          1           0        6.812552   -3.740200    1.267020
     82          1           0        6.231295   -3.977950   -0.127086
     83          1           0        7.942642   -4.225398    0.194905
     84          1           0        6.714456   -0.110458   -0.566957
     85          1           0       -4.204045    0.493276   -0.150062
     86          1           0        4.972755   -2.606005    0.078297
     87          1           0       -4.483958    3.486126   -0.895017
     88          1           0        4.396409    0.200166   -0.347862
     89          1           0       -1.532737    3.891278   -1.962076
     90          1           0       -1.035191    4.354211   -0.137917
     91          1           0       -2.609389    4.858474   -0.862451
     92          1           0       -2.222395    0.582331    0.184430
     93          1           0        2.438133    1.338656   -0.541141
     94          1           0        2.204927   -2.331285    1.423264
     95          1           0        1.013780   -2.222835   -0.055500
     96          1           0        2.864037   -2.762804   -0.348041
     97          1           0        0.166541    2.414129   -0.683391
     98          1           0       -0.092590   -0.662046   -0.090276
 ---------------------------------------------------------------------

 SCF Done:  E(RCAM-B3LYP) =  -1706.90588940     A.U. after   16 cycles

 Excitation energies and oscillator strengths:

 Excited State   1:      Singlet-A      1.8927 eV  655.06 nm  f=3.0154  <S**2>=0.000
     155 ->158         0.12597
     156 ->157         0.70190
     156 <-157        -0.11888
 This state for optimization and/or second-order correction.
 Total Energy, E(TD-HF/TD-DFT) =  -1706.83633316
 Copying the excited state density for this state as the 1-particle RhoCI density.

 The electronic state is 1-A.
 Alpha  occ. eigenvalues --  -19.21856 -19.20485 -10.31444 -10.31098 -10.29373
 Alpha  occ. eigenvalues --  -10.28628 -10.28057 -10.27563 -10.27547 -10.27522
 Alpha  occ. eigenvalues --  -10.27396 -10.27151 -10.27091 -10.27078 -10.26884
 Alpha  occ. eigenvalues --  -10.26806 -10.26728 -10.26708 -10.26698 -10.26471
 Alpha  occ. eigenvalues --  -10.26468 -10.26447 -10.26426 -10.26289 -10.26255
 Alpha  occ. eigenvalues --  -10.26210 -10.26151 -10.25981 -10.25750 -10.25690
 Alpha  occ. eigenvalues --  -10.25506 -10.25381 -10.25354 -10.25352 -10.24996
 Alpha  occ. eigenvalues --  -10.24917 -10.24615 -10.24218 -10.23686 -10.23544
 Alpha  occ. eigenvalues --  -10.23336 -10.22103  -1.10797  -1.10728  -0.95049
 Alpha  occ. eigenvalues --   -0.93500  -0.92474  -0.91111  -0.90050  -0.88980
 Alpha  occ. eigenvalues --   -0.88212  -0.87089  -0.86568  -0.85375  -0.84329
 Alpha  occ. eigenvalues --   -0.82811  -0.81671  -0.80383  -0.79640  -0.78469
 Alpha  occ. eigenvalues --   -0.77516  -0.77184  -0.76416  -0.76385  -0.75825
 Alpha  occ. eigenvalues --   -0.75315  -0.75299  -0.75154  -0.72891  -0.70416
 Alpha  occ. eigenvalues --   -0.68729  -0.67475  -0.66264  -0.65341  -0.64795
 Alpha  occ. eigenvalues --   -0.64038  -0.62671  -0.62001  -0.60309  -0.59626
 Alpha  occ. eigenvalues --   -0.59289  -0.58612  -0.58515  -0.57220  -0.56526
 Alpha  occ. eigenvalues --   -0.55667  -0.54920  -0.54780  -0.54287  -0.54025
 Alpha  occ. eigenvalues --   -0.53945  -0.53226  -0.52834  -0.52243  -0.51134
 Alpha  occ. eigenvalues --   -0.50943  -0.50302  -0.49887  -0.49413  -0.48961
 Alpha  occ. eigenvalues --   -0.48810  -0.48427  -0.48078  -0.47422  -0.47099
 Alpha  occ. eigenvalues --   -0.46994  -0.46664  -0.46528  -0.46300  -0.46154
 Alpha  occ. eigenvalues --   -0.45871  -0.45656  -0.45373  -0.45145  -0.44781
 Alpha  occ. eigenvalues --   -0.44568  -0.44353  -0.44031  -0.43707  -0.43691
 Alpha  occ. eigenvalues --   -0.43409  -0.43209  -0.42541  -0.42429  -0.42375
 Alpha  occ. eigenvalues --   -0.41923  -0.41587  -0.41293  -0.40964  -0.40648
 Alpha  occ. eigenvalues --   -0.40185  -0.40090  -0.39975  -0.39712  -0.39463
 Alpha  occ. eigenvalues --   -0.39128  -0.38468  -0.38438  -0.37988  -0.37762
 Alpha  occ. eigenvalues --   -0.37608  -0.37064  -0.36597  -0.36176  -0.36010
 Alpha  occ. eigenvalues --   -0.35710  -0.34885  -0.34124  -0.32176  -0.31176
 Alpha  occ. eigenvalues --   -0.31031  -0.29359  -0.28497  -0.26332  -0.23786
 Alpha  occ. eigenvalues --   -0.18381
 Alpha virt. eigenvalues --   -0.06677  -0.00911   0.02298   0.05573   0.07343
 Alpha virt. eigenvalues --    0.09093   0.10601   0.11124   0.11766   0.11844
 Alpha virt. eigenvalues --    0.12698   0.12954   0.13564   0.13903   0.14047

 Mulliken charges:
               1
     1  O   -0.531988
     2  O   -0.535129
     3  C   -0.005262
     4  C   -0.108886
     5  C   -0.186332
     6  C    0.173463
     7  C    0.139153
     8  C   -0.012075
     9  C   -0.287112
    10  C   -0.272343
    11  C   -0.183279
    12  C   -0.126613
    13  C    0.140445
    14  C    0.067094
    15  C   -0.103834
    16  C   -0.208939
    17  C    0.032662
    18  C   -0.316015
    19  C   -0.259353
    20  C   -0.368133
    21  C   -0.086000
    22  C   -0.130204
    23  C   -0.343030
    24  C    0.083656
    25  C   -0.116893
    26  C   -0.376667
    27  C    0.111036
    28  C   -0.136048
    29  C   -0.399472
    30  C   -0.142182
    31  C   -0.046927
    32  C   -0.101456
    33  C   -0.129143
    34  C    0.079192
    35  C   -0.086598
    36  C    0.093408
    37  C   -0.359338
    38  C   -0.115195
    39  C   -0.087124
    40  C   -0.341612
    41  C   -0.080561
    42  C   -0.108346
    43  H    0.086098
    44  H    0.094916
    45  H    0.076359
    46  H    0.030438
    47  H    0.106778
    48  H    0.088647
    49  H    0.103356
    50  H    0.122693
    51  H    0.092227
    52  H    0.081429
    53  H    0.106588
    54  H    0.056924
    55  H    0.052849
    56  H    0.045471
    57  H    0.081066
    58  H    0.115226
    59  H    0.137878
    60  H    0.102360
    61  H    0.117155
    62  H    0.098309
    63  H    0.103275
    64  H    0.091073
    65  H    0.076456
    66  H    0.128981
    67  H    0.106448
    68  H    0.119582
    69  H    0.309879
    70  H    0.096842
    71  H    0.060448
    72  H    0.063436
    73  H    0.134154
    74  H    0.114021
    75  H    0.288726
    76  H    0.094486
    77  H    0.114672
    78  H    0.133642
    79  H    0.117838
    80  H    0.083301
    81  H    0.109271
    82  H    0.123020
    83  H    0.121370
    84  H    0.088176
    85  H    0.092455
    86  H    0.069522
    87  H    0.085373
    88  H    0.064425
    89  H    0.109483
    90  H    0.102979
    91  H    0.125007
    92  H    0.076640
    93  H    0.074844
    94  H    0.099226
    95  H    0.113153
    96  H    0.121251
    97  H    0.079819
    98  H    0.081935
 Sum of Mulliken charges =  -0.00000

 Dipole moment (field-independent basis, Debye):
    X=             -1.7341    Y=             -0.3733    Z=             -0.4830  Tot=              1.8384
 Quadrupole moment (field-independent basis, Debye-Ang):
   XX=           -248.4605   YY=           -246.2934   ZZ=           -260.8418
   XY=              0.3471   XZ=             37.4943   YZ=             -0.6147

 Normal termination of Gaussian 16 at Tue Jul 16 03:20:45 2019.
