 Gaussian 16, Revision A.03,
 Gaussian 16:  ES64L-G16RevA.03 25-Dec-2016

 -------------------------------------
 # td=(NStates=1) CAM-B3LYP/6-31G(d,p)
 -------------------------------------

 --
 TD
 --
 Symbolic Z-matrix:
 Charge =  0 Multiplicity = 1

                         Standard orientation:
 ---------------------------------------------------------------------
 Center     Atomic      Atomic             Coordinates (Angstroms)
 Number     Number       Type             X           Y           Z
 ---------------------------------------------------------------------
      1          8           0      -14.036495   -1.869252    0.954346
      2          8           0       14.785362    0.922245    0.591428
      3          6           0      -11.648105    0.270249    1.293366
      4          6           0      -10.911405    0.391180   -0.080342
      5          6           0      -11.924688   -1.227089    1.680865
      6          6           0      -12.611948   -2.043620    0.646880
      7          6           0      -11.594073   -0.547102   -1.064486
      8          6           0       11.001135    1.115917    1.116319
      9          6           0      -10.861464    0.952316    2.482700
     10          6           0      -13.001322    1.067056    1.252456
     11          6           0       12.412479    1.585449    0.819711
     12          6           0      -12.376076   -1.546468   -0.727175
     13          6           0       13.469083    0.416758    0.632441
     14          6           0       10.631223    0.048383    0.079247
     15          6           0       -9.490749   -0.104005   -0.020073
     16          6           0       13.026353   -0.150762   -0.763309
     17          6           0       11.607143   -0.434451   -0.751482
     18          6           0       10.038580    2.313207    0.929459
     19          6           0       10.831358    0.575859    2.527345
     20          6           0      -11.345216   -0.077580   -2.476037
     21          6           0       -8.471758    0.716785   -0.257330
     22          6           0        9.247139   -0.411683    0.059095
     23          6           0       11.169149   -1.342140   -1.969907
     24          6           0       -7.051210    0.324739   -0.261014
     25          6           0        8.818736   -1.701754   -0.141089
     26          6           0       -6.559828   -0.974359    0.160428
     27          6           0        7.420982   -2.055493   -0.104920
     28          6           0       -6.243619    1.419542   -0.503607
     29          6           0        7.187445   -3.625833   -0.118627
     30          6           0        6.400011   -1.165307   -0.153771
     31          6           0       -4.854662    1.280312   -0.737672
     32          6           0        5.050216   -1.590287   -0.033789
     33          6           0       -4.041224    2.354459   -0.950123
     34          6           0       -2.672534    2.525125   -0.950385
     35          6           0        3.987702   -0.723252   -0.162190
     36          6           0        2.567193   -0.924384   -0.345187
     37          6           0       -1.956026    3.830709   -1.237796
     38          6           0       -1.851005    1.393418   -0.680059
     39          6           0        1.748470    0.164646   -0.567420
     40          6           0        2.184244   -2.386063   -0.023697
     41          6           0       -0.389096    1.324038   -0.628125
     42          6           0        0.400702    0.156893   -0.540119
     43          1           0      -11.214671    1.421627   -0.437445
     44          1           0      -12.775859   -1.416945    2.393022
     45          1           0      -11.054546   -1.960116    1.965653
     46          1           0      -12.450349   -3.086562    0.765166
     47          1           0       -9.851473    0.475959    2.910815
     48          1           0      -10.460235    2.004812    2.282959
     49          1           0      -11.458646    0.858745    3.219163
     50          1           0      -13.661205    0.614694    0.443711
     51          1           0      -13.380743    1.123115    2.170375
     52          1           0      -12.631107    2.019898    0.850602
     53          1           0       12.564001    2.391682   -0.038839
     54          1           0       12.750582    2.316220    1.553580
     55          1           0      -12.754549   -2.075920   -1.655495
     56          1           0       13.346890   -0.209180    1.461093
     57          1           0       -9.288692   -1.259845    0.087671
     58          1           0       13.510662   -1.209970   -0.814257
     59          1           0       13.333771    0.418616   -1.579683
     60          1           0        9.041374    2.025243    1.348282
     61          1           0        9.903466    2.869731   -0.149140
     62          1           0       10.347961    3.041098    1.744673
     63          1           0       11.543415   -0.294400    2.742468
     64          1           0        9.979925    0.224881    2.350886
     65          1           0       11.282498    1.176301    3.321548
     66          1           0      -10.222508    0.102014   -2.660143
     67          1           0      -11.862625    1.051425   -2.678766
     68          1           0      -11.836730   -0.841737   -3.155651
     69          1           0      -14.757054   -2.117426    0.286900
     70          1           0        8.438443    0.396313    0.127006
     71          1           0       -8.835794    1.739391   -0.639445
     72          1           0       11.410110   -2.485432   -1.828205
     73          1           0       10.020989   -1.210299   -2.250722
     74          1           0       11.832850   -1.049436   -2.920412
     75          1           0       15.150480    1.229468    1.410765
     76          1           0        9.409364   -2.571205   -0.378451
     77          1           0       -5.377515   -0.935330    0.045740
     78          1           0       -6.932202   -1.282578    1.198068
     79          1           0       -6.947773   -1.757979   -0.714023
     80          1           0       -6.748251    2.333402   -1.005209
     81          1           0        6.663479   -4.056523    0.798535
     82          1           0        6.357053   -3.777084   -0.991077
     83          1           0        8.398956   -3.919268   -0.253392
     84          1           0        6.613678   -0.055740   -0.388157
     85          1           0       -4.442813    0.201002   -0.673012
     86          1           0        4.738947   -2.725217    0.076301
     87          1           0       -4.693772    3.195542   -0.736883
     88          1           0        4.196652    0.318603   -0.510687
     89          1           0       -1.207464    3.719348   -2.080222
     90          1           0       -1.355471    4.014596   -0.363751
     91          1           0       -2.769971    4.815924   -1.435154
     92          1           0       -2.367612    0.477505   -0.497852
     93          1           0        2.259063    1.034846   -0.834307
     94          1           0        2.631463   -2.638326    0.881248
     95          1           0        1.124607   -2.491430    0.233248
     96          1           0        2.592047   -3.113042   -0.775868
     97          1           0        0.140480    2.206522   -0.841663
     98          1           0       -0.294526   -0.873921   -0.331247
 ---------------------------------------------------------------------

 SCF Done:  E(RCAM-B3LYP) =  -1706.93046739     A.U. after   15 cycles

 Excitation energies and oscillator strengths:

 Excited State   1:      Singlet-A      2.1180 eV  585.39 nm  f=3.0063  <S**2>=0.000
     155 ->158         0.15507
     156 ->157         0.69076
 This state for optimization and/or second-order correction.
 Total Energy, E(TD-HF/TD-DFT) =  -1706.85263265
 Copying the excited state density for this state as the 1-particle RhoCI density.

 The electronic state is 1-A.
 Alpha  occ. eigenvalues --  -19.20717 -19.20048 -10.30634 -10.30128 -10.28939
 Alpha  occ. eigenvalues --  -10.28389 -10.27905 -10.27680 -10.27524 -10.27479
 Alpha  occ. eigenvalues --  -10.27441 -10.27347 -10.27334 -10.27319 -10.27288
 Alpha  occ. eigenvalues --  -10.27139 -10.26989 -10.26961 -10.26906 -10.26651
 Alpha  occ. eigenvalues --  -10.26496 -10.26479 -10.26417 -10.26364 -10.26325
 Alpha  occ. eigenvalues --  -10.26221 -10.26212 -10.26182 -10.26024 -10.25998
 Alpha  occ. eigenvalues --  -10.25934 -10.25900 -10.25810 -10.25804 -10.25323
 Alpha  occ. eigenvalues --  -10.25302 -10.25083 -10.24744 -10.24660 -10.23706
 Alpha  occ. eigenvalues --  -10.23664 -10.23109  -1.09345  -1.06635  -0.93943
 Alpha  occ. eigenvalues --   -0.93395  -0.92086  -0.91732  -0.90607  -0.89869
 Alpha  occ. eigenvalues --   -0.87441  -0.86919  -0.86244  -0.85493  -0.84452
 Alpha  occ. eigenvalues --   -0.83186  -0.81724  -0.80892  -0.78801  -0.78349
 Alpha  occ. eigenvalues --   -0.76795  -0.76190  -0.75566  -0.75445  -0.75101
 Alpha  occ. eigenvalues --   -0.74962  -0.74550  -0.73874  -0.72725  -0.70185
 Alpha  occ. eigenvalues --   -0.69250  -0.67543  -0.66688  -0.65737  -0.63108
 Alpha  occ. eigenvalues --   -0.62616  -0.61928  -0.61379  -0.59997  -0.59640
 Alpha  occ. eigenvalues --   -0.58592  -0.58514  -0.57915  -0.57363  -0.56339
 Alpha  occ. eigenvalues --   -0.55857  -0.55478  -0.54742  -0.54106  -0.53732
 Alpha  occ. eigenvalues --   -0.53597  -0.53106  -0.52543  -0.51984  -0.51090
 Alpha  occ. eigenvalues --   -0.50122  -0.49962  -0.49322  -0.49024  -0.48786
 Alpha  occ. eigenvalues --   -0.48687  -0.48244  -0.47968  -0.47690  -0.47510
 Alpha  occ. eigenvalues --   -0.47391  -0.46885  -0.46655  -0.46296  -0.46112
 Alpha  occ. eigenvalues --   -0.45646  -0.45115  -0.44947  -0.44905  -0.44660
 Alpha  occ. eigenvalues --   -0.43846  -0.43507  -0.43444  -0.43090  -0.43076
 Alpha  occ. eigenvalues --   -0.42605  -0.42153  -0.41964  -0.41815  -0.41561
 Alpha  occ. eigenvalues --   -0.41030  -0.40781  -0.40761  -0.40393  -0.40219
 Alpha  occ. eigenvalues --   -0.40107  -0.39818  -0.39716  -0.39166  -0.38916
 Alpha  occ. eigenvalues --   -0.38493  -0.38320  -0.38219  -0.38164  -0.37949
 Alpha  occ. eigenvalues --   -0.37891  -0.36964  -0.36932  -0.35979  -0.35620
 Alpha  occ. eigenvalues --   -0.35165  -0.34205  -0.33606  -0.32143  -0.31622
 Alpha  occ. eigenvalues --   -0.30881  -0.29741  -0.29196  -0.26852  -0.23591
 Alpha  occ. eigenvalues --   -0.19355
 Alpha virt. eigenvalues --   -0.05927  -0.01179   0.02559   0.05841   0.07144
 Alpha virt. eigenvalues --    0.08930   0.10234   0.10883   0.11656   0.11828
 Alpha virt. eigenvalues --    0.12498   0.12701   0.13302   0.13535   0.13765

 Mulliken charges:
               1
     1  O   -0.593817
     2  O   -0.572763
     3  C    0.012727
     4  C   -0.147292
     5  C   -0.199194
     6  C    0.161262
     7  C    0.109925
     8  C   -0.022996
     9  C   -0.290483
    10  C   -0.282863
    11  C   -0.210655
    12  C   -0.122261
    13  C    0.188246
    14  C    0.082552
    15  C   -0.075671
    16  C   -0.212755
    17  C    0.053415
    18  C   -0.299953
    19  C   -0.268400
    20  C   -0.337402
    21  C   -0.084151
    22  C   -0.148802
    23  C   -0.353770
    24  C    0.119799
    25  C   -0.085722
    26  C   -0.357578
    27  C    0.077896
    28  C   -0.136268
    29  C   -0.344452
    30  C   -0.107978
    31  C   -0.063407
    32  C   -0.089706
    33  C   -0.147177
    34  C    0.110937
    35  C   -0.129890
    36  C    0.105024
    37  C   -0.365257
    38  C   -0.113749
    39  C   -0.112184
    40  C   -0.382149
    41  C   -0.098124
    42  C   -0.070163
    43  H    0.092290
    44  H    0.132027
    45  H    0.077364
    46  H    0.094647
    47  H    0.073798
    48  H    0.089045
    49  H    0.111974
    50  H    0.111329
    51  H    0.112776
    52  H    0.085059
    53  H    0.078003
    54  H    0.066054
    55  H    0.058487
    56  H    0.085795
    57  H    0.090663
    58  H    0.099318
    59  H    0.136295
    60  H    0.096626
    61  H    0.099305
    62  H    0.093808
    63  H    0.084255
    64  H    0.111335
    65  H    0.109729
    66  H    0.119910
    67  H    0.082685
    68  H    0.098610
    69  H    0.303518
    70  H    0.096019
    71  H    0.079880
    72  H    0.097319
    73  H    0.115729
    74  H    0.083776
    75  H    0.305077
    76  H    0.090784
    77  H    0.101038
    78  H    0.132097
    79  H    0.099489
    80  H    0.091225
    81  H    0.125854
    82  H    0.111935
    83  H    0.084449
    84  H    0.089719
    85  H    0.076119
    86  H    0.078984
    87  H    0.080025
    88  H    0.062605
    89  H    0.127249
    90  H    0.136624
    91  H    0.080529
    92  H    0.070079
    93  H    0.089106
    94  H    0.134058
    95  H    0.105110
    96  H    0.120831
    97  H    0.073424
    98  H    0.071412
 Sum of Mulliken charges =  -0.00000

 Dipole moment (field-independent basis, Debye):
    X=              0.4198    Y=             -0.9458    Z=              0.0131  Tot=              1.0349
 Quadrupole moment (field-independent basis, Debye-Ang):
   XX=           -257.8689   YY=           -247.4647   ZZ=           -264.0393
   XY=              9.6155   XZ=             36.7787   YZ=              0.7220

 Normal termination of Gaussian 16 at Sat Jul 13 15:10:45 2019.
