 Gaussian 16, Revision A.03,
 Gaussian 16:  ES64L-G16RevA.03 25-Dec-2016

 -------------------------------------
 # td=(NStates=1) CAM-B3LYP/6-31G(d,p)
 -------------------------------------

 --
 TD
 --
 Symbolic Z-matrix:
 Charge =  0 Multiplicity = 1

                         Standard orientation:
 ---------------------------------------------------------------------
 Center     Atomic      Atomic             Coordinates (Angstroms)
 Number     Number       Type             X           Y           Z
 ---------------------------------------------------------------------
      1          8           0      -14.201397   -1.842638    0.590966
      2          8           0       14.750229    1.009430   -0.153597
      3          6           0      -11.726500    0.117472    1.282048
      4          6           0      -11.017773    0.363604   -0.083032
      5          6           0      -11.974441   -1.467844    1.411633
      6          6           0      -12.836821   -2.069905    0.175941
      7          6           0      -11.683401   -0.407819   -1.274806
      8          6           0       11.124464    0.947244    1.124540
      9          6           0      -10.861143    0.571771    2.432636
     10          6           0      -12.936825    0.849995    1.210058
     11          6           0       12.590735    1.499724    0.726421
     12          6           0      -12.455115   -1.377319   -1.112386
     13          6           0       13.480381    0.465554    0.110799
     14          6           0       10.618100   -0.002914    0.052521
     15          6           0       -9.463383   -0.144666    0.004453
     16          6           0       12.887476   -0.176032   -1.014086
     17          6           0       11.373219   -0.433954   -1.049210
     18          6           0       10.210134    2.278884    1.117904
     19          6           0       11.221303    0.273765    2.528758
     20          6           0      -11.287874    0.218974   -2.587066
     21          6           0       -8.499562    0.723547   -0.337838
     22          6           0        9.257144   -0.352995    0.109781
     23          6           0       10.887226   -1.188599   -2.227321
     24          6           0       -7.083094    0.366614   -0.225339
     25          6           0        8.817667   -1.637820    0.074996
     26          6           0       -6.778407   -1.055786   -0.053708
     27          6           0        7.494227   -2.228479    0.064319
     28          6           0       -6.209252    1.467469   -0.435082
     29          6           0        7.264875   -3.731113    0.247327
     30          6           0        6.452698   -1.251560   -0.143660
     31          6           0       -4.813895    1.301946   -0.344729
     32          6           0        5.079586   -1.640998   -0.070834
     33          6           0       -3.983576    2.452177   -0.393338
     34          6           0       -2.560303    2.582230   -0.541066
     35          6           0        3.990767   -0.683184   -0.215682
     36          6           0        2.623931   -0.918605   -0.192801
     37          6           0       -1.960344    4.012121   -0.736882
     38          6           0       -1.707573    1.532960   -0.358192
     39          6           0        1.789656    0.226847   -0.424311
     40          6           0        2.117558   -2.290433    0.225553
     41          6           0       -0.312808    1.455985   -0.553617
     42          6           0        0.384034    0.301709   -0.153042
     43          1           0      -11.044951    1.513456   -0.359496
     44          1           0      -12.523713   -1.521523    2.311216
     45          1           0      -11.100722   -2.063567    1.600439
     46          1           0      -12.711436   -3.021122    0.164103
     47          1           0       -9.959441   -0.090987    2.352864
     48          1           0      -10.739845    1.552281    2.361668
     49          1           0      -11.436049    0.523146    3.353481
     50          1           0      -13.448348    0.588044    0.365799
     51          1           0      -13.450225    0.841342    2.147891
     52          1           0      -12.792481    1.861863    1.169393
     53          1           0       12.553917    2.321621    0.202212
     54          1           0       12.960969    1.809032    1.757767
     55          1           0      -13.114251   -1.584819   -1.855127
     56          1           0       13.477029   -0.404825    0.905744
     57          1           0       -9.338182   -1.174810    0.290052
     58          1           0       13.441335   -1.077827   -1.437170
     59          1           0       13.088763    0.437603   -1.927691
     60          1           0        9.148449    2.084218    1.741523
     61          1           0        9.907871    2.583993    0.102785
     62          1           0       10.832045    3.185098    1.538486
     63          1           0       12.090653   -0.374508    2.432936
     64          1           0       10.081974   -0.291519    2.569128
     65          1           0       11.427008    0.776733    3.418411
     66          1           0      -10.287577    0.192319   -2.913618
     67          1           0      -11.534595    1.292237   -2.407113
     68          1           0      -12.044514   -0.270451   -3.337881
     69          1           0      -14.833516   -1.877781   -0.194254
     70          1           0        8.485221    0.224166    0.633974
     71          1           0       -8.714014    1.683679   -0.843669
     72          1           0       11.492923   -2.266254   -2.185705
     73          1           0        9.861403   -1.014745   -2.345555
     74          1           0       11.428805   -0.909301   -3.119770
     75          1           0       14.881027    1.279798    0.721691
     76          1           0        9.514276   -2.247241   -0.001175
     77          1           0       -5.660019   -0.973573    0.318133
     78          1           0       -7.231505   -1.545213    0.873218
     79          1           0       -7.115128   -1.604055   -0.889847
     80          1           0       -6.554254    2.606216   -0.445420
     81          1           0        7.115318   -3.902381    1.476904
     82          1           0        6.376730   -4.008174   -0.283460
     83          1           0        8.310492   -4.116105   -0.359712
     84          1           0        6.651066   -0.280641   -0.382559
     85          1           0       -4.326219    0.373314   -0.106217
     86          1           0        4.671118   -2.667392    0.130436
     87          1           0       -4.770030    3.349994   -0.415621
     88          1           0        4.305356    0.235120   -0.463580
     89          1           0       -1.575334    3.988054   -1.762542
     90          1           0       -1.266757    4.140808    0.004054
     91          1           0       -2.799984    4.951908   -0.378880
     92          1           0       -1.885642    0.423690   -0.218611
     93          1           0        2.392160    1.118129   -0.787622
     94          1           0        2.198243   -2.256319    1.449151
     95          1           0        1.126781   -2.125366    0.153204
     96          1           0        2.638572   -3.179015   -0.228335
     97          1           0        0.281891    2.414808   -0.941980
     98          1           0        0.048125   -0.540913    0.317028
 ---------------------------------------------------------------------

 SCF Done:  E(RCAM-B3LYP) =  -1706.85288451     A.U. after   15 cycles

 Excitation energies and oscillator strengths:

 Excited State   1:      Singlet-A      1.9136 eV  647.92 nm  f=3.1064  <S**2>=0.000
     155 ->158         0.15041
     156 ->157         0.69390
 This state for optimization and/or second-order correction.
 Total Energy, E(TD-HF/TD-DFT) =  -1706.78256217
 Copying the excited state density for this state as the 1-particle RhoCI density.

 The electronic state is 1-A.
 Alpha  occ. eigenvalues --  -19.21725 -19.20874 -10.30531 -10.29635 -10.29007
 Alpha  occ. eigenvalues --  -10.28611 -10.27985 -10.27838 -10.27589 -10.27493
 Alpha  occ. eigenvalues --  -10.27444 -10.27382 -10.27239 -10.27211 -10.27163
 Alpha  occ. eigenvalues --  -10.27124 -10.27103 -10.26930 -10.26772 -10.26697
 Alpha  occ. eigenvalues --  -10.26648 -10.26613 -10.26194 -10.26121 -10.26021
 Alpha  occ. eigenvalues --  -10.26020 -10.26018 -10.25853 -10.25828 -10.25798
 Alpha  occ. eigenvalues --  -10.25754 -10.25484 -10.25302 -10.25153 -10.24894
 Alpha  occ. eigenvalues --  -10.24712 -10.24396 -10.24252 -10.23707 -10.23387
 Alpha  occ. eigenvalues --  -10.22508 -10.20453  -1.12342  -1.07543  -0.93522
 Alpha  occ. eigenvalues --   -0.93336  -0.91690  -0.91106  -0.90275  -0.89587
 Alpha  occ. eigenvalues --   -0.88390  -0.86807  -0.86512  -0.85755  -0.84305
 Alpha  occ. eigenvalues --   -0.82366  -0.81922  -0.80478  -0.80156  -0.78042
 Alpha  occ. eigenvalues --   -0.77122  -0.76659  -0.76335  -0.76150  -0.75996
 Alpha  occ. eigenvalues --   -0.75963  -0.74583  -0.74448  -0.71947  -0.70153
 Alpha  occ. eigenvalues --   -0.69258  -0.68307  -0.65921  -0.64965  -0.63980
 Alpha  occ. eigenvalues --   -0.62766  -0.62311  -0.62244  -0.60542  -0.60220
 Alpha  occ. eigenvalues --   -0.59582  -0.59196  -0.58082  -0.57245  -0.56018
 Alpha  occ. eigenvalues --   -0.55678  -0.55317  -0.54865  -0.54555  -0.53967
 Alpha  occ. eigenvalues --   -0.53375  -0.53130  -0.52654  -0.52381  -0.51528
 Alpha  occ. eigenvalues --   -0.50962  -0.50859  -0.50794  -0.50303  -0.49523
 Alpha  occ. eigenvalues --   -0.49322  -0.49020  -0.48736  -0.48226  -0.47911
 Alpha  occ. eigenvalues --   -0.47708  -0.47569  -0.47255  -0.46780  -0.46414
 Alpha  occ. eigenvalues --   -0.46067  -0.45658  -0.45507  -0.45335  -0.44489
 Alpha  occ. eigenvalues --   -0.44298  -0.44024  -0.43893  -0.43690  -0.42812
 Alpha  occ. eigenvalues --   -0.42742  -0.42673  -0.42298  -0.42179  -0.42009
 Alpha  occ. eigenvalues --   -0.41391  -0.41109  -0.40983  -0.40858  -0.40523
 Alpha  occ. eigenvalues --   -0.40396  -0.39927  -0.39727  -0.39448  -0.39219
 Alpha  occ. eigenvalues --   -0.38709  -0.38578  -0.38258  -0.37984  -0.37861
 Alpha  occ. eigenvalues --   -0.37729  -0.37146  -0.36940  -0.36013  -0.35663
 Alpha  occ. eigenvalues --   -0.35224  -0.34649  -0.33609  -0.32105  -0.31734
 Alpha  occ. eigenvalues --   -0.31545  -0.29842  -0.28620  -0.26012  -0.22749
 Alpha  occ. eigenvalues --   -0.18386
 Alpha virt. eigenvalues --   -0.06248  -0.01325   0.02731   0.06086   0.07151
 Alpha virt. eigenvalues --    0.08530   0.10356   0.11104   0.11324   0.11581
 Alpha virt. eigenvalues --    0.12052   0.12578   0.13058   0.13454   0.13576

 Mulliken charges:
               1
     1  O   -0.561529
     2  O   -0.526023
     3  C    0.004804
     4  C   -0.130657
     5  C   -0.195224
     6  C    0.164700
     7  C    0.140562
     8  C   -0.014569
     9  C   -0.281486
    10  C   -0.269422
    11  C   -0.206922
    12  C   -0.153561
    13  C    0.162679
    14  C    0.059628
    15  C   -0.114637
    16  C   -0.236375
    17  C    0.080628
    18  C   -0.301150
    19  C   -0.289835
    20  C   -0.343775
    21  C   -0.077703
    22  C   -0.143944
    23  C   -0.358375
    24  C    0.085619
    25  C   -0.059937
    26  C   -0.368964
    27  C    0.055705
    28  C   -0.130635
    29  C   -0.333830
    30  C   -0.103348
    31  C   -0.049072
    32  C   -0.103903
    33  C   -0.139259
    34  C    0.050782
    35  C   -0.104701
    36  C    0.084461
    37  C   -0.349094
    38  C   -0.095839
    39  C   -0.127192
    40  C   -0.351046
    41  C   -0.092954
    42  C   -0.092944
    43  H    0.070001
    44  H    0.114858
    45  H    0.081694
    46  H    0.091574
    47  H    0.096145
    48  H    0.103667
    49  H    0.089390
    50  H    0.105031
    51  H    0.089913
    52  H    0.087534
    53  H    0.112274
    54  H    0.072724
    55  H    0.059039
    56  H    0.055343
    57  H    0.096194
    58  H    0.100432
    59  H    0.107713
    60  H    0.076964
    61  H    0.115914
    62  H    0.090029
    63  H    0.101992
    64  H    0.078224
    65  H    0.114138
    66  H    0.138151
    67  H    0.104494
    68  H    0.087207
    69  H    0.298932
    70  H    0.080602
    71  H    0.084560
    72  H    0.095144
    73  H    0.135879
    74  H    0.116843
    75  H    0.304894
    76  H    0.047890
    77  H    0.098959
    78  H    0.117791
    79  H    0.143415
    80  H    0.091450
    81  H    0.114837
    82  H    0.132860
    83  H    0.097660
    84  H    0.092149
    85  H    0.089723
    86  H    0.069131
    87  H    0.062290
    88  H    0.061787
    89  H    0.134879
    90  H    0.143216
    91  H    0.079806
    92  H    0.082759
    93  H    0.083297
    94  H    0.102774
    95  H    0.113476
    96  H    0.127189
    97  H    0.081623
    98  H    0.091885
 Sum of Mulliken charges =  -0.00000

 Dipole moment (field-independent basis, Debye):
    X=             -0.9484    Y=             -0.5515    Z=             -0.3173  Tot=              1.1420
 Quadrupole moment (field-independent basis, Debye-Ang):
   XX=           -276.3575   YY=           -247.2571   ZZ=           -262.2035
   XY=              0.2883   XZ=             33.3496   YZ=              3.0865

 Normal termination of Gaussian 16 at Fri Jul 12 20:51:37 2019.
