 Gaussian 16, Revision A.03,
 Gaussian 16:  ES64L-G16RevA.03 25-Dec-2016

 -------------------------------------
 # td=(NStates=1) CAM-B3LYP/6-31G(d,p)
 -------------------------------------

 --
 TD
 --
 Symbolic Z-matrix:
 Charge =  0 Multiplicity = 1

                         Standard orientation:
 ---------------------------------------------------------------------
 Center     Atomic      Atomic             Coordinates (Angstroms)
 Number     Number       Type             X           Y           Z
 ---------------------------------------------------------------------
      1          8           0      -14.114579   -2.062788    0.506329
      2          8           0       14.845506    0.713991    0.069460
      3          6           0      -11.745379    0.017445    1.312277
      4          6           0      -10.969973    0.201012   -0.113263
      5          6           0      -11.875386   -1.584296    1.334239
      6          6           0      -12.707854   -2.169981    0.168350
      7          6           0      -11.569907   -0.450555   -1.247567
      8          6           0       11.063975    0.971455    1.065396
      9          6           0      -10.918719    0.509154    2.609912
     10          6           0      -13.137821    0.670823    1.244258
     11          6           0       12.579417    1.449395    0.746963
     12          6           0      -12.365509   -1.564301   -1.195797
     13          6           0       13.497781    0.290364    0.375874
     14          6           0       10.679396   -0.058589   -0.047633
     15          6           0       -9.483372   -0.092861   -0.010270
     16          6           0       13.020581   -0.313138   -0.925640
     17          6           0       11.534637   -0.671568   -0.859289
     18          6           0       10.193432    2.203354    1.008128
     19          6           0       11.133723    0.191457    2.415112
     20          6           0      -11.221076    0.150299   -2.653382
     21          6           0       -8.500028    0.803404   -0.291312
     22          6           0        9.312689   -0.494804   -0.075998
     23          6           0       11.021260   -1.475608   -2.053637
     24          6           0       -7.048370    0.483575   -0.238734
     25          6           0        8.783570   -1.731094   -0.205018
     26          6           0       -6.619670   -0.903858    0.250663
     27          6           0        7.363453   -2.087845   -0.087510
     28          6           0       -6.168950    1.590006   -0.303973
     29          6           0        6.993388   -3.454128   -0.026237
     30          6           0        6.373323   -1.085904   -0.201855
     31          6           0       -4.704763    1.558211   -0.292309
     32          6           0        5.048166   -1.316148   -0.043163
     33          6           0       -4.042678    2.675026   -0.569467
     34          6           0       -2.676221    2.682870   -0.589690
     35          6           0        3.933620   -0.428393   -0.182670
     36          6           0        2.591727   -0.677056    0.005994
     37          6           0       -1.914357    4.084853   -0.932288
     38          6           0       -1.834336    1.568906   -0.391560
     39          6           0        1.713169    0.415608   -0.160661
     40          6           0        2.024161   -2.047344    0.403118
     41          6           0       -0.375929    1.539079   -0.509421
     42          6           0        0.345631    0.411608   -0.181724
     43          1           0      -10.919740    1.329055   -0.152496
     44          1           0      -12.287638   -1.787381    2.255165
     45          1           0      -10.891442   -1.926493    1.397616
     46          1           0      -12.429150   -3.272067    0.039283
     47          1           0       -9.959520   -0.120617    2.658026
     48          1           0      -10.722464    1.673721    2.593742
     49          1           0      -11.680785    0.429403    3.366585
     50          1           0      -13.824883    0.470036    0.363164
     51          1           0      -13.814436    0.337019    2.022473
     52          1           0      -12.905567    1.607855    1.119460
     53          1           0       12.638323    2.243179    0.011966
     54          1           0       12.960705    1.909355    1.721171
     55          1           0      -12.617361   -2.026240   -1.960203
     56          1           0       13.553053   -0.577483    1.190130
     57          1           0       -9.303065   -1.181759   -0.056921
     58          1           0       13.646622   -1.266959   -1.039839
     59          1           0       13.094729    0.373964   -1.869766
     60          1           0        9.073813    1.866058    1.423338
     61          1           0       10.004026    2.432062   -0.078479
     62          1           0       10.554943    3.150832    1.427570
     63          1           0       11.802996   -0.776672    2.305023
     64          1           0       10.094624   -0.101716    2.421645
     65          1           0       11.525689    0.777882    3.284120
     66          1           0      -10.154477    0.059236   -2.780127
     67          1           0      -11.564559    1.222209   -2.826949
     68          1           0      -11.879422   -0.262440   -3.247913
     69          1           0      -14.521274   -2.233215   -0.481148
     70          1           0        8.549608    0.191878    0.032535
     71          1           0       -8.747429    1.943680   -0.169654
     72          1           0       11.205162   -2.505050   -2.048658
     73          1           0        9.891834   -1.256795   -2.329507
     74          1           0       11.655327   -1.067754   -2.893454
     75          1           0       15.222291    1.435127    0.812001
     76          1           0        9.562564   -2.486986   -0.139446
     77          1           0       -5.680892   -1.009612   -0.108224
     78          1           0       -6.918329   -1.257165    1.314187
     79          1           0       -7.371325   -1.635233   -0.359209
     80          1           0       -6.809218    2.558278   -0.518711
     81          1           0        6.611106   -3.737363    0.908927
     82          1           0        6.104583   -4.012627   -0.633036
     83          1           0        7.747318   -4.097478   -0.152959
     84          1           0        6.839286   -0.181741   -0.203218
     85          1           0       -4.239542    0.563775   -0.098953
     86          1           0        4.687725   -2.498629   -0.044731
     87          1           0       -4.655657    3.708454   -0.601474
     88          1           0        4.386659    0.503172   -0.570231
     89          1           0       -1.172456    4.041945   -1.727366
     90          1           0       -1.205165    4.349604   -0.130113
     91          1           0       -2.585525    4.795434   -1.093771
     92          1           0       -2.257559    0.657852   -0.057772
     93          1           0        2.334291    1.184742   -0.461794
     94          1           0        2.473279   -2.381387    1.291063
     95          1           0        0.966427   -1.878233    0.475733
     96          1           0        2.325603   -2.767018   -0.544057
     97          1           0       -0.002478    2.473961   -0.915860
     98          1           0       -0.199459   -0.355864   -0.046483
 ---------------------------------------------------------------------

 SCF Done:  E(RCAM-B3LYP) =  -1706.92666752     A.U. after   15 cycles

 Excitation energies and oscillator strengths:

 Excited State   1:      Singlet-A      1.9250 eV  644.07 nm  f=3.0507  <S**2>=0.000
     155 ->158        -0.14470
     156 ->157         0.69610
     156 <-157        -0.10697
 This state for optimization and/or second-order correction.
 Total Energy, E(TD-HF/TD-DFT) =  -1706.85592417
 Copying the excited state density for this state as the 1-particle RhoCI density.

 The electronic state is 1-A.
 Alpha  occ. eigenvalues --  -19.21991 -19.21776 -10.31315 -10.31007 -10.28558
 Alpha  occ. eigenvalues --  -10.27961 -10.27696 -10.27638 -10.27563 -10.27288
 Alpha  occ. eigenvalues --  -10.27246 -10.27148 -10.27095 -10.27087 -10.27068
 Alpha  occ. eigenvalues --  -10.26940 -10.26932 -10.26788 -10.26648 -10.26609
 Alpha  occ. eigenvalues --  -10.26481 -10.26347 -10.26290 -10.26161 -10.26030
 Alpha  occ. eigenvalues --  -10.26008 -10.25999 -10.25990 -10.25815 -10.25745
 Alpha  occ. eigenvalues --  -10.25694 -10.25234 -10.25131 -10.25065 -10.24985
 Alpha  occ. eigenvalues --  -10.24856 -10.24755 -10.24384 -10.24315 -10.24121
 Alpha  occ. eigenvalues --  -10.23277 -10.21972  -1.06987  -1.06445  -0.93843
 Alpha  occ. eigenvalues --   -0.92638  -0.92342  -0.91801  -0.91053  -0.89110
 Alpha  occ. eigenvalues --   -0.87500  -0.86834  -0.85887  -0.85436  -0.84248
 Alpha  occ. eigenvalues --   -0.82935  -0.81784  -0.80423  -0.80053  -0.78141
 Alpha  occ. eigenvalues --   -0.77105  -0.76556  -0.76387  -0.76317  -0.75975
 Alpha  occ. eigenvalues --   -0.75827  -0.74924  -0.74725  -0.73196  -0.70595
 Alpha  occ. eigenvalues --   -0.68890  -0.66724  -0.66070  -0.64714  -0.64295
 Alpha  occ. eigenvalues --   -0.63411  -0.63269  -0.62628  -0.60498  -0.59909
 Alpha  occ. eigenvalues --   -0.58866  -0.58394  -0.57676  -0.57075  -0.56280
 Alpha  occ. eigenvalues --   -0.55418  -0.54997  -0.54841  -0.54061  -0.53452
 Alpha  occ. eigenvalues --   -0.53272  -0.52779  -0.52349  -0.52023  -0.51480
 Alpha  occ. eigenvalues --   -0.50974  -0.50110  -0.49863  -0.49415  -0.49181
 Alpha  occ. eigenvalues --   -0.49083  -0.48557  -0.48389  -0.48257  -0.48038
 Alpha  occ. eigenvalues --   -0.47410  -0.47246  -0.47073  -0.46758  -0.46460
 Alpha  occ. eigenvalues --   -0.45899  -0.45591  -0.45399  -0.45273  -0.44958
 Alpha  occ. eigenvalues --   -0.44513  -0.44347  -0.44083  -0.43895  -0.43549
 Alpha  occ. eigenvalues --   -0.43413  -0.43004  -0.42846  -0.42543  -0.42135
 Alpha  occ. eigenvalues --   -0.41875  -0.41834  -0.41307  -0.41086  -0.40708
 Alpha  occ. eigenvalues --   -0.40529  -0.40305  -0.39990  -0.39696  -0.39268
 Alpha  occ. eigenvalues --   -0.39257  -0.38945  -0.38594  -0.38386  -0.37854
 Alpha  occ. eigenvalues --   -0.37107  -0.37037  -0.36164  -0.36026  -0.35170
 Alpha  occ. eigenvalues --   -0.34977  -0.34652  -0.33137  -0.31902  -0.31799
 Alpha  occ. eigenvalues --   -0.30947  -0.29317  -0.29225  -0.27246  -0.23625
 Alpha  occ. eigenvalues --   -0.18579
 Alpha virt. eigenvalues --   -0.06524  -0.01507   0.02691   0.04813   0.06621
 Alpha virt. eigenvalues --    0.08648   0.09912   0.10574   0.11350   0.12059
 Alpha virt. eigenvalues --    0.12510   0.12671   0.12786   0.13693   0.13895

 Mulliken charges:
               1
     1  O   -0.540681
     2  O   -0.579089
     3  C    0.004182
     4  C   -0.155003
     5  C   -0.183274
     6  C    0.141551
     7  C    0.112701
     8  C   -0.000953
     9  C   -0.307065
    10  C   -0.291719
    11  C   -0.200144
    12  C   -0.123175
    13  C    0.191382
    14  C    0.080117
    15  C   -0.090979
    16  C   -0.205285
    17  C    0.019733
    18  C   -0.309797
    19  C   -0.285519
    20  C   -0.339195
    21  C   -0.103364
    22  C   -0.118167
    23  C   -0.356900
    24  C    0.068588
    25  C   -0.109494
    26  C   -0.341071
    27  C    0.101772
    28  C   -0.122269
    29  C   -0.396242
    30  C   -0.082319
    31  C   -0.072040
    32  C   -0.099678
    33  C   -0.106919
    34  C    0.074457
    35  C   -0.133944
    36  C    0.087865
    37  C   -0.376466
    38  C   -0.125548
    39  C   -0.093446
    40  C   -0.347657
    41  C   -0.070417
    42  C   -0.062912
    43  H    0.078372
    44  H    0.102723
    45  H    0.090592
    46  H    0.068774
    47  H    0.107342
    48  H    0.086444
    49  H    0.116968
    50  H    0.100798
    51  H    0.108481
    52  H    0.096980
    53  H    0.102634
    54  H    0.066055
    55  H    0.060456
    56  H    0.071586
    57  H    0.083778
    58  H    0.107486
    59  H    0.115302
    60  H    0.076825
    61  H    0.112625
    62  H    0.113449
    63  H    0.095696
    64  H    0.111445
    65  H    0.102107
    66  H    0.131069
    67  H    0.099771
    68  H    0.113045
    69  H    0.301530
    70  H    0.070156
    71  H    0.084137
    72  H    0.121329
    73  H    0.119039
    74  H    0.092224
    75  H    0.299255
    76  H    0.084660
    77  H    0.117062
    78  H    0.128178
    79  H    0.087116
    80  H    0.075907
    81  H    0.136121
    82  H    0.102001
    83  H    0.115305
    84  H    0.067724
    85  H    0.101524
    86  H    0.058133
    87  H    0.093404
    88  H    0.082984
    89  H    0.121720
    90  H    0.121064
    91  H    0.109634
    92  H    0.067015
    93  H    0.075815
    94  H    0.134712
    95  H    0.112024
    96  H    0.099586
    97  H    0.077820
    98  H    0.070397
 Sum of Mulliken charges =  -0.00000

 Dipole moment (field-independent basis, Debye):
    X=              1.2561    Y=              0.3680    Z=             -0.4026  Tot=              1.3694
 Quadrupole moment (field-independent basis, Debye-Ang):
   XX=           -281.3078   YY=           -242.7583   ZZ=           -263.6813
   XY=              8.0956   XZ=             38.2104   YZ=              2.3208

 Normal termination of Gaussian 16 at Mon Jul 15 17:27:16 2019.
