 Gaussian 16, Revision A.03,
 Gaussian 16:  ES64L-G16RevA.03 25-Dec-2016

 -------------------------------------
 # td=(NStates=1) CAM-B3LYP/6-31G(d,p)
 -------------------------------------

 --
 TD
 --
 Symbolic Z-matrix:
 Charge =  0 Multiplicity = 1

                         Standard orientation:
 ---------------------------------------------------------------------
 Center     Atomic      Atomic             Coordinates (Angstroms)
 Number     Number       Type             X           Y           Z
 ---------------------------------------------------------------------
      1          8           0       14.115015   -1.913572   -0.418194
      2          8           0      -14.837464    0.748586    0.202336
      3          6           0       11.711665    0.036621   -1.191377
      4          6           0       10.945419    0.267343    0.219601
      5          6           0       12.029324   -1.448667   -1.284064
      6          6           0       12.696289   -2.120145   -0.201288
      7          6           0       11.593708   -0.476077    1.393702
      8          6           0      -11.148690    1.125372   -0.805275
      9          6           0       10.950537    0.607673   -2.263714
     10          6           0       13.094495    0.782408   -0.989491
     11          6           0      -12.620175    1.509626   -0.478498
     12          6           0       12.393714   -1.495504    1.191395
     13          6           0      -13.471982    0.363567   -0.193283
     14          6           0      -10.672308   -0.046792    0.026096
     15          6           0        9.558042   -0.064436    0.141615
     16          6           0      -12.945758   -0.329715    1.044147
     17          6           0      -11.501328   -0.698905    0.906047
     18          6           0      -10.286321    2.408664   -0.661390
     19          6           0      -11.061678    0.610061   -2.364456
     20          6           0       11.181927    0.024220    2.744644
     21          6           0        8.552310    0.806104    0.076210
     22          6           0       -9.269099   -0.348268   -0.010109
     23          6           0      -11.102140   -1.772303    1.970505
     24          6           0        7.087416    0.500725   -0.058619
     25          6           0       -8.743943   -1.625827    0.005226
     26          6           0        6.583381   -0.882176   -0.270270
     27          6           0       -7.440535   -2.089166   -0.166009
     28          6           0        6.227970    1.542533    0.034223
     29          6           0       -7.129483   -3.575273   -0.314670
     30          6           0       -6.319727   -1.262577    0.101872
     31          6           0        4.733715    1.472521    0.199760
     32          6           0       -4.991848   -1.544711   -0.173426
     33          6           0        4.013390    2.608244    0.429526
     34          6           0        2.572173    2.666455    0.525958
     35          6           0       -3.949964   -0.654229    0.109426
     36          6           0       -2.568232   -0.793445   -0.135536
     37          6           0        1.946056    3.977937    0.879793
     38          6           0        1.870181    1.568279    0.291599
     39          6           0       -1.767035    0.242599    0.166427
     40          6           0       -2.004918   -2.143983   -0.556113
     41          6           0        0.454289    1.496530    0.364580
     42          6           0       -0.319318    0.402736    0.173857
     43          1           0       10.888242    1.347137    0.396535
     44          1           0       12.526003   -1.541200   -2.224223
     45          1           0       11.026467   -1.878860   -1.440534
     46          1           0       12.496890   -3.126077   -0.242020
     47          1           0        9.947752    0.025528   -2.539770
     48          1           0       10.725275    1.749820   -1.852627
     49          1           0       11.486406    0.695797   -3.184253
     50          1           0       13.674375    0.308527   -0.130232
     51          1           0       13.713138    0.666003   -1.862192
     52          1           0       12.765546    1.725173   -0.949164
     53          1           0      -12.808776    2.247655    0.263635
     54          1           0      -13.107179    2.046484   -1.375178
     55          1           0       12.856060   -2.196109    1.877200
     56          1           0      -13.178130   -0.329597   -0.953973
     57          1           0        9.302247   -1.112589   -0.105704
     58          1           0      -13.564850   -1.298766    1.168235
     59          1           0      -13.268537    0.090354    2.032055
     60          1           0       -9.314944    2.201895   -1.200270
     61          1           0      -10.187173    2.604378    0.439963
     62          1           0      -10.764523    3.325506   -1.264267
     63          1           0      -11.899217   -0.176320   -2.686708
     64          1           0       -9.919092    0.214669   -2.577323
     65          1           0      -11.283126    1.556127   -2.856717
     66          1           0       10.115005   -0.195942    2.936625
     67          1           0       11.459677    1.039409    3.088272
     68          1           0       11.856494   -0.658254    3.479825
     69          1           0       14.681030   -2.620232    0.234477
     70          1           0       -8.514260    0.452478   -0.139997
     71          1           0        8.760287    1.875373    0.138144
     72          1           0      -11.294830   -2.727354    1.517276
     73          1           0      -10.168125   -1.562502    2.362082
     74          1           0      -11.557474   -1.443424    2.861425
     75          1           0      -15.350821    1.003899   -0.607236
     76          1           0       -9.488246   -2.549466    0.100384
     77          1           0        5.538424   -0.899112   -0.505986
     78          1           0        7.377259   -1.620563   -0.926884
     79          1           0        6.564501   -1.617949    0.699759
     80          1           0        6.721466    2.662650    0.372513
     81          1           0       -6.497204   -3.479989   -1.243265
     82          1           0       -6.597417   -3.978557    0.698848
     83          1           0       -8.108111   -4.172777   -0.514586
     84          1           0       -6.534869   -0.157220    0.495427
     85          1           0        4.240093    0.647859   -0.259282
     86          1           0       -4.856216   -2.460889   -0.454220
     87          1           0        4.664824    3.437132    0.691678
     88          1           0       -4.252832    0.254983    0.540804
     89          1           0        1.696463    4.013417    2.071519
     90          1           0        1.142003    4.280061    0.253346
     91          1           0        2.769546    4.824246    0.698829
     92          1           0        2.214091    0.638776    0.132989
     93          1           0       -2.521017    0.947722    0.495305
     94          1           0       -2.225158   -2.356333   -1.701146
     95          1           0       -0.945769   -1.984904   -0.381002
     96          1           0       -2.522649   -3.082362   -0.016603
     97          1           0       -0.222007    2.285017    0.774301
     98          1           0        0.233455   -0.508927   -0.170958
 ---------------------------------------------------------------------

 SCF Done:  E(RCAM-B3LYP) =  -1706.98447215     A.U. after   14 cycles

 Excitation energies and oscillator strengths:

 Excited State   1:      Singlet-A      2.3371 eV  530.51 nm  f=2.9192  <S**2>=0.000
     155 ->158        -0.17146
     156 ->157         0.68271
 This state for optimization and/or second-order correction.
 Total Energy, E(TD-HF/TD-DFT) =  -1706.89858551
 Copying the excited state density for this state as the 1-particle RhoCI density.

 The electronic state is 1-A.
 Alpha  occ. eigenvalues --  -19.21923 -19.21917 -10.29661 -10.29406 -10.28259
 Alpha  occ. eigenvalues --  -10.28067 -10.27835 -10.27720 -10.27647 -10.27406
 Alpha  occ. eigenvalues --  -10.27270 -10.27131 -10.27004 -10.26902 -10.26821
 Alpha  occ. eigenvalues --  -10.26752 -10.26684 -10.26648 -10.26633 -10.26591
 Alpha  occ. eigenvalues --  -10.26328 -10.26306 -10.26272 -10.26147 -10.26142
 Alpha  occ. eigenvalues --  -10.26099 -10.25944 -10.25860 -10.25857 -10.25724
 Alpha  occ. eigenvalues --  -10.25702 -10.25525 -10.25480 -10.25010 -10.24943
 Alpha  occ. eigenvalues --  -10.24932 -10.24930 -10.24826 -10.24425 -10.23884
 Alpha  occ. eigenvalues --  -10.23450 -10.21776  -1.07716  -1.06831  -0.93792
 Alpha  occ. eigenvalues --   -0.93543  -0.92749  -0.92001  -0.90371  -0.89962
 Alpha  occ. eigenvalues --   -0.87301  -0.87011  -0.86169  -0.85848  -0.85163
 Alpha  occ. eigenvalues --   -0.83479  -0.82316  -0.80964  -0.80031  -0.77786
 Alpha  occ. eigenvalues --   -0.76571  -0.75928  -0.75672  -0.75533  -0.75035
 Alpha  occ. eigenvalues --   -0.74932  -0.74599  -0.74206  -0.73032  -0.70063
 Alpha  occ. eigenvalues --   -0.69131  -0.67953  -0.66177  -0.64731  -0.63726
 Alpha  occ. eigenvalues --   -0.62821  -0.62497  -0.62172  -0.61114  -0.60091
 Alpha  occ. eigenvalues --   -0.59553  -0.59238  -0.57973  -0.57133  -0.56518
 Alpha  occ. eigenvalues --   -0.55310  -0.54737  -0.54403  -0.54255  -0.53239
 Alpha  occ. eigenvalues --   -0.53099  -0.52925  -0.52113  -0.51993  -0.51249
 Alpha  occ. eigenvalues --   -0.50568  -0.50220  -0.49864  -0.49075  -0.48991
 Alpha  occ. eigenvalues --   -0.48644  -0.48557  -0.48149  -0.47834  -0.47601
 Alpha  occ. eigenvalues --   -0.47093  -0.46919  -0.46399  -0.46320  -0.45749
 Alpha  occ. eigenvalues --   -0.45545  -0.45283  -0.44858  -0.44607  -0.44462
 Alpha  occ. eigenvalues --   -0.44258  -0.43498  -0.43474  -0.43180  -0.42994
 Alpha  occ. eigenvalues --   -0.42882  -0.42652  -0.42476  -0.42157  -0.41941
 Alpha  occ. eigenvalues --   -0.41861  -0.41643  -0.40919  -0.40769  -0.40358
 Alpha  occ. eigenvalues --   -0.40199  -0.40038  -0.39769  -0.39443  -0.39194
 Alpha  occ. eigenvalues --   -0.38720  -0.38548  -0.38357  -0.38026  -0.37791
 Alpha  occ. eigenvalues --   -0.37416  -0.37228  -0.37003  -0.36254  -0.35406
 Alpha  occ. eigenvalues --   -0.34688  -0.34504  -0.33655  -0.32730  -0.32289
 Alpha  occ. eigenvalues --   -0.31520  -0.29821  -0.28908  -0.26904  -0.23544
 Alpha  occ. eigenvalues --   -0.19843
 Alpha virt. eigenvalues --   -0.05216  -0.01246   0.03215   0.06059   0.06988
 Alpha virt. eigenvalues --    0.08652   0.09771   0.11395   0.11691   0.11939
 Alpha virt. eigenvalues --    0.12398   0.12778   0.12869   0.13090   0.13207

 Mulliken charges:
               1
     1  O   -0.552074
     2  O   -0.572971
     3  C    0.011764
     4  C   -0.151030
     5  C   -0.166631
     6  C    0.124638
     7  C    0.124679
     8  C   -0.042384
     9  C   -0.286972
    10  C   -0.284039
    11  C   -0.159767
    12  C   -0.111405
    13  C    0.151510
    14  C    0.102174
    15  C   -0.056355
    16  C   -0.213914
    17  C    0.003487
    18  C   -0.299709
    19  C   -0.296660
    20  C   -0.359210
    21  C   -0.094481
    22  C   -0.136505
    23  C   -0.344940
    24  C    0.153822
    25  C   -0.091215
    26  C   -0.364886
    27  C    0.047287
    28  C   -0.158100
    29  C   -0.351364
    30  C   -0.102670
    31  C   -0.074729
    32  C   -0.051682
    33  C   -0.119588
    34  C    0.116824
    35  C   -0.140818
    36  C    0.139493
    37  C   -0.365017
    38  C   -0.095176
    39  C   -0.116023
    40  C   -0.356967
    41  C   -0.073535
    42  C   -0.123199
    43  H    0.081737
    44  H    0.108067
    45  H    0.076961
    46  H    0.094812
    47  H    0.091322
    48  H    0.073303
    49  H    0.107441
    50  H    0.127493
    51  H    0.092875
    52  H    0.087200
    53  H    0.106216
    54  H    0.058663
    55  H    0.070471
    56  H    0.091855
    57  H    0.071115
    58  H    0.092500
    59  H    0.116627
    60  H    0.103076
    61  H    0.114661
    62  H    0.091726
    63  H    0.093714
    64  H    0.098161
    65  H    0.105089
    66  H    0.130300
    67  H    0.120665
    68  H    0.082576
    69  H    0.295631
    70  H    0.091015
    71  H    0.074027
    72  H    0.128836
    73  H    0.124228
    74  H    0.109554
    75  H    0.304182
    76  H    0.060330
    77  H    0.119038
    78  H    0.089379
    79  H    0.100083
    80  H    0.061512
    81  H    0.131035
    82  H    0.118900
    83  H    0.099861
    84  H    0.064118
    85  H    0.095055
    86  H    0.061826
    87  H    0.082733
    88  H    0.076482
    89  H    0.112982
    90  H    0.136073
    91  H    0.093851
    92  H    0.077700
    93  H    0.069299
    94  H    0.105541
    95  H    0.110479
    96  H    0.104759
    97  H    0.080676
    98  H    0.070524
 Sum of Mulliken charges =  -0.00000

 Dipole moment (field-independent basis, Debye):
    X=             -0.2232    Y=             -1.3328    Z=              0.0205  Tot=              1.3515
 Quadrupole moment (field-independent basis, Debye-Ang):
   XX=           -266.3755   YY=           -242.2646   ZZ=           -262.7372
   XY=            -20.4553   XZ=             29.9162   YZ=             -0.1765

 Normal termination of Gaussian 16 at Sun Jul 14 08:24:44 2019.
