 Gaussian 16, Revision A.03,
 Gaussian 16:  ES64L-G16RevA.03 25-Dec-2016

 -------------------------------------
 # td=(NStates=1) CAM-B3LYP/6-31G(d,p)
 -------------------------------------

 --
 TD
 --
 Symbolic Z-matrix:
 Charge =  0 Multiplicity = 1

                         Standard orientation:
 ---------------------------------------------------------------------
 Center     Atomic      Atomic             Coordinates (Angstroms)
 Number     Number       Type             X           Y           Z
 ---------------------------------------------------------------------
      1          8           0      -14.184042   -1.895739    0.499231
      2          8           0       14.818820    0.974738    0.482710
      3          6           0      -11.766000    0.054051    1.446843
      4          6           0      -11.062939    0.339750    0.100492
      5          6           0      -11.919509   -1.536970    1.447155
      6          6           0      -12.753747   -2.079314    0.296459
      7          6           0      -11.648361   -0.298324   -1.078872
      8          6           0       11.063987    0.925196    1.271924
      9          6           0      -11.025522    0.474380    2.621678
     10          6           0      -13.134784    0.767222    1.490130
     11          6           0       12.473791    1.390068    1.106697
     12          6           0      -12.389261   -1.424451   -0.936598
     13          6           0       13.541352    0.466150    0.578215
     14          6           0       10.752640    0.073837    0.105458
     15          6           0       -9.610439   -0.088148    0.190946
     16          6           0       13.105581   -0.151109   -0.633186
     17          6           0       11.644967   -0.366522   -0.800102
     18          6           0       10.142019    2.152094    1.238148
     19          6           0       10.826725    0.038783    2.585574
     20          6           0      -11.473714    0.362417   -2.427138
     21          6           0       -8.584888    0.719401   -0.195410
     22          6           0        9.334622   -0.366933   -0.015988
     23          6           0       11.357244   -1.121575   -2.138487
     24          6           0       -7.133588    0.411366   -0.144039
     25          6           0        8.805932   -1.709080   -0.394979
     26          6           0       -6.738673   -0.974818    0.214512
     27          6           0        7.379169   -2.074355   -0.303267
     28          6           0       -6.254605    1.397625   -0.446808
     29          6           0        7.274068   -3.556057   -0.301056
     30          6           0        6.358186   -1.130314   -0.347709
     31          6           0       -4.811128    1.406244   -0.380711
     32          6           0        5.050603   -1.604509   -0.225162
     33          6           0       -4.014540    2.477109   -0.808113
     34          6           0       -2.690153    2.629888   -0.942877
     35          6           0        4.063173   -0.648279   -0.269181
     36          6           0        2.668751   -0.742780   -0.250896
     37          6           0       -1.920683    3.841238   -1.287134
     38          6           0       -1.824349    1.424663   -0.658689
     39          6           0        1.852584    0.333706   -0.495737
     40          6           0        2.187118   -2.133671   -0.139679
     41          6           0       -0.445017    1.399879   -0.770185
     42          6           0        0.434865    0.298406   -0.465083
     43          1           0      -11.186262    1.557188    0.054822
     44          1           0      -12.458585   -1.718183    2.407652
     45          1           0      -10.886844   -2.094461    1.305842
     46          1           0      -12.641502   -3.361698    0.139713
     47          1           0      -10.004164   -0.029565    2.652610
     48          1           0      -10.761472    1.737983    2.694297
     49          1           0      -11.369589    0.203578    3.624287
     50          1           0      -13.653553    0.612020    0.657009
     51          1           0      -13.682343    0.432941    2.504983
     52          1           0      -12.852802    1.836183    1.433065
     53          1           0       12.434883    2.154814    0.507659
     54          1           0       12.876977    1.896365    1.989733
     55          1           0      -12.548406   -1.734768   -1.937543
     56          1           0       13.520322   -0.497764    1.317530
     57          1           0       -9.329702   -1.206760    0.466308
     58          1           0       13.600968   -0.972206   -1.040119
     59          1           0       13.135012    0.507717   -1.416580
     60          1           0        9.219091    1.931515    1.769017
     61          1           0       10.037989    2.532344    0.190529
     62          1           0       10.387365    3.131963    1.919217
     63          1           0       11.628380   -0.628866    2.588633
     64          1           0        9.925435   -0.456493    2.560279
     65          1           0       10.879358    0.846588    3.608894
     66          1           0      -10.321687    0.804178   -2.422290
     67          1           0      -11.982264    1.445504   -2.711089
     68          1           0      -11.663977   -0.337269   -3.275193
     69          1           0      -14.397018   -2.392887   -0.406322
     70          1           0        8.598296    0.301448    0.414863
     71          1           0       -8.669410    1.769588   -0.596135
     72          1           0       11.815761   -2.049174   -2.145829
     73          1           0       10.159809   -1.488371   -2.246108
     74          1           0       11.907671   -0.502938   -2.946406
     75          1           0       15.186379    1.232025    1.320208
     76          1           0        9.587147   -2.374438   -0.649720
     77          1           0       -5.656271   -0.914894    0.391069
     78          1           0       -7.351578   -1.203270    1.097533
     79          1           0       -7.041292   -1.690565   -0.529711
     80          1           0       -6.776712    2.504904   -0.617479
     81          1           0        7.050899   -3.962800    0.772102
     82          1           0        6.459080   -4.105919   -0.978949
     83          1           0        8.317543   -4.090974   -0.418852
     84          1           0        6.526292   -0.237629   -0.321838
     85          1           0       -4.452973    0.326576   -0.032515
     86          1           0        5.087612   -2.584333   -0.220650
     87          1           0       -4.544914    3.372440   -1.131373
     88          1           0        4.726252    0.377583   -0.378841
     89          1           0       -1.495473    3.751155   -2.351777
     90          1           0       -1.228212    4.171839   -0.507108
     91          1           0       -2.558758    4.699695   -1.203451
     92          1           0       -2.366296    0.356340   -0.380529
     93          1           0        2.168001    1.390960   -0.367273
     94          1           0        2.118903   -2.425977    0.928283
     95          1           0        1.098818   -2.180945   -0.955958
     96          1           0        3.241803   -2.924505   -0.790333
     97          1           0        0.203669    2.262873   -1.011919
     98          1           0        0.211254   -0.870251   -0.202637
 ---------------------------------------------------------------------

 SCF Done:  E(RCAM-B3LYP) =  -1706.77317403     A.U. after   16 cycles

 Excitation energies and oscillator strengths:

 Excited State   1:      Singlet-A      1.7513 eV  707.96 nm  f=2.8571  <S**2>=0.000
     155 ->158         0.13080
     156 ->157         0.70416
     156 <-157        -0.13151
 This state for optimization and/or second-order correction.
 Total Energy, E(TD-HF/TD-DFT) =  -1706.70881554
 Copying the excited state density for this state as the 1-particle RhoCI density.

 The electronic state is 1-A.
 Alpha  occ. eigenvalues --  -19.22107 -19.21980 -10.32562 -10.31130 -10.30452
 Alpha  occ. eigenvalues --  -10.28199 -10.28182 -10.27961 -10.27899 -10.27875
 Alpha  occ. eigenvalues --  -10.27693 -10.27624 -10.27563 -10.27392 -10.27337
 Alpha  occ. eigenvalues --  -10.27286 -10.27285 -10.27226 -10.27224 -10.27209
 Alpha  occ. eigenvalues --  -10.27071 -10.27022 -10.26918 -10.26892 -10.26769
 Alpha  occ. eigenvalues --  -10.26658 -10.26472 -10.26374 -10.26302 -10.26187
 Alpha  occ. eigenvalues --  -10.26161 -10.25971 -10.25666 -10.25642 -10.25630
 Alpha  occ. eigenvalues --  -10.25253 -10.24889 -10.24679 -10.23889 -10.23462
 Alpha  occ. eigenvalues --  -10.23456 -10.23372  -1.11694  -1.08200  -0.95158
 Alpha  occ. eigenvalues --   -0.94338  -0.92781  -0.91581  -0.90635  -0.90023
 Alpha  occ. eigenvalues --   -0.88306  -0.87377  -0.86677  -0.85398  -0.84516
 Alpha  occ. eigenvalues --   -0.83509  -0.82203  -0.80437  -0.79117  -0.78295
 Alpha  occ. eigenvalues --   -0.77079  -0.77056  -0.76111  -0.75812  -0.75733
 Alpha  occ. eigenvalues --   -0.75451  -0.74561  -0.74451  -0.71958  -0.70717
 Alpha  occ. eigenvalues --   -0.69506  -0.67204  -0.66187  -0.65829  -0.64810
 Alpha  occ. eigenvalues --   -0.64100  -0.62823  -0.62672  -0.60828  -0.60035
 Alpha  occ. eigenvalues --   -0.59132  -0.57622  -0.57548  -0.56456  -0.56055
 Alpha  occ. eigenvalues --   -0.55631  -0.55039  -0.54672  -0.54552  -0.54189
 Alpha  occ. eigenvalues --   -0.53354  -0.52978  -0.52165  -0.51970  -0.51018
 Alpha  occ. eigenvalues --   -0.50756  -0.50375  -0.50121  -0.49615  -0.49494
 Alpha  occ. eigenvalues --   -0.49059  -0.48756  -0.48420  -0.48224  -0.47767
 Alpha  occ. eigenvalues --   -0.47654  -0.47100  -0.46819  -0.46346  -0.45803
 Alpha  occ. eigenvalues --   -0.45509  -0.45485  -0.45253  -0.44847  -0.44649
 Alpha  occ. eigenvalues --   -0.44326  -0.43765  -0.43726  -0.43493  -0.43384
 Alpha  occ. eigenvalues --   -0.43126  -0.43100  -0.42748  -0.42535  -0.42356
 Alpha  occ. eigenvalues --   -0.41330  -0.41266  -0.41027  -0.40887  -0.40498
 Alpha  occ. eigenvalues --   -0.40425  -0.40061  -0.39719  -0.39444  -0.39182
 Alpha  occ. eigenvalues --   -0.38877  -0.38810  -0.38130  -0.37819  -0.37490
 Alpha  occ. eigenvalues --   -0.37047  -0.36444  -0.36209  -0.36068  -0.35861
 Alpha  occ. eigenvalues --   -0.34713  -0.34590  -0.33644  -0.32216  -0.31698
 Alpha  occ. eigenvalues --   -0.31497  -0.29306  -0.28813  -0.27071  -0.23097
 Alpha  occ. eigenvalues --   -0.18275
 Alpha virt. eigenvalues --   -0.07238  -0.01443   0.02399   0.04371   0.06608
 Alpha virt. eigenvalues --    0.08152   0.09822   0.10118   0.10623   0.11056
 Alpha virt. eigenvalues --    0.11636   0.11911   0.12124   0.12653   0.13129

 Mulliken charges:
               1
     1  O   -0.527226
     2  O   -0.548384
     3  C    0.017786
     4  C   -0.152826
     5  C   -0.195336
     6  C    0.124077
     7  C    0.144022
     8  C   -0.008638
     9  C   -0.279123
    10  C   -0.266215
    11  C   -0.189147
    12  C   -0.087700
    13  C    0.188395
    14  C    0.057216
    15  C   -0.103939
    16  C   -0.200041
    17  C    0.025921
    18  C   -0.315435
    19  C   -0.280633
    20  C   -0.351628
    21  C   -0.070224
    22  C   -0.116772
    23  C   -0.360175
    24  C    0.103950
    25  C   -0.151892
    26  C   -0.362893
    27  C    0.084237
    28  C   -0.130030
    29  C   -0.393326
    30  C   -0.043211
    31  C   -0.077534
    32  C   -0.018167
    33  C   -0.121774
    34  C    0.089334
    35  C   -0.124014
    36  C    0.110982
    37  C   -0.376526
    38  C   -0.105469
    39  C   -0.102970
    40  C   -0.338153
    41  C   -0.102136
    42  C   -0.093041
    43  H    0.074009
    44  H    0.104873
    45  H    0.091908
    46  H    0.038745
    47  H    0.091653
    48  H    0.061840
    49  H    0.107150
    50  H    0.125299
    51  H    0.087129
    52  H    0.084531
    53  H    0.109368
    54  H    0.073552
    55  H    0.067685
    56  H    0.030239
    57  H    0.088754
    58  H    0.115522
    59  H    0.123927
    60  H    0.112442
    61  H    0.113230
    62  H    0.076858
    63  H    0.113851
    64  H    0.122247
    65  H    0.052453
    66  H    0.096793
    67  H    0.105261
    68  H    0.111688
    69  H    0.308652
    70  H    0.081739
    71  H    0.076081
    72  H    0.128314
    73  H    0.106982
    74  H    0.106237
    75  H    0.311861
    76  H    0.094664
    77  H    0.101330
    78  H    0.118466
    79  H    0.131517
    80  H    0.059409
    81  H    0.117638
    82  H    0.112535
    83  H    0.110875
    84  H    0.043045
    85  H    0.077183
    86  H    0.062439
    87  H    0.078226
    88  H    0.064314
    89  H    0.128611
    90  H    0.133049
    91  H    0.106846
    92  H    0.081457
    93  H    0.083736
    94  H    0.144081
    95  H    0.089522
    96  H    0.051264
    97  H    0.090906
    98  H    0.066675
 Sum of Mulliken charges =  -0.00000

 Dipole moment (field-independent basis, Debye):
    X=              2.8818    Y=             -0.5057    Z=             -0.0906  Tot=              2.9272
 Quadrupole moment (field-independent basis, Debye-Ang):
   XX=           -272.4061   YY=           -243.9044   ZZ=           -262.2652
   XY=              3.6016   XZ=             35.0176   YZ=              2.1497

 Normal termination of Gaussian 16 at Fri Jul 12 20:28:43 2019.
