 Gaussian 16, Revision A.03,
 Gaussian 16:  ES64L-G16RevA.03 25-Dec-2016

 -------------------------------------
 # td=(NStates=1) CAM-B3LYP/6-31G(d,p)
 -------------------------------------

 --
 TD
 --
 Symbolic Z-matrix:
 Charge =  0 Multiplicity = 1

                         Standard orientation:
 ---------------------------------------------------------------------
 Center     Atomic      Atomic             Coordinates (Angstroms)
 Number     Number       Type             X           Y           Z
 ---------------------------------------------------------------------
      1          8           0      -14.202223   -1.720789    0.562077
      2          8           0       14.837348    0.815926    0.204467
      3          6           0      -11.683220   -0.164355    1.368238
      4          6           0      -10.919099    0.290704    0.077082
      5          6           0      -11.924625   -1.627529    1.315668
      6          6           0      -12.919903   -2.070437    0.167096
      7          6           0      -11.797652   -0.278052   -1.097663
      8          6           0       11.201701    0.941987    1.157933
      9          6           0      -10.884542    0.090306    2.618405
     10          6           0      -12.886208    0.714373    1.513265
     11          6           0       12.579781    1.413930    0.852849
     12          6           0      -12.599931   -1.301880   -1.035082
     13          6           0       13.547416    0.330845    0.398362
     14          6           0       10.695810    0.008938    0.059078
     15          6           0       -9.448555   -0.198332    0.031943
     16          6           0       13.089258   -0.246654   -0.901550
     17          6           0       11.536984   -0.551088   -0.957554
     18          6           0       10.323209    2.175084    1.449772
     19          6           0       11.221084    0.081188    2.431567
     20          6           0      -11.426735    0.368251   -2.371770
     21          6           0       -8.450898    0.677945   -0.104575
     22          6           0        9.222835   -0.354521    0.065493
     23          6           0       11.078209   -1.308534   -2.178030
     24          6           0       -7.127686    0.483229   -0.220158
     25          6           0        8.777506   -1.555914   -0.243139
     26          6           0       -6.620063   -0.917292   -0.214004
     27          6           0        7.347828   -2.031822   -0.071998
     28          6           0       -6.148773    1.496535   -0.494538
     29          6           0        7.159370   -3.574852   -0.024500
     30          6           0        6.354397   -1.131094   -0.124469
     31          6           0       -4.788360    1.421959   -0.443452
     32          6           0        4.923475   -1.560717   -0.146412
     33          6           0       -3.982037    2.589782   -0.574893
     34          6           0       -2.635519    2.715537   -0.724213
     35          6           0        4.026595   -0.567487   -0.197377
     36          6           0        2.633159   -0.739698   -0.287887
     37          6           0       -1.949425    4.076656   -0.754927
     38          6           0       -1.839717    1.576229   -0.758751
     39          6           0        1.729997    0.398903   -0.487961
     40          6           0        2.103836   -2.197435   -0.130107
     41          6           0       -0.427692    1.595301   -0.706168
     42          6           0        0.339089    0.391642   -0.525897
     43          1           0      -11.014368    1.405740    0.051814
     44          1           0      -12.507726   -2.027228    2.228821
     45          1           0      -10.978611   -2.073544    1.182422
     46          1           0      -12.839010   -3.059014   -0.132478
     47          1           0      -10.004902   -0.651466    2.666943
     48          1           0      -10.667522    1.167822    2.795625
     49          1           0      -11.514978   -0.123190    3.605415
     50          1           0      -13.778350    0.711031    0.827005
     51          1           0      -13.525397    0.216444    2.460352
     52          1           0      -12.835540    1.789301    2.033555
     53          1           0       12.470509    2.093720    0.021763
     54          1           0       13.209920    1.981534    1.701574
     55          1           0      -13.229256   -1.722301   -1.980061
     56          1           0       13.580214   -0.374392    1.436525
     57          1           0       -9.183516   -1.251385    0.079745
     58          1           0       13.369781   -1.132349   -1.045794
     59          1           0       13.493639    0.493311   -1.608988
     60          1           0        9.298241    1.868269    1.764615
     61          1           0       10.222128    2.535715    0.495916
     62          1           0       10.657213    2.618064    2.293668
     63          1           0       11.707297   -0.859420    2.398103
     64          1           0       10.166366   -0.103568    2.920405
     65          1           0       11.563385    0.744033    3.295101
     66          1           0      -10.266547    0.482193   -2.849343
     67          1           0      -11.820226    1.396261   -2.299088
     68          1           0      -12.182012   -0.178725   -3.206266
     69          1           0      -14.637720   -2.098285   -0.157608
     70          1           0        8.500216    0.438339    0.121519
     71          1           0       -8.854618    1.837550   -0.174335
     72          1           0       11.498753   -2.425725   -2.161485
     73          1           0        9.969648   -1.684093   -2.335009
     74          1           0       11.442087   -0.700447   -3.163035
     75          1           0       15.342743    1.165326    0.903286
     76          1           0        9.545716   -2.369811   -0.189327
     77          1           0       -5.530092   -0.964365   -0.514295
     78          1           0       -6.660963   -1.323468    0.871387
     79          1           0       -7.172442   -1.551636   -1.016291
     80          1           0       -6.594495    2.464383   -0.255309
     81          1           0        7.011213   -3.697936    1.141767
     82          1           0        6.167034   -3.987753   -0.516410
     83          1           0        7.899970   -4.123179   -0.067810
     84          1           0        6.623961   -0.142582   -0.276167
     85          1           0       -4.130055    0.561694   -0.345445
     86          1           0        4.795982   -2.593193   -0.071740
     87          1           0       -4.420901    3.554252   -0.641400
     88          1           0        4.359480    0.343694   -0.131333
     89          1           0       -1.518160    4.273086   -1.554559
     90          1           0       -1.208391    4.297431   -0.180670
     91          1           0       -2.854607    4.756522   -0.748960
     92          1           0       -2.354976    0.674619   -0.619078
     93          1           0        2.341491    1.456687   -0.396872
     94          1           0        2.196054   -2.685700    0.959485
     95          1           0        0.910287   -2.242150   -0.091751
     96          1           0        2.555844   -2.746858   -0.957081
     97          1           0        0.089925    2.491657   -0.833826
     98          1           0       -0.370095   -0.455809   -0.245393
 ---------------------------------------------------------------------

 SCF Done:  E(RCAM-B3LYP) =  -1706.85533117     A.U. after   16 cycles

 Excitation energies and oscillator strengths:

 Excited State   1:      Singlet-A      1.8889 eV  656.37 nm  f=2.8576  <S**2>=0.000
     155 ->158         0.11730
     156 ->157         0.70581
     156 <-157        -0.12888
 This state for optimization and/or second-order correction.
 Total Energy, E(TD-HF/TD-DFT) =  -1706.78591449
 Copying the excited state density for this state as the 1-particle RhoCI density.

 The electronic state is 1-A.
 Alpha  occ. eigenvalues --  -19.21158 -19.20608 -10.31514 -10.29464 -10.28258
 Alpha  occ. eigenvalues --  -10.28213 -10.28188 -10.28055 -10.27607 -10.27544
 Alpha  occ. eigenvalues --  -10.27499 -10.27267 -10.27254 -10.27193 -10.27126
 Alpha  occ. eigenvalues --  -10.26549 -10.26507 -10.26494 -10.26370 -10.26316
 Alpha  occ. eigenvalues --  -10.26240 -10.26237 -10.26233 -10.26098 -10.26054
 Alpha  occ. eigenvalues --  -10.26034 -10.25904 -10.25822 -10.25689 -10.25656
 Alpha  occ. eigenvalues --  -10.25354 -10.25180 -10.25034 -10.24938 -10.24875
 Alpha  occ. eigenvalues --  -10.24864 -10.24825 -10.24801 -10.24476 -10.24233
 Alpha  occ. eigenvalues --  -10.23670 -10.23021  -1.12782  -1.10430  -0.93820
 Alpha  occ. eigenvalues --   -0.93500  -0.92583  -0.91580  -0.91070  -0.89502
 Alpha  occ. eigenvalues --   -0.87304  -0.87039  -0.86944  -0.85645  -0.84721
 Alpha  occ. eigenvalues --   -0.82843  -0.81923  -0.80465  -0.80422  -0.78946
 Alpha  occ. eigenvalues --   -0.77315  -0.76947  -0.76272  -0.75769  -0.74984
 Alpha  occ. eigenvalues --   -0.74602  -0.74570  -0.73284  -0.72543  -0.70963
 Alpha  occ. eigenvalues --   -0.68978  -0.68402  -0.67298  -0.64851  -0.64643
 Alpha  occ. eigenvalues --   -0.63761  -0.63332  -0.62027  -0.61375  -0.59552
 Alpha  occ. eigenvalues --   -0.59494  -0.58528  -0.58338  -0.57460  -0.56445
 Alpha  occ. eigenvalues --   -0.56230  -0.55833  -0.54759  -0.54480  -0.54016
 Alpha  occ. eigenvalues --   -0.53432  -0.53325  -0.52604  -0.51970  -0.51541
 Alpha  occ. eigenvalues --   -0.51321  -0.50297  -0.50070  -0.49556  -0.49220
 Alpha  occ. eigenvalues --   -0.49087  -0.48858  -0.48533  -0.48503  -0.48052
 Alpha  occ. eigenvalues --   -0.47593  -0.47007  -0.46938  -0.46543  -0.46469
 Alpha  occ. eigenvalues --   -0.45897  -0.45798  -0.45299  -0.45242  -0.44965
 Alpha  occ. eigenvalues --   -0.44330  -0.44000  -0.43512  -0.43323  -0.43097
 Alpha  occ. eigenvalues --   -0.42907  -0.42483  -0.42358  -0.41949  -0.41659
 Alpha  occ. eigenvalues --   -0.41584  -0.41451  -0.41366  -0.40127  -0.40008
 Alpha  occ. eigenvalues --   -0.39826  -0.39534  -0.39292  -0.39027  -0.38849
 Alpha  occ. eigenvalues --   -0.38612  -0.38524  -0.37980  -0.37951  -0.37467
 Alpha  occ. eigenvalues --   -0.37289  -0.36829  -0.36427  -0.36246  -0.35814
 Alpha  occ. eigenvalues --   -0.35081  -0.34581  -0.33946  -0.32863  -0.31588
 Alpha  occ. eigenvalues --   -0.31081  -0.29780  -0.29007  -0.26401  -0.23705
 Alpha  occ. eigenvalues --   -0.18418
 Alpha virt. eigenvalues --   -0.06772  -0.00722   0.02554   0.05840   0.06983
 Alpha virt. eigenvalues --    0.08151   0.10715   0.11733   0.11912   0.12216
 Alpha virt. eigenvalues --    0.13056   0.13336   0.13621   0.13894   0.14173

 Mulliken charges:
               1
     1  O   -0.499145
     2  O   -0.564238
     3  C    0.038946
     4  C   -0.126904
     5  C   -0.171431
     6  C    0.100537
     7  C    0.128993
     8  C   -0.018962
     9  C   -0.286746
    10  C   -0.309732
    11  C   -0.158312
    12  C   -0.120307
    13  C    0.185066
    14  C    0.022327
    15  C   -0.085155
    16  C   -0.175914
    17  C    0.018872
    18  C   -0.293124
    19  C   -0.299788
    20  C   -0.346759
    21  C   -0.073565
    22  C   -0.073254
    23  C   -0.351103
    24  C    0.109021
    25  C   -0.134261
    26  C   -0.374257
    27  C    0.064611
    28  C   -0.136829
    29  C   -0.339704
    30  C   -0.116662
    31  C   -0.051784
    32  C   -0.073020
    33  C   -0.125282
    34  C    0.085323
    35  C   -0.068032
    36  C    0.081969
    37  C   -0.351414
    38  C   -0.109349
    39  C   -0.140443
    40  C   -0.360202
    41  C   -0.079091
    42  C   -0.083936
    43  H    0.099112
    44  H    0.101463
    45  H    0.097616
    46  H    0.086333
    47  H    0.085142
    48  H    0.098199
    49  H    0.080944
    50  H    0.125023
    51  H    0.068082
    52  H    0.081990
    53  H    0.092402
    54  H    0.055424
    55  H    0.055719
    56  H    0.035458
    57  H    0.094228
    58  H    0.116499
    59  H    0.125786
    60  H    0.093523
    61  H    0.115295
    62  H    0.114633
    63  H    0.115715
    64  H    0.085506
    65  H    0.081362
    66  H    0.108717
    67  H    0.114686
    68  H    0.068481
    69  H    0.294883
    70  H    0.088015
    71  H    0.056914
    72  H    0.094369
    73  H    0.123875
    74  H    0.101775
    75  H    0.303785
    76  H    0.083169
    77  H    0.103806
    78  H    0.112156
    79  H    0.106918
    80  H    0.085606
    81  H    0.107621
    82  H    0.111816
    83  H    0.112058
    84  H    0.078638
    85  H    0.087825
    86  H    0.086518
    87  H    0.065747
    88  H    0.066323
    89  H    0.135242
    90  H    0.127697
    91  H    0.091739
    92  H    0.064663
    93  H    0.076295
    94  H    0.109233
    95  H    0.092428
    96  H    0.128810
    97  H    0.076405
    98  H    0.091372
 Sum of Mulliken charges =  -0.00000

 Dipole moment (field-independent basis, Debye):
    X=              1.9457    Y=             -1.1243    Z=              0.3518  Tot=              2.2745
 Quadrupole moment (field-independent basis, Debye-Ang):
   XX=           -265.2302   YY=           -240.8122   ZZ=           -265.9426
   XY=             12.8724   XZ=             32.3721   YZ=              3.2918

 Normal termination of Gaussian 16 at Sun Jul 14 22:27:56 2019.
