 Gaussian 16, Revision A.03,
 Gaussian 16:  ES64L-G16RevA.03 25-Dec-2016

 -------------------------------------
 # td=(NStates=1) CAM-B3LYP/6-31G(d,p)
 -------------------------------------

 --
 TD
 --
 Symbolic Z-matrix:
 Charge =  0 Multiplicity = 1

                         Standard orientation:
 ---------------------------------------------------------------------
 Center     Atomic      Atomic             Coordinates (Angstroms)
 Number     Number       Type             X           Y           Z
 ---------------------------------------------------------------------
      1          8           0      -14.192236   -1.946835    0.607993
      2          8           0       14.633692    1.039562    0.266558
      3          6           0      -11.743671   -0.003744    1.464993
      4          6           0      -10.946959    0.337828    0.130341
      5          6           0      -11.859365   -1.403481    1.457299
      6          6           0      -12.724743   -2.101900    0.261973
      7          6           0      -11.626500   -0.328169   -1.120915
      8          6           0       11.091698    0.876704    1.307363
      9          6           0      -10.826814    0.475400    2.628908
     10          6           0      -13.064429    0.783783    1.407046
     11          6           0       12.477472    1.455099    1.121376
     12          6           0      -12.401649   -1.473196   -0.966649
     13          6           0       13.353495    0.419730    0.466564
     14          6           0       10.619685   -0.045290    0.081906
     15          6           0       -9.533199   -0.193702    0.012841
     16          6           0       12.820758    0.100524   -0.915744
     17          6           0       11.411168   -0.371386   -0.935300
     18          6           0       10.068177    2.065121    1.475447
     19          6           0       10.988565    0.068191    2.559580
     20          6           0      -11.291092    0.355946   -2.385825
     21          6           0       -8.445913    0.745152   -0.214987
     22          6           0        9.192353   -0.508987    0.255670
     23          6           0       10.993910   -1.083719   -2.242876
     24          6           0       -7.116033    0.471805   -0.174359
     25          6           0        8.806558   -1.773591   -0.239384
     26          6           0       -6.557567   -0.941315   -0.013508
     27          6           0        7.441344   -2.249075   -0.229033
     28          6           0       -6.122824    1.505155   -0.362648
     29          6           0        7.212992   -3.749457   -0.193195
     30          6           0        6.437749   -1.307989   -0.321527
     31          6           0       -4.790493    1.441295   -0.423311
     32          6           0        5.023585   -1.519962   -0.148754
     33          6           0       -3.985324    2.483433   -0.698733
     34          6           0       -2.562389    2.628815   -0.837829
     35          6           0        4.038963   -0.597105   -0.274878
     36          6           0        2.707982   -0.720922   -0.297511
     37          6           0       -1.906463    4.008447   -1.120343
     38          6           0       -1.793988    1.514055   -0.747755
     39          6           0        1.851507    0.320143   -0.631278
     40          6           0        2.190275   -2.160678    0.022165
     41          6           0       -0.369097    1.383580   -0.805701
     42          6           0        0.410740    0.330925   -0.583107
     43          1           0      -10.982565    1.400988   -0.003975
     44          1           0      -12.454700   -1.545997    2.340555
     45          1           0      -11.062159   -2.156076    1.669570
     46          1           0      -12.486753   -3.253763    0.159074
     47          1           0      -10.046202   -0.140399    2.735327
     48          1           0      -10.717490    1.723118    2.651621
     49          1           0      -11.386533    0.366691    3.523911
     50          1           0      -13.778312    0.654004    0.421449
     51          1           0      -13.524697    0.575659    2.213410
     52          1           0      -12.759851    1.826035    1.314406
     53          1           0       12.282488    2.435623    0.587232
     54          1           0       12.855022    1.843000    1.954986
     55          1           0      -12.684909   -1.968888   -2.040486
     56          1           0       13.556306   -0.394093    1.118970
     57          1           0       -9.407574   -1.373775    0.073030
     58          1           0       13.317452   -1.024861   -1.286454
     59          1           0       13.134078    0.970167   -1.563594
     60          1           0        9.151242    1.711586    1.908199
     61          1           0        9.889903    2.758041    0.633180
     62          1           0       10.633887    2.758625    2.266923
     63          1           0       11.852959   -0.615304    2.528647
     64          1           0       10.035949   -0.539799    2.641241
     65          1           0       11.141986    0.850610    3.421337
     66          1           0      -10.125900    0.262678   -2.799019
     67          1           0      -11.351653    1.449433   -2.547924
     68          1           0      -11.992461    0.002677   -3.165641
     69          1           0      -14.700269   -2.245898   -0.086309
     70          1           0        8.534899    0.106439    0.850540
     71          1           0       -8.768898    1.789907   -0.207466
     72          1           0       11.520084   -2.141238   -2.077089
     73          1           0        9.983661   -1.118049   -2.341962
     74          1           0       11.454754   -0.528353   -3.132483
     75          1           0       15.157255    1.364422    1.096191
     76          1           0        9.378730   -2.503053   -0.529422
     77          1           0       -5.490538   -1.164268    0.199991
     78          1           0       -6.972498   -1.143335    1.053662
     79          1           0       -6.911050   -1.676314   -0.767929
     80          1           0       -6.614330    2.605494   -0.273429
     81          1           0        7.130410   -4.264893    0.934695
     82          1           0        6.374973   -4.205620   -0.887673
     83          1           0        8.137016   -4.224893   -0.648496
     84          1           0        6.800693   -0.327221   -0.356934
     85          1           0       -4.515953    0.518985    0.014927
     86          1           0        4.696434   -2.546453   -0.029367
     87          1           0       -4.514037    3.445247   -0.788446
     88          1           0        4.643601    0.402575   -0.489058
     89          1           0       -1.074760    3.963944   -2.017293
     90          1           0       -1.293769    4.214944   -0.302802
     91          1           0       -2.650729    4.943878   -1.016218
     92          1           0       -2.228298    0.531042   -0.491978
     93          1           0        2.445410    1.367916   -0.801623
     94          1           0        2.695359   -2.462124    0.862089
     95          1           0        0.911113   -2.072776    0.212124
     96          1           0        2.279163   -2.910663   -0.776531
     97          1           0        0.169185    2.257289   -1.022365
     98          1           0       -0.021554   -0.719502   -0.541663
 ---------------------------------------------------------------------

 SCF Done:  E(RCAM-B3LYP) =  -1706.91638892     A.U. after   15 cycles

 Excitation energies and oscillator strengths:

 Excited State   1:      Singlet-A      2.1538 eV  575.65 nm  f=3.3101  <S**2>=0.000
     155 ->158         0.17202
     156 ->157         0.68339
 This state for optimization and/or second-order correction.
 Total Energy, E(TD-HF/TD-DFT) =  -1706.83723713
 Copying the excited state density for this state as the 1-particle RhoCI density.

 The electronic state is 1-A.
 Alpha  occ. eigenvalues --  -19.20190 -19.20042 -10.32189 -10.30172 -10.28223
 Alpha  occ. eigenvalues --  -10.28219 -10.27906 -10.27797 -10.27689 -10.27676
 Alpha  occ. eigenvalues --  -10.27620 -10.27192 -10.27083 -10.27037 -10.27030
 Alpha  occ. eigenvalues --  -10.27022 -10.26776 -10.26629 -10.26547 -10.26527
 Alpha  occ. eigenvalues --  -10.26526 -10.26516 -10.26434 -10.26371 -10.26338
 Alpha  occ. eigenvalues --  -10.26173 -10.25993 -10.25864 -10.25836 -10.25815
 Alpha  occ. eigenvalues --  -10.25791 -10.25762 -10.25581 -10.25505 -10.25418
 Alpha  occ. eigenvalues --  -10.25251 -10.25205 -10.24957 -10.24941 -10.24779
 Alpha  occ. eigenvalues --  -10.23822 -10.23392  -1.07521  -1.07039  -0.93961
 Alpha  occ. eigenvalues --   -0.93386  -0.92295  -0.91908  -0.90517  -0.89908
 Alpha  occ. eigenvalues --   -0.87703  -0.87309  -0.87058  -0.85298  -0.84139
 Alpha  occ. eigenvalues --   -0.83212  -0.82093  -0.79819  -0.79284  -0.77573
 Alpha  occ. eigenvalues --   -0.76661  -0.76292  -0.76037  -0.75717  -0.75615
 Alpha  occ. eigenvalues --   -0.75477  -0.75321  -0.74785  -0.73272  -0.70413
 Alpha  occ. eigenvalues --   -0.69597  -0.68067  -0.66912  -0.65885  -0.63535
 Alpha  occ. eigenvalues --   -0.62920  -0.62315  -0.61813  -0.60284  -0.59701
 Alpha  occ. eigenvalues --   -0.59028  -0.58812  -0.57817  -0.57589  -0.55701
 Alpha  occ. eigenvalues --   -0.55181  -0.54697  -0.54629  -0.54022  -0.53667
 Alpha  occ. eigenvalues --   -0.53459  -0.52963  -0.52629  -0.51419  -0.50852
 Alpha  occ. eigenvalues --   -0.50754  -0.50224  -0.49490  -0.49342  -0.49259
 Alpha  occ. eigenvalues --   -0.49088  -0.48433  -0.48294  -0.48089  -0.47796
 Alpha  occ. eigenvalues --   -0.46952  -0.46913  -0.46661  -0.46614  -0.46040
 Alpha  occ. eigenvalues --   -0.45791  -0.45689  -0.45115  -0.44677  -0.44430
 Alpha  occ. eigenvalues --   -0.44305  -0.43704  -0.43698  -0.43473  -0.43184
 Alpha  occ. eigenvalues --   -0.42821  -0.42648  -0.42403  -0.42022  -0.41962
 Alpha  occ. eigenvalues --   -0.41551  -0.41402  -0.41357  -0.41041  -0.40820
 Alpha  occ. eigenvalues --   -0.40155  -0.40054  -0.39952  -0.39707  -0.38800
 Alpha  occ. eigenvalues --   -0.38737  -0.38540  -0.38338  -0.38185  -0.37815
 Alpha  occ. eigenvalues --   -0.37081  -0.36961  -0.36232  -0.35672  -0.35286
 Alpha  occ. eigenvalues --   -0.34853  -0.34386  -0.33392  -0.32715  -0.31841
 Alpha  occ. eigenvalues --   -0.31243  -0.29402  -0.28571  -0.26576  -0.22742
 Alpha  occ. eigenvalues --   -0.19455
 Alpha virt. eigenvalues --   -0.05885  -0.02025   0.02157   0.04526   0.06524
 Alpha virt. eigenvalues --    0.09603   0.11354   0.11622   0.11741   0.11973
 Alpha virt. eigenvalues --    0.12297   0.12572   0.13009   0.13330   0.13627

 Mulliken charges:
               1
     1  O   -0.550362
     2  O   -0.600648
     3  C    0.015708
     4  C   -0.128519
     5  C   -0.193747
     6  C    0.112358
     7  C    0.112066
     8  C   -0.027597
     9  C   -0.290893
    10  C   -0.266771
    11  C   -0.179922
    12  C   -0.106211
    13  C    0.189567
    14  C    0.086531
    15  C   -0.090795
    16  C   -0.196795
    17  C    0.019855
    18  C   -0.309361
    19  C   -0.278136
    20  C   -0.366122
    21  C   -0.120265
    22  C   -0.133741
    23  C   -0.329753
    24  C    0.116916
    25  C   -0.084633
    26  C   -0.378051
    27  C    0.083057
    28  C   -0.140847
    29  C   -0.369889
    30  C   -0.113548
    31  C   -0.016717
    32  C   -0.089578
    33  C   -0.141971
    34  C    0.113785
    35  C   -0.096264
    36  C    0.114257
    37  C   -0.379644
    38  C   -0.119355
    39  C   -0.131755
    40  C   -0.357011
    41  C   -0.070985
    42  C   -0.084282
    43  H    0.082743
    44  H    0.110430
    45  H    0.099622
    46  H    0.078454
    47  H    0.118700
    48  H    0.076813
    49  H    0.101019
    50  H    0.103729
    51  H    0.109451
    52  H    0.089373
    53  H    0.095715
    54  H    0.084955
    55  H    0.060955
    56  H    0.094046
    57  H    0.096636
    58  H    0.060846
    59  H    0.129575
    60  H    0.106324
    61  H    0.109503
    62  H    0.073939
    63  H    0.093932
    64  H    0.106822
    65  H    0.080770
    66  H    0.106551
    67  H    0.121478
    68  H    0.106236
    69  H    0.294115
    70  H    0.102415
    71  H    0.089705
    72  H    0.098488
    73  H    0.131705
    74  H    0.107644
    75  H    0.305318
    76  H    0.074306
    77  H    0.115736
    78  H    0.109177
    79  H    0.122873
    80  H    0.054720
    81  H    0.103656
    82  H    0.112610
    83  H    0.104427
    84  H    0.075150
    85  H    0.084652
    86  H    0.071850
    87  H    0.072375
    88  H    0.063511
    89  H    0.114947
    90  H    0.144429
    91  H    0.102219
    92  H    0.076658
    93  H    0.072688
    94  H    0.133866
    95  H    0.067592
    96  H    0.129282
    97  H    0.067202
    98  H    0.078132
 Sum of Mulliken charges =  -0.00000

 Dipole moment (field-independent basis, Debye):
    X=              0.5880    Y=             -0.5833    Z=              0.7567  Tot=              1.1219
 Quadrupole moment (field-independent basis, Debye-Ang):
   XX=           -267.5630   YY=           -242.3302   ZZ=           -262.7539
   XY=              3.0017   XZ=             31.7232   YZ=              4.0846

 Normal termination of Gaussian 16 at Mon Jul 15 09:21:22 2019.
