 Gaussian 16, Revision A.03,
 Gaussian 16:  ES64L-G16RevA.03 25-Dec-2016

 -------------------------------------
 # td=(NStates=1) CAM-B3LYP/6-31G(d,p)
 -------------------------------------

 --
 TD
 --
 Symbolic Z-matrix:
 Charge =  0 Multiplicity = 1

                         Standard orientation:
 ---------------------------------------------------------------------
 Center     Atomic      Atomic             Coordinates (Angstroms)
 Number     Number       Type             X           Y           Z
 ---------------------------------------------------------------------
      1          8           0      -14.132884   -2.083133    0.519438
      2          8           0       14.798880    1.013523    0.017037
      3          6           0      -11.704552   -0.075600    1.266264
      4          6           0      -11.022394    0.320804   -0.026854
      5          6           0      -11.919948   -1.608226    1.421978
      6          6           0      -12.679427   -2.130769    0.104580
      7          6           0      -11.607520   -0.243780   -1.181891
      8          6           0       11.150313    0.967108    0.994503
      9          6           0      -10.873062    0.403049    2.510919
     10          6           0      -13.004619    0.731355    1.265701
     11          6           0       12.519043    1.611388    0.533148
     12          6           0      -12.359652   -1.282696   -1.161792
     13          6           0       13.508345    0.416107    0.312660
     14          6           0       10.563445   -0.171145    0.039689
     15          6           0       -9.559843   -0.079530    0.083794
     16          6           0       12.934452   -0.228999   -0.933685
     17          6           0       11.449135   -0.647065   -0.826708
     18          6           0       10.115818    2.134829    1.121274
     19          6           0       11.169309    0.289379    2.375660
     20          6           0      -11.406268    0.397927   -2.564359
     21          6           0       -8.574326    0.779736   -0.222197
     22          6           0        9.195597   -0.466913    0.107571
     23          6           0       11.054674   -1.464551   -1.975714
     24          6           0       -7.173315    0.485290   -0.233825
     25          6           0        8.742343   -1.709704   -0.052746
     26          6           0       -6.620362   -0.830103    0.015833
     27          6           0        7.364892   -2.193290   -0.027567
     28          6           0       -6.209910    1.507839   -0.398587
     29          6           0        7.118620   -3.580793    0.001796
     30          6           0        6.366652   -1.259443    0.024311
     31          6           0       -4.730113    1.459707   -0.416120
     32          6           0        5.019744   -1.485079   -0.060205
     33          6           0       -3.900139    2.483684   -0.499723
     34          6           0       -2.620519    2.630122   -0.625653
     35          6           0        4.048421   -0.481933   -0.109498
     36          6           0        2.707421   -0.746663   -0.094542
     37          6           0       -1.925479    3.972767   -0.879024
     38          6           0       -1.748658    1.583060   -0.402869
     39          6           0        1.740241    0.354559   -0.239349
     40          6           0        2.190839   -2.173653   -0.036085
     41          6           0       -0.417642    1.451786   -0.417952
     42          6           0        0.366674    0.380649   -0.295734
     43          1           0      -10.847572    1.430450   -0.032257
     44          1           0      -12.711476   -2.228867    2.144546
     45          1           0      -11.182443   -2.129735    1.708258
     46          1           0      -12.607761   -3.079138   -0.020127
     47          1           0      -10.032892   -0.236349    2.788912
     48          1           0      -10.514692    1.473793    2.459808
     49          1           0      -11.396213    0.293559    3.457574
     50          1           0      -13.563183    0.587627    0.396806
     51          1           0      -13.692363    0.400385    2.084578
     52          1           0      -12.876859    1.858332    1.551491
     53          1           0       12.478195    2.106729   -0.632614
     54          1           0       12.798149    2.247647    1.360523
     55          1           0      -12.842535   -1.796135   -1.991540
     56          1           0       13.485301   -0.268556    1.054495
     57          1           0       -9.253055   -1.225712    0.003314
     58          1           0       13.586147   -1.299369   -1.278909
     59          1           0       13.151194    0.416266   -1.731353
     60          1           0        9.425384    1.743027    1.698026
     61          1           0        9.890623    2.809356    0.131671
     62          1           0       10.673261    2.746732    1.718620
     63          1           0       11.919740   -0.368812    2.703397
     64          1           0       10.156748   -0.035302    2.658070
     65          1           0       11.317313    1.139341    3.199338
     66          1           0      -10.338491    0.768523   -2.685563
     67          1           0      -12.230958    1.205359   -2.612609
     68          1           0      -11.367291   -0.392089   -3.378573
     69          1           0      -14.470056   -2.336827   -0.238691
     70          1           0        8.511792    0.446220    0.541016
     71          1           0       -8.737473    1.843492   -0.342967
     72          1           0       11.246745   -2.535256   -1.893923
     73          1           0       10.002180   -1.330192   -2.276674
     74          1           0       11.773079   -1.373372   -2.927022
     75          1           0       15.197673    1.378062    0.835831
     76          1           0        9.435970   -2.544098   -0.197800
     77          1           0       -5.562697   -0.895216    0.264059
     78          1           0       -7.055426   -1.194090    0.935853
     79          1           0       -6.869275   -1.451531   -1.002542
     80          1           0       -6.558476    2.538401   -0.722401
     81          1           0        6.313302   -3.971245    0.815514
     82          1           0        6.569268   -4.059609   -0.992506
     83          1           0        8.155720   -4.173417   -0.038668
     84          1           0        6.651088   -0.158657   -0.167811
     85          1           0       -4.347323    0.435570   -0.240113
     86          1           0        4.490471   -2.491221    0.103373
     87          1           0       -4.267798    3.495310   -0.487403
     88          1           0        4.226839    0.515037   -0.152963
     89          1           0       -1.103319    3.894163   -1.616761
     90          1           0       -1.417393    4.443194    0.083865
     91          1           0       -2.689525    4.683386   -1.225602
     92          1           0       -2.289637    0.605907   -0.337229
     93          1           0        2.280141    1.352661   -0.215445
     94          1           0        2.813181   -2.632180    0.801595
     95          1           0        1.011093   -2.163190    0.266542
     96          1           0        2.408577   -2.684963   -1.032875
     97          1           0        0.178942    2.326143   -0.455144
     98          1           0       -0.259272   -0.579929   -0.112788
 ---------------------------------------------------------------------

 SCF Done:  E(RCAM-B3LYP) =  -1706.90029427     A.U. after   16 cycles

 Excitation energies and oscillator strengths:

 Excited State   1:      Singlet-A      1.8215 eV  680.67 nm  f=3.1833  <S**2>=0.000
     155 ->158         0.13348
     156 ->157         0.70127
     156 <-157        -0.12012
 This state for optimization and/or second-order correction.
 Total Energy, E(TD-HF/TD-DFT) =  -1706.83335565
 Copying the excited state density for this state as the 1-particle RhoCI density.

 The electronic state is 1-A.
 Alpha  occ. eigenvalues --  -19.21030 -19.19294 -10.29788 -10.29577 -10.28407
 Alpha  occ. eigenvalues --  -10.27907 -10.27772 -10.27570 -10.27259 -10.27248
 Alpha  occ. eigenvalues --  -10.27193 -10.26923 -10.26908 -10.26872 -10.26834
 Alpha  occ. eigenvalues --  -10.26793 -10.26739 -10.26719 -10.26663 -10.26588
 Alpha  occ. eigenvalues --  -10.26497 -10.26444 -10.26428 -10.26326 -10.26236
 Alpha  occ. eigenvalues --  -10.26146 -10.26093 -10.25953 -10.25942 -10.25754
 Alpha  occ. eigenvalues --  -10.25575 -10.25213 -10.25208 -10.25063 -10.25010
 Alpha  occ. eigenvalues --  -10.24899 -10.24870 -10.24793 -10.24565 -10.24004
 Alpha  occ. eigenvalues --  -10.23978 -10.23081  -1.09333  -1.07944  -0.95064
 Alpha  occ. eigenvalues --   -0.93964  -0.93570  -0.92438  -0.91105  -0.90651
 Alpha  occ. eigenvalues --   -0.88804  -0.87278  -0.86865  -0.85940  -0.84996
 Alpha  occ. eigenvalues --   -0.83423  -0.82248  -0.80794  -0.80493  -0.78663
 Alpha  occ. eigenvalues --   -0.76621  -0.76560  -0.76079  -0.76069  -0.75740
 Alpha  occ. eigenvalues --   -0.75437  -0.74630  -0.74419  -0.72794  -0.71030
 Alpha  occ. eigenvalues --   -0.69542  -0.68839  -0.67107  -0.65518  -0.63912
 Alpha  occ. eigenvalues --   -0.63833  -0.63215  -0.62101  -0.60440  -0.59947
 Alpha  occ. eigenvalues --   -0.59674  -0.59466  -0.58456  -0.57513  -0.56137
 Alpha  occ. eigenvalues --   -0.55588  -0.55470  -0.55110  -0.54669  -0.54243
 Alpha  occ. eigenvalues --   -0.53712  -0.53094  -0.52657  -0.52407  -0.51478
 Alpha  occ. eigenvalues --   -0.50547  -0.50408  -0.49967  -0.49518  -0.49088
 Alpha  occ. eigenvalues --   -0.48833  -0.48684  -0.48446  -0.47913  -0.47762
 Alpha  occ. eigenvalues --   -0.47477  -0.47395  -0.46840  -0.46597  -0.46254
 Alpha  occ. eigenvalues --   -0.45943  -0.45771  -0.45120  -0.45042  -0.44829
 Alpha  occ. eigenvalues --   -0.44548  -0.43887  -0.43707  -0.43371  -0.43342
 Alpha  occ. eigenvalues --   -0.43129  -0.42647  -0.42156  -0.41895  -0.41740
 Alpha  occ. eigenvalues --   -0.41622  -0.41271  -0.40940  -0.40712  -0.40518
 Alpha  occ. eigenvalues --   -0.40275  -0.39507  -0.39350  -0.39273  -0.39060
 Alpha  occ. eigenvalues --   -0.39027  -0.38696  -0.38593  -0.38289  -0.38040
 Alpha  occ. eigenvalues --   -0.37725  -0.37335  -0.36986  -0.36642  -0.36342
 Alpha  occ. eigenvalues --   -0.35328  -0.34589  -0.33544  -0.32563  -0.32253
 Alpha  occ. eigenvalues --   -0.31379  -0.30640  -0.29421  -0.26931  -0.23743
 Alpha  occ. eigenvalues --   -0.18540
 Alpha virt. eigenvalues --   -0.07309  -0.01301   0.02642   0.05447   0.07264
 Alpha virt. eigenvalues --    0.09320   0.11712   0.11755   0.12192   0.12717
 Alpha virt. eigenvalues --    0.12881   0.13146   0.13333   0.13725   0.14262

 Mulliken charges:
               1
     1  O   -0.536994
     2  O   -0.576142
     3  C    0.029064
     4  C   -0.154621
     5  C   -0.172453
     6  C    0.091675
     7  C    0.154725
     8  C   -0.060265
     9  C   -0.321409
    10  C   -0.290090
    11  C   -0.172927
    12  C   -0.131099
    13  C    0.172978
    14  C    0.107078
    15  C   -0.091984
    16  C   -0.217816
    17  C    0.072512
    18  C   -0.281590
    19  C   -0.314680
    20  C   -0.355503
    21  C   -0.075226
    22  C   -0.121646
    23  C   -0.386169
    24  C    0.112574
    25  C   -0.114683
    26  C   -0.368699
    27  C    0.166057
    28  C   -0.148118
    29  C   -0.397311
    30  C   -0.128746
    31  C   -0.079682
    32  C   -0.097848
    33  C   -0.087530
    34  C    0.115758
    35  C   -0.069326
    36  C    0.100786
    37  C   -0.370085
    38  C   -0.125490
    39  C   -0.151521
    40  C   -0.367585
    41  C   -0.058071
    42  C   -0.064465
    43  H    0.105595
    44  H    0.103987
    45  H    0.098125
    46  H    0.090552
    47  H    0.097729
    48  H    0.091606
    49  H    0.102663
    50  H    0.112849
    51  H    0.105294
    52  H    0.074308
    53  H    0.088546
    54  H    0.086528
    55  H    0.074669
    56  H    0.095366
    57  H    0.084999
    58  H    0.055708
    59  H    0.134730
    60  H    0.102855
    61  H    0.093488
    62  H    0.104625
    63  H    0.118602
    64  H    0.120925
    65  H    0.061522
    66  H    0.109297
    67  H    0.123279
    68  H    0.112059
    69  H    0.280554
    70  H    0.094631
    71  H    0.081743
    72  H    0.113192
    73  H    0.123832
    74  H    0.085844
    75  H    0.306173
    76  H    0.088436
    77  H    0.115249
    78  H    0.120939
    79  H    0.102005
    80  H    0.066977
    81  H    0.117338
    82  H    0.101132
    83  H    0.098312
    84  H    0.084185
    85  H    0.077169
    86  H    0.074642
    87  H    0.066667
    88  H    0.069193
    89  H    0.126246
    90  H    0.109529
    91  H    0.102846
    92  H    0.058063
    93  H    0.073389
    94  H    0.115360
    95  H    0.098478
    96  H    0.129422
    97  H    0.066990
    98  H    0.068127
 Sum of Mulliken charges =  -0.00000

 Dipole moment (field-independent basis, Debye):
    X=              1.4488    Y=             -0.8703    Z=              0.0711  Tot=              1.6916
 Quadrupole moment (field-independent basis, Debye-Ang):
   XX=           -289.7722   YY=           -244.4264   ZZ=           -261.5810
   XY=              6.2705   XZ=             46.0710   YZ=              4.2846

 Normal termination of Gaussian 16 at Sun Jul 14 17:30:41 2019.
