 Gaussian 16, Revision A.03,
 Gaussian 16:  ES64L-G16RevA.03 25-Dec-2016

 -------------------------------------
 # td=(NStates=1) CAM-B3LYP/6-31G(d,p)
 -------------------------------------

 --
 TD
 --
 Symbolic Z-matrix:
 Charge =  0 Multiplicity = 1

                         Standard orientation:
 ---------------------------------------------------------------------
 Center     Atomic      Atomic             Coordinates (Angstroms)
 Number     Number       Type             X           Y           Z
 ---------------------------------------------------------------------
      1          8           0      -14.191850   -1.871840    0.447444
      2          8           0       14.673143    1.232259    0.184940
      3          6           0      -11.812645    0.095615    1.332231
      4          6           0      -10.935617    0.317172    0.177233
      5          6           0      -12.089275   -1.430579    1.467674
      6          6           0      -12.793562   -1.991225    0.119140
      7          6           0      -11.571470   -0.223342   -1.090022
      8          6           0       11.042804    1.068463    0.994242
      9          6           0      -10.999989    0.428605    2.547358
     10          6           0      -13.027494    0.913593    1.381545
     11          6           0       12.340888    1.721645    0.886880
     12          6           0      -12.333766   -1.244707   -1.121457
     13          6           0       13.438148    0.648272    0.533151
     14          6           0       10.616593   -0.003215    0.015364
     15          6           0       -9.492855   -0.200906   -0.018932
     16          6           0       12.954990   -0.066428   -0.829862
     17          6           0       11.562149   -0.491536   -0.835815
     18          6           0       10.078465    2.227272    0.960683
     19          6           0       10.948886    0.504575    2.441375
     20          6           0      -11.288846    0.549753   -2.439213
     21          6           0       -8.426236    0.669607   -0.070998
     22          6           0        9.256333   -0.492894    0.183230
     23          6           0       11.326133   -1.463900   -1.963600
     24          6           0       -7.026138    0.425106   -0.142362
     25          6           0        8.798362   -1.809764   -0.134393
     26          6           0       -6.674962   -0.924949    0.230798
     27          6           0        7.359357   -2.236975   -0.021610
     28          6           0       -6.107365    1.468552   -0.378821
     29          6           0        7.119375   -3.714254    0.267900
     30          6           0        6.374937   -1.359121   -0.196469
     31          6           0       -4.763688    1.382364   -0.464665
     32          6           0        5.064910   -1.801366   -0.174441
     33          6           0       -3.977905    2.456299   -0.755851
     34          6           0       -2.595724    2.496880   -0.827491
     35          6           0        4.080363   -0.828190   -0.377485
     36          6           0        2.619446   -0.986744   -0.364620
     37          6           0       -1.836836    3.780279   -1.088723
     38          6           0       -1.688123    1.361519   -0.576669
     39          6           0        1.800681    0.171359   -0.446199
     40          6           0        2.111241   -2.417698   -0.201142
     41          6           0       -0.262259    1.383289   -0.572360
     42          6           0        0.473705    0.213963   -0.403063
     43          1           0      -11.094020    1.512386    0.073332
     44          1           0      -12.739613   -1.723449    2.380569
     45          1           0      -11.013544   -1.870492    1.622617
     46          1           0      -12.639367   -2.953089   -0.102906
     47          1           0      -10.158000   -0.164240    2.573880
     48          1           0      -10.418539    1.455113    2.506643
     49          1           0      -11.428387    0.345733    3.584967
     50          1           0      -13.765352    0.554496    0.512393
     51          1           0      -13.611689    0.971482    2.340839
     52          1           0      -12.602190    2.007860    1.189118
     53          1           0       12.526232    2.573934    0.125253
     54          1           0       12.740668    2.368952    1.774943
     55          1           0      -12.806751   -1.869884   -1.950513
     56          1           0       13.756636   -0.016429    1.400479
     57          1           0       -9.394861   -1.312156   -0.008309
     58          1           0       13.768445   -0.827985   -1.148637
     59          1           0       13.006946    0.538974   -1.693336
     60          1           0        9.116487    2.005290    1.541706
     61          1           0        9.652785    2.396732   -0.065570
     62          1           0       10.338039    3.144742    1.636417
     63          1           0       11.828871   -0.198713    2.779881
     64          1           0        9.988566   -0.131730    2.771588
     65          1           0       11.049324    1.257870    3.264871
     66          1           0      -10.142727    0.328069   -2.783315
     67          1           0      -11.538141    1.750808   -2.167538
     68          1           0      -11.941495    0.161129   -3.311312
     69          1           0      -14.823130   -1.706924   -0.482180
     70          1           0        8.565228    0.229657    0.690961
     71          1           0       -8.775346    1.907297   -0.018835
     72          1           0       11.503538   -2.475993   -1.644142
     73          1           0       10.181759   -1.147407   -2.368369
     74          1           0       12.204505   -1.279072   -2.806833
     75          1           0       14.904116    1.723132    0.935255
     76          1           0        9.459985   -2.659040   -0.279820
     77          1           0       -5.598877   -1.242397    0.181349
     78          1           0       -6.952125   -1.138383    1.348057
     79          1           0       -7.194828   -1.741940   -0.304610
     80          1           0       -6.705556    2.485324   -0.596753
     81          1           0        6.508050   -3.705451    1.234010
     82          1           0        6.349850   -4.046409   -0.366946
     83          1           0        7.893244   -4.394637    0.106420
     84          1           0        6.690350   -0.362090   -0.479963
     85          1           0       -4.263064    0.293173   -0.309631
     86          1           0        4.717956   -2.745522    0.092823
     87          1           0       -4.588677    3.536730   -0.830636
     88          1           0        4.312471    0.052614   -0.514276
     89          1           0       -1.260879    3.846148   -1.999870
     90          1           0       -1.124793    4.323980   -0.211452
     91          1           0       -2.461891    4.693118   -1.208634
     92          1           0       -2.190734    0.309160   -0.448424
     93          1           0        2.458867    1.066539   -0.679425
     94          1           0        2.181959   -2.740985    0.820607
     95          1           0        1.036387   -2.392525   -0.396788
     96          1           0        2.488471   -3.110696   -0.869090
     97          1           0        0.317576    2.283328   -0.630702
     98          1           0       -0.141140   -0.627826   -0.124483
 ---------------------------------------------------------------------

 SCF Done:  E(RCAM-B3LYP) =  -1706.91473015     A.U. after   15 cycles

 Excitation energies and oscillator strengths:

 Excited State   1:      Singlet-A      1.8470 eV  671.29 nm  f=3.0955  <S**2>=0.000
     155 ->158        -0.13447
     156 ->157         0.69994
     156 <-157        -0.11488
 This state for optimization and/or second-order correction.
 Total Energy, E(TD-HF/TD-DFT) =  -1706.84685563
 Copying the excited state density for this state as the 1-particle RhoCI density.

 The electronic state is 1-A.
 Alpha  occ. eigenvalues --  -19.21525 -19.20484 -10.31243 -10.29094 -10.28223
 Alpha  occ. eigenvalues --  -10.28213 -10.28189 -10.28078 -10.27890 -10.27753
 Alpha  occ. eigenvalues --  -10.27613 -10.27576 -10.27489 -10.27388 -10.27320
 Alpha  occ. eigenvalues --  -10.27235 -10.27227 -10.27177 -10.26963 -10.26949
 Alpha  occ. eigenvalues --  -10.26841 -10.26604 -10.26552 -10.26529 -10.26519
 Alpha  occ. eigenvalues --  -10.26329 -10.26230 -10.26170 -10.26149 -10.26137
 Alpha  occ. eigenvalues --  -10.26108 -10.25896 -10.25857 -10.25794 -10.25611
 Alpha  occ. eigenvalues --  -10.25414 -10.25010 -10.24969 -10.24799 -10.24679
 Alpha  occ. eigenvalues --  -10.24496 -10.23278  -1.10677  -1.05741  -0.94489
 Alpha  occ. eigenvalues --   -0.94353  -0.92509  -0.91982  -0.91116  -0.89584
 Alpha  occ. eigenvalues --   -0.88117  -0.87411  -0.87020  -0.85189  -0.84289
 Alpha  occ. eigenvalues --   -0.82574  -0.81793  -0.79314  -0.78984  -0.78572
 Alpha  occ. eigenvalues --   -0.77222  -0.76133  -0.76006  -0.75066  -0.75061
 Alpha  occ. eigenvalues --   -0.74773  -0.74621  -0.73092  -0.72730  -0.70716
 Alpha  occ. eigenvalues --   -0.69219  -0.67838  -0.67073  -0.65678  -0.64147
 Alpha  occ. eigenvalues --   -0.63843  -0.62909  -0.61903  -0.61516  -0.59532
 Alpha  occ. eigenvalues --   -0.58497  -0.57952  -0.57486  -0.56407  -0.56212
 Alpha  occ. eigenvalues --   -0.55869  -0.54988  -0.53959  -0.53761  -0.53470
 Alpha  occ. eigenvalues --   -0.53102  -0.52746  -0.52176  -0.51296  -0.50781
 Alpha  occ. eigenvalues --   -0.50555  -0.50385  -0.49993  -0.49940  -0.49757
 Alpha  occ. eigenvalues --   -0.49056  -0.48309  -0.47962  -0.47669  -0.47506
 Alpha  occ. eigenvalues --   -0.47429  -0.46816  -0.46732  -0.46405  -0.45978
 Alpha  occ. eigenvalues --   -0.45912  -0.45840  -0.45026  -0.44909  -0.44823
 Alpha  occ. eigenvalues --   -0.44053  -0.43683  -0.43649  -0.43202  -0.42751
 Alpha  occ. eigenvalues --   -0.42402  -0.42237  -0.42097  -0.41697  -0.41669
 Alpha  occ. eigenvalues --   -0.41441  -0.41265  -0.40713  -0.40520  -0.40260
 Alpha  occ. eigenvalues --   -0.40153  -0.40008  -0.39801  -0.39417  -0.39372
 Alpha  occ. eigenvalues --   -0.38846  -0.38797  -0.38562  -0.38276  -0.38153
 Alpha  occ. eigenvalues --   -0.37925  -0.37333  -0.37270  -0.35529  -0.35049
 Alpha  occ. eigenvalues --   -0.34700  -0.34134  -0.33338  -0.32016  -0.31515
 Alpha  occ. eigenvalues --   -0.31389  -0.30269  -0.29221  -0.26595  -0.23394
 Alpha  occ. eigenvalues --   -0.18645
 Alpha virt. eigenvalues --   -0.07067  -0.01463   0.01979   0.05586   0.07085
 Alpha virt. eigenvalues --    0.09089   0.10264   0.10553   0.11213   0.11766
 Alpha virt. eigenvalues --    0.12016   0.13091   0.13282   0.13517   0.13737

 Mulliken charges:
               1
     1  O   -0.558968
     2  O   -0.547698
     3  C    0.028231
     4  C   -0.108914
     5  C   -0.174979
     6  C    0.168615
     7  C    0.088835
     8  C    0.010336
     9  C   -0.295129
    10  C   -0.266429
    11  C   -0.204963
    12  C   -0.143397
    13  C    0.151242
    14  C    0.106979
    15  C   -0.102271
    16  C   -0.236691
    17  C    0.044062
    18  C   -0.318624
    19  C   -0.303041
    20  C   -0.322545
    21  C   -0.093260
    22  C   -0.122438
    23  C   -0.350230
    24  C    0.129429
    25  C   -0.128425
    26  C   -0.389398
    27  C    0.068675
    28  C   -0.108881
    29  C   -0.379631
    30  C   -0.086833
    31  C   -0.054925
    32  C   -0.086850
    33  C   -0.123944
    34  C    0.096092
    35  C   -0.072428
    36  C    0.076259
    37  C   -0.381484
    38  C   -0.130296
    39  C   -0.126291
    40  C   -0.383561
    41  C   -0.069653
    42  C   -0.065930
    43  H    0.075449
    44  H    0.104311
    45  H    0.067905
    46  H    0.084030
    47  H    0.106369
    48  H    0.071408
    49  H    0.092637
    50  H    0.093131
    51  H    0.108642
    52  H    0.065430
    53  H    0.105218
    54  H    0.075814
    55  H    0.075641
    56  H    0.081800
    57  H    0.103808
    58  H    0.108134
    59  H    0.139830
    60  H    0.087086
    61  H    0.109720
    62  H    0.098057
    63  H    0.083886
    64  H    0.096160
    65  H    0.094649
    66  H    0.106873
    67  H    0.087190
    68  H    0.104842
    69  H    0.289521
    70  H    0.095752
    71  H    0.062221
    72  H    0.132193
    73  H    0.108012
    74  H    0.078962
    75  H    0.293844
    76  H    0.089277
    77  H    0.099692
    78  H    0.116221
    79  H    0.118767
    80  H    0.078530
    81  H    0.123914
    82  H    0.128891
    83  H    0.115733
    84  H    0.093409
    85  H    0.086102
    86  H    0.087705
    87  H    0.081954
    88  H    0.036331
    89  H    0.131061
    90  H    0.088031
    91  H    0.101992
    92  H    0.071272
    93  H    0.084154
    94  H    0.129591
    95  H    0.105406
    96  H    0.130219
    97  H    0.092936
    98  H    0.089639
 Sum of Mulliken charges =  -0.00000

 Dipole moment (field-independent basis, Debye):
    X=              2.9966    Y=             -0.9228    Z=             -0.0493  Tot=              3.1359
 Quadrupole moment (field-independent basis, Debye-Ang):
   XX=           -286.8733   YY=           -244.7897   ZZ=           -263.8364
   XY=              0.7295   XZ=             36.0773   YZ=              4.6447

 Normal termination of Gaussian 16 at Fri Jul 12 16:00:53 2019.
