 Gaussian 16, Revision A.03,
 Gaussian 16:  ES64L-G16RevA.03 25-Dec-2016

 -------------------------------------
 # td=(NStates=1) CAM-B3LYP/6-31G(d,p)
 -------------------------------------

 --
 TD
 --
 Symbolic Z-matrix:
 Charge =  0 Multiplicity = 1

                         Standard orientation:
 ---------------------------------------------------------------------
 Center     Atomic      Atomic             Coordinates (Angstroms)
 Number     Number       Type             X           Y           Z
 ---------------------------------------------------------------------
      1          8           0      -14.151521   -1.954128    0.440031
      2          8           0       14.817193    0.911254   -0.085692
      3          6           0      -11.788415    0.096238    1.278852
      4          6           0      -10.986027    0.221086   -0.033320
      5          6           0      -11.964648   -1.451044    1.402833
      6          6           0      -12.804286   -2.099393    0.291953
      7          6           0      -11.591062   -0.496008   -1.228228
      8          6           0       11.147169    1.136678    0.891851
      9          6           0      -11.070073    0.517736    2.474987
     10          6           0      -13.123704    0.792970    1.074216
     11          6           0       12.566358    1.683383    0.463219
     12          6           0      -12.342499   -1.604355   -1.078944
     13          6           0       13.444818    0.468939    0.283257
     14          6           0       10.724644   -0.147333   -0.089115
     15          6           0       -9.482175   -0.039292    0.011096
     16          6           0       13.086708   -0.463915   -0.847876
     17          6           0       11.641741   -0.762685   -0.798054
     18          6           0       10.279292    2.329992    0.627198
     19          6           0       11.140693    0.798070    2.419489
     20          6           0      -11.379376    0.064051   -2.661527
     21          6           0       -8.483733    0.853178   -0.160706
     22          6           0        9.297905   -0.551685    0.111786
     23          6           0       11.202074   -1.821606   -1.750631
     24          6           0       -7.140596    0.509225   -0.265539
     25          6           0        8.855861   -1.817947    0.116848
     26          6           0       -6.720601   -0.890340    0.169399
     27          6           0        7.382762   -2.170551    0.084454
     28          6           0       -6.252990    1.566031   -0.290424
     29          6           0        7.061243   -3.755180    0.254297
     30          6           0        6.413815   -1.318268   -0.018839
     31          6           0       -4.820748    1.426445   -0.311370
     32          6           0        4.959457   -1.582059    0.137844
     33          6           0       -3.994587    2.587945   -0.675294
     34          6           0       -2.592825    2.665551   -0.673000
     35          6           0        4.081468   -0.591290   -0.072532
     36          6           0        2.621740   -0.678381   -0.134832
     37          6           0       -2.031454    4.038994   -0.952766
     38          6           0       -1.790863    1.494111   -0.452012
     39          6           0        1.827930    0.456491   -0.145618
     40          6           0        2.082348   -2.120768    0.017600
     41          6           0       -0.434697    1.624683   -0.365594
     42          6           0        0.474753    0.473399   -0.243292
     43          1           0      -11.106754    1.255939   -0.307514
     44          1           0      -12.365883   -1.787231    2.291048
     45          1           0      -11.049191   -2.100306    1.327113
     46          1           0      -12.513963   -3.241584    0.429135
     47          1           0      -10.229114   -0.253899    2.947101
     48          1           0      -10.518215    1.594371    2.484009
     49          1           0      -11.754380    0.695210    3.387741
     50          1           0      -13.853765    0.593326    0.216003
     51          1           0      -13.925125    0.605813    1.835224
     52          1           0      -12.913277    1.948402    0.895132
     53          1           0       12.395431    2.049113   -0.658016
     54          1           0       12.999409    2.380195    1.222157
     55          1           0      -12.757728   -2.188425   -1.985728
     56          1           0       13.694065    0.018727    1.225349
     57          1           0       -9.129627   -1.273382    0.022711
     58          1           0       13.609326   -1.298609   -0.968588
     59          1           0       13.328054    0.082714   -1.701848
     60          1           0        9.264637    2.246441    0.968775
     61          1           0       10.378220    2.621319   -0.391176
     62          1           0       10.928869    3.100496    1.169813
     63          1           0       11.796583   -0.112203    2.454389
     64          1           0       10.152717    0.624888    2.620868
     65          1           0       11.586927    1.541241    3.063137
     66          1           0      -10.270133    0.381327   -2.765851
     67          1           0      -12.017167    1.061097   -2.800054
     68          1           0      -11.691412   -0.786903   -3.419857
     69          1           0      -14.792685   -2.514874   -0.223601
     70          1           0        8.671861    0.308957    0.497603
     71          1           0       -8.909826    1.818875   -0.335952
     72          1           0       11.500523   -2.886230   -1.652481
     73          1           0       10.066932   -1.884041   -1.981146
     74          1           0       11.543055   -1.574098   -2.933021
     75          1           0       15.146081    1.469733    0.842306
     76          1           0        9.655679   -2.659865   -0.045936
     77          1           0       -5.688386   -1.017579    0.530897
     78          1           0       -6.967136   -0.993524    1.219186
     79          1           0       -7.153797   -1.673372   -0.384800
     80          1           0       -6.661373    2.610157   -0.436937
     81          1           0        6.366156   -4.016014    1.142811
     82          1           0        6.406703   -3.860263   -0.661405
     83          1           0        7.975470   -4.477092    0.149911
     84          1           0        6.476988   -0.279194   -0.296184
     85          1           0       -4.471991    0.439215   -0.352814
     86          1           0        4.718779   -2.672481    0.058263
     87          1           0       -4.605282    3.493367   -0.528356
     88          1           0        4.603852    0.396759   -0.183109
     89          1           0       -1.319245    4.016864   -1.617644
     90          1           0       -1.690996    4.661105    0.109115
     91          1           0       -3.231100    4.575921   -1.212022
     92          1           0       -2.288297    0.498660   -0.525385
     93          1           0        2.321919    1.462009   -0.316578
     94          1           0        2.507849   -2.609466    0.937138
     95          1           0        0.988258   -2.248157    0.039000
     96          1           0        2.459270   -2.850933   -0.576824
     97          1           0        0.159431    2.772501   -0.414514
     98          1           0       -0.137084   -0.380575   -0.413306
 ---------------------------------------------------------------------

 SCF Done:  E(RCAM-B3LYP) =  -1706.90193563     A.U. after   15 cycles

 Excitation energies and oscillator strengths:

 Excited State   1:      Singlet-A      1.9562 eV  633.80 nm  f=2.6613  <S**2>=0.000
     155 ->158        -0.10979
     156 ->157         0.70696
     156 <-157        -0.13101
 This state for optimization and/or second-order correction.
 Total Energy, E(TD-HF/TD-DFT) =  -1706.83004639
 Copying the excited state density for this state as the 1-particle RhoCI density.

 The electronic state is 1-A.
 Alpha  occ. eigenvalues --  -19.21832 -19.20840 -10.30864 -10.29588 -10.28727
 Alpha  occ. eigenvalues --  -10.28354 -10.28235 -10.27991 -10.27622 -10.27513
 Alpha  occ. eigenvalues --  -10.27487 -10.27432 -10.27421 -10.27391 -10.27319
 Alpha  occ. eigenvalues --  -10.27135 -10.27066 -10.27040 -10.26889 -10.26784
 Alpha  occ. eigenvalues --  -10.26710 -10.26699 -10.26662 -10.26561 -10.26503
 Alpha  occ. eigenvalues --  -10.26436 -10.26385 -10.26314 -10.26297 -10.26281
 Alpha  occ. eigenvalues --  -10.26192 -10.26186 -10.25541 -10.25353 -10.25227
 Alpha  occ. eigenvalues --  -10.25163 -10.25027 -10.24980 -10.24292 -10.24185
 Alpha  occ. eigenvalues --  -10.24024 -10.23896  -1.09241  -1.04836  -0.93591
 Alpha  occ. eigenvalues --   -0.93149  -0.91958  -0.91473  -0.90747  -0.89474
 Alpha  occ. eigenvalues --   -0.87967  -0.86622  -0.86086  -0.85114  -0.84117
 Alpha  occ. eigenvalues --   -0.82525  -0.81535  -0.80070  -0.79589  -0.78855
 Alpha  occ. eigenvalues --   -0.77101  -0.76848  -0.76194  -0.75348  -0.75201
 Alpha  occ. eigenvalues --   -0.74823  -0.74764  -0.73612  -0.72905  -0.70346
 Alpha  occ. eigenvalues --   -0.67871  -0.66467  -0.65859  -0.64840  -0.62996
 Alpha  occ. eigenvalues --   -0.62401  -0.61825  -0.61430  -0.60674  -0.59976
 Alpha  occ. eigenvalues --   -0.59560  -0.58910  -0.58128  -0.57897  -0.55912
 Alpha  occ. eigenvalues --   -0.55695  -0.54820  -0.54457  -0.53910  -0.53200
 Alpha  occ. eigenvalues --   -0.52639  -0.52292  -0.52239  -0.52034  -0.51530
 Alpha  occ. eigenvalues --   -0.50649  -0.50389  -0.49757  -0.49646  -0.49103
 Alpha  occ. eigenvalues --   -0.48628  -0.48411  -0.48153  -0.47584  -0.46812
 Alpha  occ. eigenvalues --   -0.46691  -0.46477  -0.46238  -0.45865  -0.45823
 Alpha  occ. eigenvalues --   -0.45524  -0.45422  -0.45071  -0.44457  -0.44211
 Alpha  occ. eigenvalues --   -0.44146  -0.44056  -0.43812  -0.43568  -0.43284
 Alpha  occ. eigenvalues --   -0.42625  -0.42546  -0.42349  -0.41782  -0.41761
 Alpha  occ. eigenvalues --   -0.41593  -0.41442  -0.41039  -0.40950  -0.40791
 Alpha  occ. eigenvalues --   -0.40438  -0.39651  -0.39400  -0.39003  -0.38737
 Alpha  occ. eigenvalues --   -0.38729  -0.38263  -0.38084  -0.37781  -0.37409
 Alpha  occ. eigenvalues --   -0.37060  -0.37013  -0.36467  -0.36117  -0.35682
 Alpha  occ. eigenvalues --   -0.34848  -0.34200  -0.33454  -0.32172  -0.31152
 Alpha  occ. eigenvalues --   -0.31006  -0.29904  -0.28929  -0.26772  -0.24539
 Alpha  occ. eigenvalues --   -0.18880
 Alpha virt. eigenvalues --   -0.06800  -0.00522   0.02333   0.05731   0.07314
 Alpha virt. eigenvalues --    0.08904   0.09236   0.10262   0.10519   0.11343
 Alpha virt. eigenvalues --    0.12149   0.12467   0.12680   0.12938   0.13524

 Mulliken charges:
               1
     1  O   -0.548244
     2  O   -0.583449
     3  C    0.077386
     4  C   -0.148291
     5  C   -0.186182
     6  C    0.158466
     7  C    0.116576
     8  C   -0.048733
     9  C   -0.306328
    10  C   -0.310202
    11  C   -0.179095
    12  C   -0.124462
    13  C    0.147331
    14  C    0.045851
    15  C   -0.070299
    16  C   -0.194306
    17  C    0.068694
    18  C   -0.281914
    19  C   -0.289219
    20  C   -0.343135
    21  C   -0.073811
    22  C   -0.093040
    23  C   -0.393290
    24  C    0.096935
    25  C   -0.116352
    26  C   -0.385119
    27  C    0.064146
    28  C   -0.122459
    29  C   -0.369425
    30  C   -0.113771
    31  C   -0.076396
    32  C   -0.073512
    33  C   -0.155217
    34  C    0.099510
    35  C   -0.122996
    36  C    0.107220
    37  C   -0.326091
    38  C   -0.098117
    39  C   -0.117600
    40  C   -0.383935
    41  C   -0.088359
    42  C   -0.093432
    43  H    0.084248
    44  H    0.103812
    45  H    0.099820
    46  H    0.038296
    47  H    0.088074
    48  H    0.078375
    49  H    0.101062
    50  H    0.123660
    51  H    0.108004
    52  H    0.071977
    53  H    0.095007
    54  H    0.087159
    55  H    0.060144
    56  H    0.087589
    57  H    0.052140
    58  H    0.122410
    59  H    0.136196
    60  H    0.093865
    61  H    0.109507
    62  H    0.087067
    63  H    0.100959
    64  H    0.114791
    65  H    0.100217
    66  H    0.108986
    67  H    0.103262
    68  H    0.103565
    69  H    0.316841
    70  H    0.084690
    71  H    0.083075
    72  H    0.113486
    73  H    0.124964
    74  H    0.065997
    75  H    0.281075
    76  H    0.095342
    77  H    0.108496
    78  H    0.135647
    79  H    0.130645
    80  H    0.082485
    81  H    0.118644
    82  H    0.120184
    83  H    0.104996
    84  H    0.080866
    85  H    0.089372
    86  H    0.075180
    87  H    0.089491
    88  H    0.079243
    89  H    0.139403
    90  H    0.095471
    91  H    0.073523
    92  H    0.095979
    93  H    0.087185
    94  H    0.115483
    95  H    0.109928
    96  H    0.131242
    97  H    0.065503
    98  H    0.080039
 Sum of Mulliken charges =  -0.00000

 Dipole moment (field-independent basis, Debye):
    X=             -2.1124    Y=             -1.2151    Z=              0.3313  Tot=              2.4594
 Quadrupole moment (field-independent basis, Debye-Ang):
   XX=           -265.9577   YY=           -242.9970   ZZ=           -265.4541
   XY=             12.3418   XZ=             31.8230   YZ=              4.5964

 Normal termination of Gaussian 16 at Sun Jul 14 06:44:47 2019.
