 Gaussian 16, Revision A.03,
 Gaussian 16:  ES64L-G16RevA.03 25-Dec-2016

 -------------------------------------
 # td=(NStates=1) CAM-B3LYP/6-31G(d,p)
 -------------------------------------

 --
 TD
 --
 Symbolic Z-matrix:
 Charge =  0 Multiplicity = 1

                         Standard orientation:
 ---------------------------------------------------------------------
 Center     Atomic      Atomic             Coordinates (Angstroms)
 Number     Number       Type             X           Y           Z
 ---------------------------------------------------------------------
      1          8           0      -14.179157   -1.886286    0.628560
      2          8           0       14.825996    0.895983    0.202680
      3          6           0      -11.695470    0.081400    1.305875
      4          6           0      -11.010216    0.403056    0.125389
      5          6           0      -11.879313   -1.425318    1.411105
      6          6           0      -12.772925   -2.029768    0.395420
      7          6           0      -11.750209   -0.368263   -1.198895
      8          6           0       11.148534    0.944906    1.193063
      9          6           0      -10.944163    0.635558    2.589009
     10          6           0      -13.112621    0.820901    1.390647
     11          6           0       12.558431    1.529774    0.834621
     12          6           0      -12.414822   -1.513381   -0.975952
     13          6           0       13.491690    0.428598    0.422097
     14          6           0       10.742525   -0.085642    0.063297
     15          6           0       -9.606492    0.010314    0.028418
     16          6           0       13.072557   -0.164872   -0.908496
     17          6           0       11.644844   -0.374578   -1.000607
     18          6           0       10.056835    2.199573    1.222026
     19          6           0       11.056867    0.308057    2.568141
     20          6           0      -11.597940    0.357365   -2.533489
     21          6           0       -8.538348    0.731790   -0.267018
     22          6           0        9.372636   -0.443090    0.060740
     23          6           0       11.192222   -1.336809   -2.165808
     24          6           0       -7.158320    0.375284   -0.266577
     25          6           0        8.802483   -1.734248   -0.186232
     26          6           0       -6.704820   -1.094691   -0.104129
     27          6           0        7.424411   -2.039131   -0.192977
     28          6           0       -6.206650    1.363979   -0.517684
     29          6           0        7.190458   -3.558153    0.087569
     30          6           0        6.409236   -1.122765   -0.281689
     31          6           0       -4.822020    1.364709   -0.462174
     32          6           0        5.025110   -1.414575   -0.143394
     33          6           0       -4.042523    2.420642   -0.710396
     34          6           0       -2.623137    2.453990   -0.719925
     35          6           0        4.069243   -0.602098   -0.429605
     36          6           0        2.655201   -0.832183   -0.176884
     37          6           0       -2.006182    3.799798   -1.076626
     38          6           0       -1.767960    1.357659   -0.445651
     39          6           0        1.896977    0.275976   -0.364404
     40          6           0        2.116020   -2.155719    0.282755
     41          6           0       -0.428810    1.415826   -0.640725
     42          6           0        0.433588    0.270916   -0.376674
     43          1           0      -10.972713    1.426189   -0.154527
     44          1           0      -12.337751   -1.556227    2.688482
     45          1           0      -10.803925   -1.877918    1.435222
     46          1           0      -12.600747   -3.054698    0.516967
     47          1           0       -9.925252    0.037942    2.380402
     48          1           0      -10.626906    1.716074    2.358473
     49          1           0      -11.511671    0.439367    3.468144
     50          1           0      -13.668357    0.362156    0.667543
     51          1           0      -13.455804    0.670015    2.341240
     52          1           0      -13.011040    1.982348    1.153540
     53          1           0       12.761408    2.214978    0.069606
     54          1           0       13.041619    2.175898    1.572493
     55          1           0      -12.828482   -2.165390   -1.985914
     56          1           0       13.564489   -0.186264    1.392771
     57          1           0       -9.437619   -1.087293    0.329518
     58          1           0       13.632493   -1.041883   -1.069847
     59          1           0       13.598457    0.579517   -1.637021
     60          1           0        9.121090    1.846508    1.519104
     61          1           0       10.134234    2.834007    0.306261
     62          1           0       10.733001    2.707964    2.068019
     63          1           0       11.709695   -0.394374    2.586529
     64          1           0       10.008551    0.023149    2.860621
     65          1           0       11.244001    1.036809    3.255282
     66          1           0      -10.572171    0.531071   -2.612187
     67          1           0      -12.266226    1.387415   -2.512551
     68          1           0      -11.834801   -0.245260   -3.343342
     69          1           0      -14.579988   -2.427337   -0.231366
     70          1           0        8.860996    0.243847    0.445274
     71          1           0       -8.846205    1.889371   -0.518387
     72          1           0       11.430198   -2.213270   -1.803473
     73          1           0       10.150167   -1.335658   -2.579850
     74          1           0       11.891493   -1.191655   -3.091088
     75          1           0       15.167685    1.230602    1.090775
     76          1           0        9.600164   -2.509720   -0.112460
     77          1           0       -5.661927   -1.166695   -0.018615
     78          1           0       -7.203444   -1.420186    0.776240
     79          1           0       -7.014480   -1.760857   -0.814801
     80          1           0       -6.773302    2.389695   -0.799024
     81          1           0        6.886655   -3.714009    1.152633
     82          1           0        6.574561   -4.133426   -0.550022
     83          1           0        8.027012   -4.118315   -0.105946
     84          1           0        6.581196   -0.132832   -0.522554
     85          1           0       -4.514205    0.233316   -0.219803
     86          1           0        4.607433   -2.187704   -0.112087
     87          1           0       -4.437873    3.398839   -0.649993
     88          1           0        4.281254    0.445350   -0.430346
     89          1           0       -1.453220    4.034097   -2.010774
     90          1           0       -1.470629    4.126244   -0.111219
     91          1           0       -2.702935    4.386762   -1.173773
     92          1           0       -2.283512    0.479402   -0.052899
     93          1           0        2.360856    1.273765   -0.722365
     94          1           0        2.476023   -2.366635    1.200342
     95          1           0        1.016386   -2.183515    0.230321
     96          1           0        2.292803   -2.821835   -0.417464
     97          1           0        0.169807    2.296053   -0.767316
     98          1           0        0.035196   -0.712076   -0.389677
 ---------------------------------------------------------------------

 SCF Done:  E(RCAM-B3LYP) =  -1706.82780606     A.U. after   15 cycles

 Excitation energies and oscillator strengths:

 Excited State   1:      Singlet-A      2.1408 eV  579.14 nm  f=3.1654  <S**2>=0.000
     155 ->158        -0.16624
     156 ->157         0.68683
 This state for optimization and/or second-order correction.
 Total Energy, E(TD-HF/TD-DFT) =  -1706.74913175
 Copying the excited state density for this state as the 1-particle RhoCI density.

 The electronic state is 1-A.
 Alpha  occ. eigenvalues --  -19.22263 -19.21450 -10.30478 -10.30451 -10.28561
 Alpha  occ. eigenvalues --  -10.28026 -10.27885 -10.27829 -10.27530 -10.27200
 Alpha  occ. eigenvalues --  -10.27037 -10.26992 -10.26956 -10.26916 -10.26868
 Alpha  occ. eigenvalues --  -10.26731 -10.26406 -10.26353 -10.26300 -10.26193
 Alpha  occ. eigenvalues --  -10.26130 -10.26089 -10.25995 -10.25995 -10.25991
 Alpha  occ. eigenvalues --  -10.25791 -10.25627 -10.25522 -10.25466 -10.25177
 Alpha  occ. eigenvalues --  -10.25153 -10.24682 -10.24588 -10.24546 -10.24459
 Alpha  occ. eigenvalues --  -10.24325 -10.24220 -10.24111 -10.23919 -10.23030
 Alpha  occ. eigenvalues --  -10.22448 -10.22390  -1.08831  -1.07993  -0.94471
 Alpha  occ. eigenvalues --   -0.93121  -0.92788  -0.91938  -0.90313  -0.89783
 Alpha  occ. eigenvalues --   -0.87330  -0.86982  -0.86205  -0.85976  -0.84797
 Alpha  occ. eigenvalues --   -0.83964  -0.82767  -0.81030  -0.80365  -0.79631
 Alpha  occ. eigenvalues --   -0.77618  -0.77445  -0.76982  -0.76388  -0.76183
 Alpha  occ. eigenvalues --   -0.75363  -0.75175  -0.74068  -0.73673  -0.70883
 Alpha  occ. eigenvalues --   -0.69615  -0.67913  -0.66696  -0.65167  -0.63921
 Alpha  occ. eigenvalues --   -0.63300  -0.62772  -0.61720  -0.61470  -0.60267
 Alpha  occ. eigenvalues --   -0.59359  -0.58943  -0.58016  -0.57222  -0.56312
 Alpha  occ. eigenvalues --   -0.55548  -0.55297  -0.54679  -0.54228  -0.53860
 Alpha  occ. eigenvalues --   -0.53393  -0.52926  -0.52746  -0.52589  -0.52224
 Alpha  occ. eigenvalues --   -0.51543  -0.50958  -0.50427  -0.49583  -0.49419
 Alpha  occ. eigenvalues --   -0.49271  -0.49189  -0.48541  -0.48355  -0.48296
 Alpha  occ. eigenvalues --   -0.48135  -0.47942  -0.47317  -0.47036  -0.46802
 Alpha  occ. eigenvalues --   -0.46480  -0.45469  -0.45170  -0.45068  -0.44590
 Alpha  occ. eigenvalues --   -0.44571  -0.44246  -0.44127  -0.43555  -0.43537
 Alpha  occ. eigenvalues --   -0.43146  -0.42810  -0.42481  -0.42450  -0.42323
 Alpha  occ. eigenvalues --   -0.42211  -0.41700  -0.41302  -0.41248  -0.41183
 Alpha  occ. eigenvalues --   -0.40585  -0.40359  -0.40227  -0.39956  -0.39822
 Alpha  occ. eigenvalues --   -0.39393  -0.39367  -0.38612  -0.38369  -0.38102
 Alpha  occ. eigenvalues --   -0.37597  -0.37401  -0.37211  -0.36335  -0.35881
 Alpha  occ. eigenvalues --   -0.34789  -0.34069  -0.32526  -0.32149  -0.31645
 Alpha  occ. eigenvalues --   -0.31222  -0.30169  -0.28760  -0.26368  -0.22804
 Alpha  occ. eigenvalues --   -0.19168
 Alpha virt. eigenvalues --   -0.05605  -0.01744   0.02450   0.05906   0.07112
 Alpha virt. eigenvalues --    0.08920   0.09968   0.11161   0.11263   0.11400
 Alpha virt. eigenvalues --    0.12072   0.13037   0.13228   0.13530   0.14195

 Mulliken charges:
               1
     1  O   -0.543278
     2  O   -0.571502
     3  C   -0.017315
     4  C   -0.090717
     5  C   -0.170626
     6  C    0.170098
     7  C    0.082284
     8  C   -0.062198
     9  C   -0.279405
    10  C   -0.274745
    11  C   -0.189337
    12  C   -0.147570
    13  C    0.147310
    14  C    0.047580
    15  C   -0.083931
    16  C   -0.222931
    17  C    0.046895
    18  C   -0.300650
    19  C   -0.274907
    20  C   -0.343857
    21  C   -0.092689
    22  C   -0.065683
    23  C   -0.360335
    24  C    0.089618
    25  C   -0.133665
    26  C   -0.363600
    27  C    0.094323
    28  C   -0.118820
    29  C   -0.374445
    30  C   -0.129376
    31  C   -0.051218
    32  C    0.014441
    33  C   -0.126405
    34  C    0.050463
    35  C   -0.128194
    36  C    0.079283
    37  C   -0.352133
    38  C   -0.087432
    39  C   -0.129318
    40  C   -0.362490
    41  C   -0.089838
    42  C   -0.108913
    43  H    0.083156
    44  H    0.048350
    45  H    0.097038
    46  H    0.093665
    47  H    0.075593
    48  H    0.095324
    49  H    0.108840
    50  H    0.131195
    51  H    0.100787
    52  H    0.063952
    53  H    0.108822
    54  H    0.068583
    55  H    0.051692
    56  H    0.063970
    57  H    0.068654
    58  H    0.127558
    59  H    0.121953
    60  H    0.117608
    61  H    0.114270
    62  H    0.084530
    63  H    0.110860
    64  H    0.103574
    65  H    0.104415
    66  H    0.129885
    67  H    0.105142
    68  H    0.118199
    69  H    0.307411
    70  H    0.052503
    71  H    0.064400
    72  H    0.137322
    73  H    0.123962
    74  H    0.083137
    75  H    0.304320
    76  H    0.091331
    77  H    0.108746
    78  H    0.120324
    79  H    0.134743
    80  H    0.060328
    81  H    0.119906
    82  H    0.115782
    83  H    0.114099
    84  H    0.079934
    85  H    0.074953
    86  H    0.023587
    87  H    0.093470
    88  H    0.068594
    89  H    0.116355
    90  H    0.111640
    91  H    0.106138
    92  H    0.083163
    93  H    0.080094
    94  H    0.138582
    95  H    0.105095
    96  H    0.137620
    97  H    0.093418
    98  H    0.076660
 Sum of Mulliken charges =  -0.00000

 Dipole moment (field-independent basis, Debye):
    X=              1.1209    Y=             -1.4443    Z=              0.0815  Tot=              1.8301
 Quadrupole moment (field-independent basis, Debye-Ang):
   XX=           -276.2079   YY=           -240.6043   ZZ=           -260.8753
   XY=              8.8106   XZ=             43.4375   YZ=              2.5141

 Normal termination of Gaussian 16 at Sun Jul 14 22:13:42 2019.
