 Gaussian 16, Revision A.03,
 Gaussian 16:  ES64L-G16RevA.03 25-Dec-2016

 -------------------------------------
 # td=(NStates=1) CAM-B3LYP/6-31G(d,p)
 -------------------------------------

 --
 TD
 --
 Symbolic Z-matrix:
 Charge =  0 Multiplicity = 1

                         Standard orientation:
 ---------------------------------------------------------------------
 Center     Atomic      Atomic             Coordinates (Angstroms)
 Number     Number       Type             X           Y           Z
 ---------------------------------------------------------------------
      1          8           0      -14.049614   -1.980837    0.823974
      2          8           0       14.743247    0.885479    0.740441
      3          6           0      -11.708628    0.020910    1.476694
      4          6           0      -10.998625    0.250689    0.216893
      5          6           0      -11.893365   -1.463054    1.586247
      6          6           0      -12.682729   -2.112774    0.497061
      7          6           0      -11.621212   -0.460125   -1.038022
      8          6           0       11.008298    0.795530    1.456835
      9          6           0      -10.900563    0.466771    2.693939
     10          6           0      -13.141813    0.690007    1.506620
     11          6           0       12.423262    1.299283    1.358369
     12          6           0      -12.397553   -1.547760   -0.828236
     13          6           0       13.500546    0.389489    0.798587
     14          6           0       10.662570   -0.045994    0.160420
     15          6           0       -9.487946   -0.107085    0.226247
     16          6           0       13.078209   -0.015025   -0.611268
     17          6           0       11.544448   -0.356804   -0.791637
     18          6           0       10.078966    2.049658    1.505115
     19          6           0       10.815740   -0.120605    2.734044
     20          6           0      -11.220839    0.133678   -2.355764
     21          6           0       -8.531875    0.843458    0.013020
     22          6           0        9.274000   -0.473951    0.007526
     23          6           0       11.342279   -1.005885   -2.100820
     24          6           0       -7.078426    0.472025   -0.195106
     25          6           0        8.801941   -1.701794   -0.358351
     26          6           0       -6.705059   -0.965962   -0.078077
     27          6           0        7.384085   -2.161188   -0.362824
     28          6           0       -6.220668    1.533466   -0.343958
     29          6           0        7.232483   -3.611004   -0.368541
     30          6           0        6.396025   -1.315632   -0.496040
     31          6           0       -4.820009    1.393666   -0.579251
     32          6           0        4.874136   -1.495003   -0.466766
     33          6           0       -3.965854    2.582090   -0.905616
     34          6           0       -2.622756    2.759029   -0.983438
     35          6           0        4.095616   -0.487635   -0.613086
     36          6           0        2.671989   -0.739736   -0.662818
     37          6           0       -1.956506    4.131599   -1.238130
     38          6           0       -1.815539    1.642934   -0.896718
     39          6           0        1.741870    0.362519   -0.765110
     40          6           0        2.126946   -2.186774   -0.448817
     41          6           0       -0.409337    1.596772   -0.884538
     42          6           0        0.373631    0.476917   -0.764443
     43          1           0      -11.035455    1.329214   -0.136424
     44          1           0      -12.362389   -1.840253    2.708588
     45          1           0      -10.956610   -2.071327    1.489585
     46          1           0      -12.457602   -3.170226    0.387173
     47          1           0      -10.057863   -0.205427    2.735962
     48          1           0      -10.643904    1.506408    2.453691
     49          1           0      -11.395547    0.323019    3.575235
     50          1           0      -13.721934    0.318959    0.640374
     51          1           0      -13.752703    0.439484    2.445963
     52          1           0      -13.039539    1.710302    1.240979
     53          1           0       12.439028    2.294548    0.754446
     54          1           0       12.532953    1.898062    2.324743
     55          1           0      -12.825343   -2.227566   -1.680583
     56          1           0       13.614017   -0.425480    1.503874
     57          1           0       -9.332198   -1.223511    0.210329
     58          1           0       13.674808   -0.807218   -0.810859
     59          1           0       13.407910    0.667530   -1.246858
     60          1           0        9.022059    1.953484    1.856710
     61          1           0       10.178528    2.588834    0.481552
     62          1           0       10.506409    2.721812    2.324287
     63          1           0       11.483173   -0.985132    2.865272
     64          1           0        9.912286   -0.587920    2.481126
     65          1           0       10.810155    0.655620    3.763780
     66          1           0      -10.249277    0.353765   -2.481040
     67          1           0      -11.754458    1.117752   -2.471256
     68          1           0      -11.597007   -0.394618   -3.281838
     69          1           0      -14.520713   -1.771374   -0.135786
     70          1           0        8.617961    0.450693    0.222738
     71          1           0       -8.682899    1.804811    0.026424
     72          1           0       11.758531   -2.033337   -1.994619
     73          1           0       10.276762   -1.006823   -2.285909
     74          1           0       12.083864   -0.617313   -2.911620
     75          1           0       15.108491    1.214306    1.551883
     76          1           0        9.594828   -2.500625   -0.457641
     77          1           0       -5.566822   -1.239902   -0.318729
     78          1           0       -6.887330   -1.204168    1.145179
     79          1           0       -7.342658   -1.456049   -0.672544
     80          1           0       -6.595227    2.572262   -0.556897
     81          1           0        6.537916   -3.927820    0.530465
     82          1           0        6.886917   -3.920380   -1.440278
     83          1           0        8.231742   -4.303528   -0.563852
     84          1           0        6.716426   -0.279451   -0.622272
     85          1           0       -4.278827    0.466610   -0.231395
     86          1           0        4.485900   -2.439707   -0.318235
     87          1           0       -4.780627    3.627874   -0.916311
     88          1           0        4.498854    0.624646   -0.680245
     89          1           0       -1.371083    4.175436   -2.264081
     90          1           0       -1.332904    4.311611   -0.408389
     91          1           0       -2.917981    4.898732   -1.245840
     92          1           0       -2.046286    0.463398   -0.815314
     93          1           0        2.164982    1.380583   -0.672604
     94          1           0        2.836606   -2.687965    0.315157
     95          1           0        1.127302   -2.069254   -0.074609
     96          1           0        2.102820   -2.730128   -1.649764
     97          1           0        0.046601    2.407756   -1.139391
     98          1           0       -0.188137   -0.488339   -0.667105
 ---------------------------------------------------------------------

 SCF Done:  E(RCAM-B3LYP) =  -1706.92703609     A.U. after   15 cycles

 Excitation energies and oscillator strengths:

 Excited State   1:      Singlet-A      2.1203 eV  584.76 nm  f=2.6256  <S**2>=0.000
     155 ->158        -0.11617
     156 ->157         0.70248
     156 <-157        -0.11339
 This state for optimization and/or second-order correction.
 Total Energy, E(TD-HF/TD-DFT) =  -1706.84911828
 Copying the excited state density for this state as the 1-particle RhoCI density.

 The electronic state is 1-A.
 Alpha  occ. eigenvalues --  -19.20963 -19.20625 -10.29695 -10.29140 -10.28876
 Alpha  occ. eigenvalues --  -10.28856 -10.28754 -10.28115 -10.27968 -10.27917
 Alpha  occ. eigenvalues --  -10.27894 -10.27700 -10.27697 -10.27593 -10.27232
 Alpha  occ. eigenvalues --  -10.27030 -10.27021 -10.26961 -10.26759 -10.26694
 Alpha  occ. eigenvalues --  -10.26562 -10.26534 -10.26518 -10.26467 -10.26444
 Alpha  occ. eigenvalues --  -10.26392 -10.26377 -10.25937 -10.25926 -10.25847
 Alpha  occ. eigenvalues --  -10.25846 -10.25741 -10.25448 -10.25436 -10.25427
 Alpha  occ. eigenvalues --  -10.25388 -10.25354 -10.24903 -10.24787 -10.23435
 Alpha  occ. eigenvalues --  -10.22995 -10.22710  -1.11978  -1.07749  -0.94093
 Alpha  occ. eigenvalues --   -0.93012  -0.92273  -0.91654  -0.90520  -0.89919
 Alpha  occ. eigenvalues --   -0.87755  -0.86840  -0.86782  -0.84869  -0.84592
 Alpha  occ. eigenvalues --   -0.82805  -0.81888  -0.80174  -0.79962  -0.77992
 Alpha  occ. eigenvalues --   -0.76668  -0.76224  -0.75876  -0.75653  -0.75495
 Alpha  occ. eigenvalues --   -0.75232  -0.75201  -0.75081  -0.72579  -0.70513
 Alpha  occ. eigenvalues --   -0.68922  -0.67445  -0.66511  -0.65341  -0.63846
 Alpha  occ. eigenvalues --   -0.63135  -0.62999  -0.62555  -0.60658  -0.59597
 Alpha  occ. eigenvalues --   -0.59338  -0.59169  -0.57347  -0.56821  -0.55928
 Alpha  occ. eigenvalues --   -0.55256  -0.54926  -0.54777  -0.54190  -0.53729
 Alpha  occ. eigenvalues --   -0.53043  -0.52726  -0.52323  -0.51693  -0.50844
 Alpha  occ. eigenvalues --   -0.50542  -0.50047  -0.49709  -0.49555  -0.49146
 Alpha  occ. eigenvalues --   -0.49066  -0.48993  -0.48594  -0.48151  -0.47962
 Alpha  occ. eigenvalues --   -0.47731  -0.47708  -0.47189  -0.46586  -0.46338
 Alpha  occ. eigenvalues --   -0.45946  -0.45670  -0.45547  -0.45416  -0.44735
 Alpha  occ. eigenvalues --   -0.44714  -0.44283  -0.43671  -0.43183  -0.42821
 Alpha  occ. eigenvalues --   -0.42702  -0.42650  -0.42244  -0.41973  -0.41661
 Alpha  occ. eigenvalues --   -0.41637  -0.41171  -0.40967  -0.40913  -0.40757
 Alpha  occ. eigenvalues --   -0.39831  -0.39474  -0.39421  -0.39407  -0.39238
 Alpha  occ. eigenvalues --   -0.39081  -0.39020  -0.38006  -0.37754  -0.37354
 Alpha  occ. eigenvalues --   -0.37288  -0.36976  -0.36334  -0.36125  -0.35591
 Alpha  occ. eigenvalues --   -0.35008  -0.34499  -0.33893  -0.31515  -0.31302
 Alpha  occ. eigenvalues --   -0.31184  -0.29929  -0.29479  -0.27039  -0.24524
 Alpha  occ. eigenvalues --   -0.19376
 Alpha virt. eigenvalues --   -0.06229  -0.00196   0.02790   0.05044   0.07193
 Alpha virt. eigenvalues --    0.09069   0.10652   0.11139   0.11566   0.12082
 Alpha virt. eigenvalues --    0.12547   0.12681   0.12983   0.13332   0.13559

 Mulliken charges:
               1
     1  O   -0.548044
     2  O   -0.550155
     3  C    0.021705
     4  C   -0.145374
     5  C   -0.170048
     6  C    0.184675
     7  C    0.119645
     8  C    0.018470
     9  C   -0.277599
    10  C   -0.281239
    11  C   -0.205074
    12  C   -0.199000
    13  C    0.194551
    14  C    0.029303
    15  C   -0.095527
    16  C   -0.219453
    17  C    0.055000
    18  C   -0.318002
    19  C   -0.285471
    20  C   -0.365719
    21  C   -0.057242
    22  C   -0.116197
    23  C   -0.363598
    24  C    0.090207
    25  C   -0.133225
    26  C   -0.343980
    27  C    0.125007
    28  C   -0.127966
    29  C   -0.381695
    30  C   -0.134203
    31  C   -0.082705
    32  C   -0.081188
    33  C   -0.128807
    34  C    0.078446
    35  C   -0.055350
    36  C    0.059313
    37  C   -0.349348
    38  C   -0.091202
    39  C   -0.130408
    40  C   -0.338723
    41  C   -0.060177
    42  C   -0.086081
    43  H    0.079698
    44  H    0.070209
    45  H    0.080566
    46  H    0.080513
    47  H    0.100799
    48  H    0.090741
    49  H    0.106087
    50  H    0.092858
    51  H    0.103240
    52  H    0.085828
    53  H    0.073983
    54  H    0.065827
    55  H    0.078719
    56  H    0.060747
    57  H    0.096798
    58  H    0.111027
    59  H    0.124741
    60  H    0.108056
    61  H    0.109497
    62  H    0.091471
    63  H    0.108059
    64  H    0.118795
    65  H    0.063038
    66  H    0.137297
    67  H    0.111571
    68  H    0.107597
    69  H    0.298557
    70  H    0.088316
    71  H    0.074552
    72  H    0.115474
    73  H    0.123496
    74  H    0.102672
    75  H    0.305371
    76  H    0.091216
    77  H    0.099591
    78  H    0.100642
    79  H    0.136170
    80  H    0.083002
    81  H    0.117498
    82  H    0.120049
    83  H    0.094944
    84  H    0.073377
    85  H    0.092508
    86  H    0.082541
    87  H    0.039064
    88  H    0.091220
    89  H    0.122003
    90  H    0.141323
    91  H    0.095110
    92  H    0.071959
    93  H    0.070938
    94  H    0.117365
    95  H    0.125522
    96  H    0.092525
    97  H    0.060526
    98  H    0.061186
 Sum of Mulliken charges =  -0.00000

 Dipole moment (field-independent basis, Debye):
    X=              1.8002    Y=             -0.1445    Z=             -0.8415  Tot=              1.9924
 Quadrupole moment (field-independent basis, Debye-Ang):
   XX=           -279.8254   YY=           -248.3640   ZZ=           -262.1684
   XY=             -8.3848   XZ=             39.1806   YZ=              4.3524

 Normal termination of Gaussian 16 at Sun Jul 14 20:54:54 2019.
