 Gaussian 16, Revision A.03,
 Gaussian 16:  ES64L-G16RevA.03 25-Dec-2016

 -------------------------------------
 # td=(NStates=1) CAM-B3LYP/6-31G(d,p)
 -------------------------------------

 --
 TD
 --
 Symbolic Z-matrix:
 Charge =  0 Multiplicity = 1

                         Standard orientation:
 ---------------------------------------------------------------------
 Center     Atomic      Atomic             Coordinates (Angstroms)
 Number     Number       Type             X           Y           Z
 ---------------------------------------------------------------------
      1          8           0      -14.041272   -1.970087    0.708869
      2          8           0       14.861865    0.706151    0.295229
      3          6           0      -11.633587   -0.048310    1.362604
      4          6           0      -10.984905    0.317938    0.036392
      5          6           0      -11.811640   -1.521217    1.372159
      6          6           0      -12.628822   -2.154042    0.288909
      7          6           0      -11.712579   -0.346755   -1.144809
      8          6           0       11.075765    0.859055    1.189699
      9          6           0      -10.968616    0.441891    2.535703
     10          6           0      -13.095036    0.766635    1.483805
     11          6           0       12.540954    1.423541    1.019480
     12          6           0      -12.411873   -1.469714   -0.955365
     13          6           0       13.572839    0.306829    0.467261
     14          6           0       10.768165   -0.073238    0.002339
     15          6           0       -9.551948   -0.137671   -0.063137
     16          6           0       13.081391   -0.160901   -0.815088
     17          6           0       11.630401   -0.449071   -0.967028
     18          6           0       10.183166    2.144127    1.210191
     19          6           0       10.912802    0.249245    2.579312
     20          6           0      -11.584140    0.289316   -2.460383
     21          6           0       -8.539271    0.796218   -0.180014
     22          6           0        9.325729   -0.409568    0.024052
     23          6           0       11.103173   -1.243863   -2.176082
     24          6           0       -7.125769    0.444182   -0.257761
     25          6           0        8.782981   -1.663268   -0.242603
     26          6           0       -6.804299   -0.991528   -0.187891
     27          6           0        7.418227   -2.031856   -0.214961
     28          6           0       -6.251951    1.479520   -0.408393
     29          6           0        7.310830   -3.542526   -0.113727
     30          6           0        6.413518   -1.158626   -0.224986
     31          6           0       -4.859785    1.388346   -0.457871
     32          6           0        4.973585   -1.423538    0.012599
     33          6           0       -3.969189    2.518057   -0.608013
     34          6           0       -2.670085    2.556454   -0.711734
     35          6           0        4.004437   -0.485740   -0.268088
     36          6           0        2.616544   -0.718796   -0.310888
     37          6           0       -1.888409    4.024942   -0.956666
     38          6           0       -1.717934    1.503342   -0.556372
     39          6           0        1.795263    0.428041   -0.495059
     40          6           0        2.106065   -2.051745    0.056531
     41          6           0       -0.372779    1.536796   -0.509118
     42          6           0        0.386356    0.291290   -0.426349
     43          1           0      -10.981418    1.353557   -0.249686
     44          1           0      -12.381068   -1.941929    2.290743
     45          1           0      -10.720106   -1.983778    1.247013
     46          1           0      -12.486197   -3.167479    0.266854
     47          1           0       -9.904774    0.005814    2.596741
     48          1           0      -10.790945    1.413098    2.432421
     49          1           0      -11.551685    0.316203    3.500688
     50          1           0      -13.834978    0.421438    0.703184
     51          1           0      -13.418854    0.650352    2.563344
     52          1           0      -12.970058    1.828446    1.207701
     53          1           0       12.461328    2.345913    0.366498
     54          1           0       12.807643    1.677237    2.034669
     55          1           0      -12.959348   -1.828916   -1.892190
     56          1           0       13.568714   -0.539149    1.244014
     57          1           0       -9.304012   -1.172402    0.031234
     58          1           0       13.940182   -0.874899   -1.247056
     59          1           0       13.167384    0.590236   -1.684392
     60          1           0        9.111485    2.099320    1.458428
     61          1           0       10.305349    2.610208   -0.001411
     62          1           0       10.573163    2.884314    1.750725
     63          1           0       11.360491   -0.791300    2.833828
     64          1           0        9.885548   -0.181214    2.570894
     65          1           0       11.070072    0.831923    3.309470
     66          1           0      -10.325625    0.103288   -2.837950
     67          1           0      -11.750202    1.577964   -2.279292
     68          1           0      -12.212891   -0.316197   -3.260724
     69          1           0      -14.545381   -1.904443   -0.178608
     70          1           0        8.618333    0.336050    0.395989
     71          1           0       -8.868876    1.748274   -0.228254
     72          1           0       11.460412   -2.181096   -2.190242
     73          1           0       10.027397   -1.112190   -2.364296
     74          1           0       11.539081   -0.863249   -2.871759
     75          1           0       15.058008    1.212696    1.057038
     76          1           0        9.603934   -2.303874   -0.574658
     77          1           0       -5.706382   -1.295048   -0.180726
     78          1           0       -7.289882   -1.388772    0.638079
     79          1           0       -7.291241   -1.623586   -0.956578
     80          1           0       -6.802277    2.431304   -0.378829
     81          1           0        6.745825   -3.915291    0.776546
     82          1           0        6.764788   -3.976910   -1.051335
     83          1           0        8.320631   -4.197402   -0.059025
     84          1           0        6.652103   -0.202385   -0.347677
     85          1           0       -4.512335    0.439103   -0.516211
     86          1           0        4.658239   -2.401298    0.445387
     87          1           0       -4.490199    3.388092   -0.892787
     88          1           0        4.246062    0.613522   -0.447095
     89          1           0       -1.133736    3.760614   -1.802148
     90          1           0       -1.377149    4.406644   -0.157571
     91          1           0       -2.813020    4.721974   -1.520032
     92          1           0       -2.246935    0.565007    0.071894
     93          1           0        2.342702    1.232404   -0.814081
     94          1           0        2.222386   -2.516948    1.010249
     95          1           0        0.958580   -2.052765    0.094974
     96          1           0        2.492013   -2.629693   -0.681081
     97          1           0       -0.124478    2.477455   -0.869783
     98          1           0       -0.249988   -0.671489    0.032210
 ---------------------------------------------------------------------

 SCF Done:  E(RCAM-B3LYP) =  -1706.86786861     A.U. after   17 cycles

 Excitation energies and oscillator strengths:

 Excited State   1:      Singlet-A      1.7635 eV  703.05 nm  f=2.9062  <S**2>=0.000
     155 ->158         0.11345
     156 ->157         0.71168
     156 <-157        -0.15345
 This state for optimization and/or second-order correction.
 Total Energy, E(TD-HF/TD-DFT) =  -1706.80306060
 Copying the excited state density for this state as the 1-particle RhoCI density.

 The electronic state is 1-A.
 Alpha  occ. eigenvalues --  -19.21568 -19.20687 -10.30928 -10.30337 -10.29235
 Alpha  occ. eigenvalues --  -10.29081 -10.27849 -10.27839 -10.27240 -10.27171
 Alpha  occ. eigenvalues --  -10.27088 -10.27055 -10.27025 -10.26934 -10.26908
 Alpha  occ. eigenvalues --  -10.26516 -10.26494 -10.26470 -10.26381 -10.26380
 Alpha  occ. eigenvalues --  -10.26313 -10.26207 -10.26114 -10.26053 -10.25887
 Alpha  occ. eigenvalues --  -10.25821 -10.25807 -10.25639 -10.25571 -10.25481
 Alpha  occ. eigenvalues --  -10.25474 -10.25457 -10.25421 -10.25405 -10.25212
 Alpha  occ. eigenvalues --  -10.25013 -10.24695 -10.24644 -10.24403 -10.23601
 Alpha  occ. eigenvalues --  -10.23106 -10.22269  -1.12737  -1.06821  -0.94724
 Alpha  occ. eigenvalues --   -0.93241  -0.92210  -0.91874  -0.90696  -0.90134
 Alpha  occ. eigenvalues --   -0.87642  -0.87621  -0.87057  -0.85261  -0.84513
 Alpha  occ. eigenvalues --   -0.83158  -0.82171  -0.80864  -0.80327  -0.79232
 Alpha  occ. eigenvalues --   -0.77161  -0.76614  -0.76566  -0.76285  -0.75695
 Alpha  occ. eigenvalues --   -0.75178  -0.74441  -0.73844  -0.72519  -0.71376
 Alpha  occ. eigenvalues --   -0.69381  -0.68529  -0.66756  -0.65112  -0.64632
 Alpha  occ. eigenvalues --   -0.63950  -0.62527  -0.62417  -0.60632  -0.60137
 Alpha  occ. eigenvalues --   -0.59436  -0.58714  -0.58123  -0.56649  -0.56103
 Alpha  occ. eigenvalues --   -0.55866  -0.55421  -0.54987  -0.54476  -0.54118
 Alpha  occ. eigenvalues --   -0.53740  -0.53137  -0.52858  -0.52294  -0.51442
 Alpha  occ. eigenvalues --   -0.50710  -0.50517  -0.49901  -0.49859  -0.49464
 Alpha  occ. eigenvalues --   -0.49267  -0.48938  -0.48610  -0.48330  -0.47820
 Alpha  occ. eigenvalues --   -0.47766  -0.47158  -0.46998  -0.46678  -0.46439
 Alpha  occ. eigenvalues --   -0.46089  -0.45526  -0.45280  -0.44926  -0.44676
 Alpha  occ. eigenvalues --   -0.44303  -0.44197  -0.43991  -0.43740  -0.43263
 Alpha  occ. eigenvalues --   -0.43055  -0.42712  -0.42343  -0.42104  -0.42048
 Alpha  occ. eigenvalues --   -0.41869  -0.41609  -0.41554  -0.41460  -0.41136
 Alpha  occ. eigenvalues --   -0.40843  -0.40413  -0.40097  -0.40006  -0.39803
 Alpha  occ. eigenvalues --   -0.39499  -0.39194  -0.38290  -0.38087  -0.37564
 Alpha  occ. eigenvalues --   -0.37397  -0.37043  -0.36160  -0.35863  -0.35229
 Alpha  occ. eigenvalues --   -0.34167  -0.33844  -0.33617  -0.32132  -0.31830
 Alpha  occ. eigenvalues --   -0.31474  -0.29567  -0.29120  -0.26899  -0.23623
 Alpha  occ. eigenvalues --   -0.17986
 Alpha virt. eigenvalues --   -0.07324  -0.00720   0.02885   0.04947   0.06751
 Alpha virt. eigenvalues --    0.09123   0.10505   0.10664   0.11276   0.12267
 Alpha virt. eigenvalues --    0.12295   0.13133   0.13208   0.13429   0.13885

 Mulliken charges:
               1
     1  O   -0.563536
     2  O   -0.526973
     3  C    0.049551
     4  C   -0.148112
     5  C   -0.180186
     6  C    0.170480
     7  C    0.154677
     8  C   -0.014098
     9  C   -0.281668
    10  C   -0.299307
    11  C   -0.225796
    12  C   -0.163389
    13  C    0.183562
    14  C    0.053169
    15  C   -0.077925
    16  C   -0.231779
    17  C    0.044137
    18  C   -0.293790
    19  C   -0.295488
    20  C   -0.328750
    21  C   -0.099916
    22  C   -0.122739
    23  C   -0.338405
    24  C    0.136047
    25  C   -0.130762
    26  C   -0.398683
    27  C    0.130435
    28  C   -0.116421
    29  C   -0.378353
    30  C   -0.113020
    31  C   -0.081613
    32  C   -0.120400
    33  C   -0.117438
    34  C    0.078408
    35  C   -0.103437
    36  C    0.102302
    37  C   -0.362978
    38  C   -0.102279
    39  C   -0.096921
    40  C   -0.368506
    41  C   -0.067566
    42  C   -0.109196
    43  H    0.082033
    44  H    0.105021
    45  H    0.068872
    46  H    0.097482
    47  H    0.078304
    48  H    0.108063
    49  H    0.097300
    50  H    0.104225
    51  H    0.096339
    52  H    0.083395
    53  H    0.094963
    54  H    0.077595
    55  H    0.056244
    56  H    0.069726
    57  H    0.085383
    58  H    0.101892
    59  H    0.110769
    60  H    0.107159
    61  H    0.056135
    62  H    0.116918
    63  H    0.088758
    64  H    0.104118
    65  H    0.109456
    66  H    0.088941
    67  H    0.084353
    68  H    0.109498
    69  H    0.300614
    70  H    0.079188
    71  H    0.073857
    72  H    0.122285
    73  H    0.128619
    74  H    0.106175
    75  H    0.304500
    76  H    0.093464
    77  H    0.108320
    78  H    0.134014
    79  H    0.123167
    80  H    0.076286
    81  H    0.116816
    82  H    0.109749
    83  H    0.101312
    84  H    0.071918
    85  H    0.079722
    86  H    0.092692
    87  H    0.079661
    88  H    0.075421
    89  H    0.114649
    90  H    0.144351
    91  H    0.075651
    92  H    0.043452
    93  H    0.090660
    94  H    0.128371
    95  H    0.086686
    96  H    0.136846
    97  H    0.073197
    98  H    0.102081
 Sum of Mulliken charges =  -0.00000

 Dipole moment (field-independent basis, Debye):
    X=              0.8415    Y=             -0.0075    Z=             -0.3523  Tot=              0.9123
 Quadrupole moment (field-independent basis, Debye-Ang):
   XX=           -277.1168   YY=           -246.9139   ZZ=           -261.2960
   XY=              4.5868   XZ=             37.1952   YZ=              3.9927

 Normal termination of Gaussian 16 at Mon Jul 15 18:37:11 2019.
