 Gaussian 16, Revision A.03,
 Gaussian 16:  ES64L-G16RevA.03 25-Dec-2016

 -------------------------------------
 # td=(NStates=1) CAM-B3LYP/6-31G(d,p)
 -------------------------------------

 --
 TD
 --
 Symbolic Z-matrix:
 Charge =  0 Multiplicity = 1

                         Standard orientation:
 ---------------------------------------------------------------------
 Center     Atomic      Atomic             Coordinates (Angstroms)
 Number     Number       Type             X           Y           Z
 ---------------------------------------------------------------------
      1          8           0      -14.076226   -2.031225    0.577548
      2          8           0       14.824450    0.930215    0.146794
      3          6           0      -11.754791    0.090987    1.192569
      4          6           0      -10.989920    0.316436   -0.054007
      5          6           0      -12.012833   -1.418173    1.380252
      6          6           0      -12.716684   -2.156282    0.243731
      7          6           0      -11.567113   -0.452054   -1.269683
      8          6           0       11.108656    1.099186    0.917152
      9          6           0      -10.944642    0.481694    2.463062
     10          6           0      -13.050663    0.971585    1.229910
     11          6           0       12.403433    1.606871    0.603675
     12          6           0      -12.273198   -1.568034   -1.134688
     13          6           0       13.441895    0.485526    0.286405
     14          6           0       10.663240   -0.000445   -0.048907
     15          6           0       -9.506630   -0.037872   -0.035529
     16          6           0       12.958030   -0.122193   -1.014272
     17          6           0       11.510596   -0.547802   -0.933102
     18          6           0       10.067903    2.259726    0.889401
     19          6           0       10.991917    0.460666    2.423259
     20          6           0      -11.279019    0.112573   -2.697119
     21          6           0       -8.443655    0.861152   -0.183294
     22          6           0        9.299130   -0.578550    0.081740
     23          6           0       11.167721   -1.644833   -2.052050
     24          6           0       -7.101953    0.477361   -0.132378
     25          6           0        8.824509   -1.700768    0.031458
     26          6           0       -6.634843   -0.886355    0.158714
     27          6           0        7.434065   -2.161500    0.217229
     28          6           0       -6.188589    1.528097   -0.358947
     29          6           0        7.204285   -3.687465    0.296500
     30          6           0        6.422547   -1.320648   -0.016617
     31          6           0       -4.756536    1.434722   -0.336091
     32          6           0        4.958503   -1.627026    0.026510
     33          6           0       -4.016003    2.569067   -0.481299
     34          6           0       -2.568950    2.665002   -0.479820
     35          6           0        4.021282   -0.656717   -0.204844
     36          6           0        2.629835   -0.871668   -0.193590
     37          6           0       -1.845426    3.952090   -0.823056
     38          6           0       -1.727886    1.475245   -0.437716
     39          6           0        1.776141    0.277087   -0.396471
     40          6           0        2.089023   -2.188439    0.042076
     41          6           0       -0.446407    1.509170   -0.610855
     42          6           0        0.311608    0.350089   -0.432163
     43          1           0      -10.951446    1.273170   -0.091464
     44          1           0      -12.701628   -1.500855    2.421511
     45          1           0      -11.112443   -2.166501    1.714512
     46          1           0      -12.440880   -3.135808    0.073891
     47          1           0      -10.078401    0.198932    2.543455
     48          1           0      -10.764524    1.513668    2.442627
     49          1           0      -11.503815   -0.061836    3.227193
     50          1           0      -13.793058    0.548555    0.623801
     51          1           0      -13.605980    0.879854    2.111876
     52          1           0      -12.827441    1.921874    1.102501
     53          1           0       12.435150    2.331529   -0.203406
     54          1           0       12.946212    2.120203    1.563844
     55          1           0      -12.892448   -1.831348   -1.991856
     56          1           0       13.315905   -0.297539    1.005460
     57          1           0       -9.266562   -1.002169    0.379646
     58          1           0       13.713390   -0.962056   -1.507857
     59          1           0       12.852369    0.711446   -1.772332
     60          1           0        9.231669    2.140257    1.433006
     61          1           0        9.792343    2.505037   -0.088675
     62          1           0       10.508966    3.199106    1.466254
     63          1           0       11.615029   -0.415262    2.446796
     64          1           0        9.868225    0.133075    2.856135
     65          1           0       11.359333    1.175331    3.203590
     66          1           0      -10.234313    0.158977   -2.982356
     67          1           0      -11.565365    1.272174   -2.720615
     68          1           0      -11.891229   -0.316800   -3.479068
     69          1           0      -14.815565   -2.051039   -0.162860
     70          1           0        8.508822    0.385672    0.497775
     71          1           0       -8.668844    2.000539   -0.443438
     72          1           0       11.484548   -2.781187   -1.922116
     73          1           0       10.083052   -1.379119   -2.221533
     74          1           0       11.682453   -1.361716   -3.036490
     75          1           0       15.099775    1.467528    0.953236
     76          1           0        9.460422   -2.666669   -0.210193
     77          1           0       -5.592971   -0.930717    0.471077
     78          1           0       -7.295408   -1.423941    0.887828
     79          1           0       -6.600458   -1.566490   -0.916456
     80          1           0       -6.467961    2.582216   -0.611047
     81          1           0        6.565264   -3.949548    1.248760
     82          1           0        6.437861   -4.162318   -0.419182
     83          1           0        8.045910   -4.338178    0.584921
     84          1           0        6.523362   -0.179674    0.109541
     85          1           0       -4.370593    0.401542   -0.348460
     86          1           0        4.788539   -2.702983    0.304120
     87          1           0       -4.500078    3.537444   -0.436511
     88          1           0        4.148935    0.471799   -0.246849
     89          1           0       -1.595025    3.876213   -1.880948
     90          1           0       -0.940571    4.196227   -0.344134
     91          1           0       -2.656136    4.786709   -0.712073
     92          1           0       -2.274954    0.463793   -0.308122
     93          1           0        2.317940    1.194220   -0.616386
     94          1           0        2.378988   -2.602817    1.059861
     95          1           0        1.125478   -2.112870   -0.095937
     96          1           0        2.500325   -2.855864   -0.819741
     97          1           0        0.131533    2.434341   -0.778392
     98          1           0       -0.250962   -0.463096   -0.102334
 ---------------------------------------------------------------------

 SCF Done:  E(RCAM-B3LYP) =  -1706.91507512     A.U. after   15 cycles

 Excitation energies and oscillator strengths:

 Excited State   1:      Singlet-A      2.0391 eV  608.05 nm  f=2.7850  <S**2>=0.000
     155 ->158         0.11955
     156 ->157         0.70227
     156 <-157        -0.11227
 This state for optimization and/or second-order correction.
 Total Energy, E(TD-HF/TD-DFT) =  -1706.84014128
 Copying the excited state density for this state as the 1-particle RhoCI density.

 The electronic state is 1-A.
 Alpha  occ. eigenvalues --  -19.21547 -19.21376 -10.30249 -10.30093 -10.28194
 Alpha  occ. eigenvalues --  -10.27987 -10.27617 -10.27381 -10.27253 -10.27198
 Alpha  occ. eigenvalues --  -10.27080 -10.27079 -10.27025 -10.27013 -10.26964
 Alpha  occ. eigenvalues --  -10.26934 -10.26926 -10.26724 -10.26697 -10.26591
 Alpha  occ. eigenvalues --  -10.26486 -10.26424 -10.26424 -10.26391 -10.26387
 Alpha  occ. eigenvalues --  -10.26226 -10.26197 -10.26106 -10.26075 -10.26064
 Alpha  occ. eigenvalues --  -10.26011 -10.25979 -10.25943 -10.25774 -10.25728
 Alpha  occ. eigenvalues --  -10.25254 -10.24761 -10.24723 -10.24659 -10.24122
 Alpha  occ. eigenvalues --  -10.21794 -10.21249  -1.07951  -1.07267  -0.94242
 Alpha  occ. eigenvalues --   -0.93626  -0.92316  -0.91555  -0.90879  -0.90179
 Alpha  occ. eigenvalues --   -0.87536  -0.86404  -0.86372  -0.85330  -0.84214
 Alpha  occ. eigenvalues --   -0.82700  -0.81959  -0.80021  -0.79906  -0.78584
 Alpha  occ. eigenvalues --   -0.77660  -0.76726  -0.76218  -0.76002  -0.75801
 Alpha  occ. eigenvalues --   -0.74990  -0.74622  -0.74486  -0.72644  -0.70723
 Alpha  occ. eigenvalues --   -0.68847  -0.68213  -0.66680  -0.64430  -0.63885
 Alpha  occ. eigenvalues --   -0.63578  -0.62497  -0.62376  -0.60370  -0.59179
 Alpha  occ. eigenvalues --   -0.59152  -0.58501  -0.58179  -0.56990  -0.56383
 Alpha  occ. eigenvalues --   -0.55656  -0.55218  -0.54398  -0.54257  -0.53737
 Alpha  occ. eigenvalues --   -0.53324  -0.53133  -0.52390  -0.51288  -0.50975
 Alpha  occ. eigenvalues --   -0.50411  -0.50144  -0.49476  -0.49052  -0.48760
 Alpha  occ. eigenvalues --   -0.48572  -0.48473  -0.48319  -0.47944  -0.47723
 Alpha  occ. eigenvalues --   -0.47281  -0.47151  -0.46786  -0.46311  -0.46261
 Alpha  occ. eigenvalues --   -0.46128  -0.45895  -0.45042  -0.44947  -0.44807
 Alpha  occ. eigenvalues --   -0.44021  -0.43995  -0.43716  -0.43640  -0.43332
 Alpha  occ. eigenvalues --   -0.43102  -0.42511  -0.42437  -0.42342  -0.41865
 Alpha  occ. eigenvalues --   -0.41616  -0.41515  -0.41192  -0.41020  -0.40886
 Alpha  occ. eigenvalues --   -0.40244  -0.40183  -0.40099  -0.39962  -0.39174
 Alpha  occ. eigenvalues --   -0.39050  -0.38697  -0.38234  -0.38044  -0.37932
 Alpha  occ. eigenvalues --   -0.37549  -0.37337  -0.36538  -0.35958  -0.34997
 Alpha  occ. eigenvalues --   -0.34537  -0.34073  -0.33918  -0.32492  -0.31892
 Alpha  occ. eigenvalues --   -0.31666  -0.29761  -0.28737  -0.26446  -0.24122
 Alpha  occ. eigenvalues --   -0.18881
 Alpha virt. eigenvalues --   -0.06237  -0.00267   0.03031   0.05904   0.07042
 Alpha virt. eigenvalues --    0.09172   0.10624   0.11073   0.11610   0.12193
 Alpha virt. eigenvalues --    0.12349   0.12585   0.13207   0.13303   0.13706

 Mulliken charges:
               1
     1  O   -0.562119
     2  O   -0.577338
     3  C   -0.003127
     4  C   -0.081909
     5  C   -0.188988
     6  C    0.189675
     7  C    0.135519
     8  C    0.017103
     9  C   -0.268197
    10  C   -0.292894
    11  C   -0.203760
    12  C   -0.189775
    13  C    0.181867
    14  C    0.074864
    15  C   -0.115624
    16  C   -0.217863
    17  C    0.022383
    18  C   -0.307930
    19  C   -0.306527
    20  C   -0.357020
    21  C   -0.101571
    22  C   -0.101311
    23  C   -0.356974
    24  C    0.138840
    25  C   -0.077964
    26  C   -0.365405
    27  C    0.094172
    28  C   -0.139518
    29  C   -0.395842
    30  C   -0.112993
    31  C   -0.050599
    32  C   -0.117596
    33  C   -0.128212
    34  C    0.049816
    35  C   -0.096431
    36  C    0.115972
    37  C   -0.374654
    38  C   -0.102866
    39  C   -0.150900
    40  C   -0.352538
    41  C   -0.041506
    42  C   -0.110273
    43  H    0.074912
    44  H    0.085851
    45  H    0.070325
    46  H    0.092649
    47  H    0.101328
    48  H    0.085757
    49  H    0.093261
    50  H    0.109735
    51  H    0.106140
    52  H    0.102651
    53  H    0.116189
    54  H    0.056777
    55  H    0.072402
    56  H    0.091058
    57  H    0.084849
    58  H    0.090187
    59  H    0.112138
    60  H    0.118612
    61  H    0.112511
    62  H    0.077343
    63  H    0.111913
    64  H    0.090352
    65  H    0.096839
    66  H    0.131092
    67  H    0.084673
    68  H    0.111425
    69  H    0.305262
    70  H    0.040276
    71  H    0.078245
    72  H    0.110771
    73  H    0.125585
    74  H    0.100173
    75  H    0.306658
    76  H    0.084349
    77  H    0.119534
    78  H    0.120665
    79  H    0.092594
    80  H    0.080718
    81  H    0.099647
    82  H    0.126154
    83  H    0.118947
    84  H    0.081145
    85  H    0.088000
    86  H    0.089905
    87  H    0.082271
    88  H    0.083017
    89  H    0.137215
    90  H    0.131306
    91  H    0.091640
    92  H    0.076908
    93  H    0.074100
    94  H    0.117021
    95  H    0.112878
    96  H    0.108583
    97  H    0.084657
    98  H    0.080820
 Sum of Mulliken charges =  -0.00000

 Dipole moment (field-independent basis, Debye):
    X=             -1.4326    Y=              0.3326    Z=              0.0357  Tot=              1.4711
 Quadrupole moment (field-independent basis, Debye-Ang):
   XX=           -273.3725   YY=           -243.1207   ZZ=           -263.5071
   XY=              1.5511   XZ=             37.6436   YZ=              1.2982

 Normal termination of Gaussian 16 at Fri Jul 12 22:18:55 2019.
