 Gaussian 16, Revision A.03,
 Gaussian 16:  ES64L-G16RevA.03 25-Dec-2016

 -------------------------------------
 # td=(NStates=1) CAM-B3LYP/6-31G(d,p)
 -------------------------------------

 --
 TD
 --
 Symbolic Z-matrix:
 Charge =  0 Multiplicity = 1

                         Standard orientation:
 ---------------------------------------------------------------------
 Center     Atomic      Atomic             Coordinates (Angstroms)
 Number     Number       Type             X           Y           Z
 ---------------------------------------------------------------------
      1          8           0      -14.046264   -2.000793    0.354058
      2          8           0       14.794956    1.017478    0.288295
      3          6           0      -11.689274   -0.106556    1.428551
      4          6           0      -10.955832    0.363427    0.138691
      5          6           0      -11.864141   -1.646334    1.334923
      6          6           0      -12.647381   -2.082191    0.161655
      7          6           0      -11.672868   -0.127035   -1.202720
      8          6           0       11.071890    0.936268    1.235205
      9          6           0      -10.784463    0.230788    2.605586
     10          6           0      -12.915507    0.616990    1.610867
     11          6           0       12.431442    1.490841    0.985258
     12          6           0      -12.370419   -1.229879   -1.122143
     13          6           0       13.460588    0.522159    0.443407
     14          6           0       10.637668   -0.011949    0.069885
     15          6           0       -9.507620   -0.032761    0.104949
     16          6           0       13.021034    0.005372   -0.903068
     17          6           0       11.420510   -0.361471   -0.950678
     18          6           0       10.107427    2.128657    1.309369
     19          6           0       10.923374    0.177885    2.445641
     20          6           0      -11.459522    0.690034   -2.410407
     21          6           0       -8.460114    0.876561    0.012074
     22          6           0        9.252681   -0.449074    0.063230
     23          6           0       11.121348   -1.150323   -2.166893
     24          6           0       -7.172206    0.560090   -0.129107
     25          6           0        8.834331   -1.756231   -0.115126
     26          6           0       -6.724970   -0.863824   -0.096187
     27          6           0        7.408837   -2.172676   -0.175945
     28          6           0       -6.191240    1.499949   -0.298366
     29          6           0        7.184302   -3.716697   -0.101551
     30          6           0        6.348397   -1.310905   -0.218976
     31          6           0       -4.782500    1.339504   -0.430483
     32          6           0        4.968360   -1.584637   -0.224933
     33          6           0       -3.901596    2.536365   -0.512480
     34          6           0       -2.533801    2.604134   -0.720900
     35          6           0        4.008745   -0.709649   -0.332887
     36          6           0        2.541765   -0.835124   -0.265901
     37          6           0       -1.836828    3.959547   -0.953356
     38          6           0       -1.794906    1.424270   -0.490371
     39          6           0        1.759046    0.118879   -0.624460
     40          6           0        2.103205   -2.158101    0.024808
     41          6           0       -0.435219    1.463388   -0.727521
     42          6           0        0.392069    0.263923   -0.452230
     43          1           0      -11.021091    1.419595    0.132696
     44          1           0      -12.461318   -1.860907    2.223050
     45          1           0      -10.965800   -2.247871    1.255814
     46          1           0      -12.426439   -3.132025   -0.322068
     47          1           0       -9.841401   -0.448944    2.615479
     48          1           0      -10.327707    1.350028    2.588280
     49          1           0      -11.200921    0.132691    3.610267
     50          1           0      -13.681086    0.393324    0.724056
     51          1           0      -13.380015    0.361210    2.558404
     52          1           0      -12.650066    1.653295    1.647588
     53          1           0       12.228159    2.459488    0.402232
     54          1           0       12.744738    1.817079    2.022806
     55          1           0      -12.946302   -1.650126   -1.873472
     56          1           0       13.537952   -0.369498    1.190500
     57          1           0       -9.396589   -1.123230    0.094978
     58          1           0       13.569892   -1.022957   -1.206642
     59          1           0       13.225398    0.688369   -1.764926
     60          1           0        8.989256    1.976808    1.527376
     61          1           0        9.969714    2.523404    0.396691
     62          1           0       10.529365    2.873532    1.885428
     63          1           0       11.475048   -0.688215    2.549511
     64          1           0        9.876852   -0.314724    2.660264
     65          1           0       11.203809    0.761816    3.405300
     66          1           0      -10.492300    0.740964   -2.841401
     67          1           0      -12.092052    1.567783   -2.145024
     68          1           0      -12.028367    0.384265   -3.295850
     69          1           0      -14.321117   -2.254636   -0.493563
     70          1           0        8.671852    0.212693    0.589700
     71          1           0       -8.856703    1.832678   -0.309451
     72          1           0       11.282833   -2.267158   -2.090123
     73          1           0       10.161807   -0.972109   -2.705285
     74          1           0       11.837125   -0.650656   -3.075991
     75          1           0       15.319023    0.986129    1.198296
     76          1           0        9.690239   -2.579414   -0.105788
     77          1           0       -5.591680   -1.021735   -0.582649
     78          1           0       -7.008587   -1.456547    0.918859
     79          1           0       -7.308648   -1.468649   -0.705285
     80          1           0       -6.637288    2.525312   -0.124906
     81          1           0        6.473522   -3.936027    0.741190
     82          1           0        6.573338   -3.893912   -1.140467
     83          1           0        8.158133   -4.136530   -0.072445
     84          1           0        6.633032   -0.156580   -0.291911
     85          1           0       -4.312257    0.340162   -0.811627
     86          1           0        4.803059   -2.538943   -0.092107
     87          1           0       -4.402248    3.663047   -0.365529
     88          1           0        4.250585    0.322807   -0.746358
     89          1           0       -1.186993    3.915217   -1.897225
     90          1           0       -1.267396    4.071069   -0.090351
     91          1           0       -2.864495    4.498317   -1.109196
     92          1           0       -2.324875    0.541921   -0.241651
     93          1           0        2.148712    1.110216   -0.945119
     94          1           0        2.240020   -2.478336    1.233049
     95          1           0        0.981604   -2.285212   -0.342988
     96          1           0        2.778460   -3.097009   -0.354951
     97          1           0        0.055966    2.409649   -1.245012
     98          1           0       -0.184963   -0.636094   -0.005732
 ---------------------------------------------------------------------

 SCF Done:  E(RCAM-B3LYP) =  -1706.93949917     A.U. after   15 cycles

 Excitation energies and oscillator strengths:

 Excited State   1:      Singlet-A      1.9310 eV  642.06 nm  f=2.8029  <S**2>=0.000
     155 ->158         0.12911
     156 ->157         0.70107
     156 <-157        -0.11660
 This state for optimization and/or second-order correction.
 Total Energy, E(TD-HF/TD-DFT) =  -1706.86853480
 Copying the excited state density for this state as the 1-particle RhoCI density.

 The electronic state is 1-A.
 Alpha  occ. eigenvalues --  -19.21646 -19.21071 -10.31406 -10.31175 -10.28539
 Alpha  occ. eigenvalues --  -10.28484 -10.28195 -10.28131 -10.27691 -10.27628
 Alpha  occ. eigenvalues --  -10.27488 -10.27045 -10.26996 -10.26873 -10.26829
 Alpha  occ. eigenvalues --  -10.26771 -10.26741 -10.26581 -10.26574 -10.26541
 Alpha  occ. eigenvalues --  -10.26464 -10.26318 -10.26306 -10.26272 -10.26018
 Alpha  occ. eigenvalues --  -10.25940 -10.25885 -10.25861 -10.25707 -10.25615
 Alpha  occ. eigenvalues --  -10.25392 -10.25280 -10.25277 -10.25258 -10.25180
 Alpha  occ. eigenvalues --  -10.25175 -10.24835 -10.24444 -10.24423 -10.24088
 Alpha  occ. eigenvalues --  -10.23597 -10.23405  -1.11472  -1.07549  -0.94291
 Alpha  occ. eigenvalues --   -0.94081  -0.93106  -0.92044  -0.91223  -0.90103
 Alpha  occ. eigenvalues --   -0.87696  -0.87600  -0.86162  -0.85185  -0.84279
 Alpha  occ. eigenvalues --   -0.83265  -0.82422  -0.80407  -0.79798  -0.78574
 Alpha  occ. eigenvalues --   -0.77784  -0.76993  -0.76069  -0.75817  -0.75392
 Alpha  occ. eigenvalues --   -0.74892  -0.74801  -0.74573  -0.72599  -0.70489
 Alpha  occ. eigenvalues --   -0.68578  -0.67467  -0.66005  -0.65052  -0.63725
 Alpha  occ. eigenvalues --   -0.63299  -0.63110  -0.61956  -0.59950  -0.59530
 Alpha  occ. eigenvalues --   -0.59387  -0.58985  -0.57665  -0.57159  -0.56636
 Alpha  occ. eigenvalues --   -0.56171  -0.55077  -0.54453  -0.54124  -0.53835
 Alpha  occ. eigenvalues --   -0.53463  -0.53159  -0.52625  -0.52141  -0.51581
 Alpha  occ. eigenvalues --   -0.51096  -0.50935  -0.50354  -0.49938  -0.49415
 Alpha  occ. eigenvalues --   -0.49280  -0.48620  -0.48422  -0.47994  -0.47771
 Alpha  occ. eigenvalues --   -0.47324  -0.47017  -0.46900  -0.46570  -0.46348
 Alpha  occ. eigenvalues --   -0.46227  -0.45859  -0.45170  -0.44954  -0.44839
 Alpha  occ. eigenvalues --   -0.44401  -0.44297  -0.43577  -0.43340  -0.43084
 Alpha  occ. eigenvalues --   -0.42959  -0.42835  -0.42366  -0.41982  -0.41560
 Alpha  occ. eigenvalues --   -0.41168  -0.40952  -0.40840  -0.40752  -0.40338
 Alpha  occ. eigenvalues --   -0.40207  -0.39874  -0.39264  -0.39217  -0.39081
 Alpha  occ. eigenvalues --   -0.38873  -0.38581  -0.38277  -0.37966  -0.37410
 Alpha  occ. eigenvalues --   -0.37166  -0.37020  -0.36711  -0.36659  -0.36261
 Alpha  occ. eigenvalues --   -0.35442  -0.34737  -0.34018  -0.32244  -0.31963
 Alpha  occ. eigenvalues --   -0.31214  -0.30138  -0.29399  -0.26545  -0.23354
 Alpha  occ. eigenvalues --   -0.18814
 Alpha virt. eigenvalues --   -0.06638  -0.01337   0.02289   0.06097   0.07998
 Alpha virt. eigenvalues --    0.08664   0.09916   0.10661   0.11273   0.12106
 Alpha virt. eigenvalues --    0.12506   0.12595   0.12784   0.13400   0.13594

 Mulliken charges:
               1
     1  O   -0.516514
     2  O   -0.570707
     3  C    0.027561
     4  C   -0.137460
     5  C   -0.179232
     6  C    0.123566
     7  C    0.104595
     8  C    0.006422
     9  C   -0.298690
    10  C   -0.286115
    11  C   -0.191115
    12  C   -0.137901
    13  C    0.183525
    14  C    0.054535
    15  C   -0.075639
    16  C   -0.210569
    17  C    0.042146
    18  C   -0.323207
    19  C   -0.290918
    20  C   -0.371052
    21  C   -0.129116
    22  C   -0.098255
    23  C   -0.356494
    24  C    0.176084
    25  C   -0.122312
    26  C   -0.369896
    27  C    0.067317
    28  C   -0.132276
    29  C   -0.355815
    30  C   -0.115250
    31  C   -0.108172
    32  C   -0.035187
    33  C   -0.128661
    34  C    0.054596
    35  C   -0.128413
    36  C    0.206599
    37  C   -0.347202
    38  C   -0.066272
    39  C   -0.135267
    40  C   -0.385916
    41  C   -0.105378
    42  C   -0.116306
    43  H    0.077573
    44  H    0.110951
    45  H    0.102060
    46  H    0.065102
    47  H    0.091251
    48  H    0.082218
    49  H    0.100052
    50  H    0.107316
    51  H    0.100403
    52  H    0.095281
    53  H    0.101319
    54  H    0.077278
    55  H    0.061372
    56  H    0.069502
    57  H    0.082026
    58  H    0.090214
    59  H    0.118137
    60  H    0.096043
    61  H    0.118901
    62  H    0.110431
    63  H    0.108150
    64  H    0.096742
    65  H    0.079311
    66  H    0.134260
    67  H    0.121677
    68  H    0.107789
    69  H    0.298542
    70  H    0.086021
    71  H    0.088732
    72  H    0.119102
    73  H    0.125280
    74  H    0.068920
    75  H    0.309356
    76  H    0.086398
    77  H    0.081583
    78  H    0.101260
    79  H    0.124303
    80  H    0.078318
    81  H    0.126423
    82  H    0.106504
    83  H    0.114968
    84  H    0.065074
    85  H    0.098358
    86  H    0.055628
    87  H    0.065166
    88  H    0.069326
    89  H    0.120325
    90  H    0.150704
    91  H    0.101913
    92  H    0.090478
    93  H    0.078026
    94  H    0.091127
    95  H    0.099991
    96  H    0.107670
    97  H    0.086235
    98  H    0.077273
 Sum of Mulliken charges =  -0.00000

 Dipole moment (field-independent basis, Debye):
    X=              0.1125    Y=             -0.9705    Z=             -0.2703  Tot=              1.0137
 Quadrupole moment (field-independent basis, Debye-Ang):
   XX=           -267.8726   YY=           -248.4359   ZZ=           -259.8708
   XY=             -5.7912   XZ=             43.9739   YZ=              1.7356

 Normal termination of Gaussian 16 at Mon Jul 15 06:14:53 2019.
