 Gaussian 16, Revision A.03,
 Gaussian 16:  ES64L-G16RevA.03 25-Dec-2016

 -------------------------------------
 # td=(NStates=1) CAM-B3LYP/6-31G(d,p)
 -------------------------------------

 --
 TD
 --
 Symbolic Z-matrix:
 Charge =  0 Multiplicity = 1

                         Standard orientation:
 ---------------------------------------------------------------------
 Center     Atomic      Atomic             Coordinates (Angstroms)
 Number     Number       Type             X           Y           Z
 ---------------------------------------------------------------------
      1          8           0      -14.097582   -1.985803    0.451835
      2          8           0       14.742753    1.021101    0.193832
      3          6           0      -11.791252    0.060409    1.342321
      4          6           0      -11.054799    0.319110    0.061586
      5          6           0      -12.053758   -1.391765    1.430452
      6          6           0      -12.759618   -2.111996    0.204055
      7          6           0      -11.629910   -0.348455   -1.271065
      8          6           0       11.031759    1.015290    1.130321
      9          6           0      -10.908596    0.462723    2.545459
     10          6           0      -13.093004    0.852585    1.277486
     11          6           0       12.507370    1.552339    0.949375
     12          6           0      -12.396703   -1.387084   -1.033052
     13          6           0       13.495785    0.488120    0.397861
     14          6           0       10.681172   -0.067253    0.069916
     15          6           0       -9.547478   -0.056169    0.006991
     16          6           0       13.029254   -0.002678   -0.843221
     17          6           0       11.597298   -0.458357   -0.875110
     18          6           0       10.108560    2.159550    1.160978
     19          6           0       11.007938    0.170707    2.393508
     20          6           0      -11.226923    0.155087   -2.551906
     21          6           0       -8.534250    0.870487   -0.066371
     22          6           0        9.289419   -0.497870   -0.001977
     23          6           0       11.230813   -1.198634   -2.059464
     24          6           0       -7.147863    0.417950   -0.149619
     25          6           0        8.778537   -1.796673   -0.187905
     26          6           0       -6.709599   -0.974261    0.134525
     27          6           0        7.441221   -2.282731   -0.128227
     28          6           0       -6.226279    1.430762   -0.205671
     29          6           0        7.241188   -3.691035    0.109004
     30          6           0        6.410729   -1.318292   -0.220919
     31          6           0       -4.804580    1.328276   -0.413838
     32          6           0        5.109523   -1.575236   -0.163946
     33          6           0       -4.081207    2.496033   -0.508200
     34          6           0       -2.633109    2.623801   -0.708575
     35          6           0        4.148911   -0.624819   -0.297654
     36          6           0        2.656497   -0.808686   -0.255202
     37          6           0       -1.996230    3.999751   -1.083244
     38          6           0       -1.790516    1.486785   -0.471005
     39          6           0        1.817437    0.346798   -0.565062
     40          6           0        2.072390   -2.211422   -0.010869
     41          6           0       -0.400400    1.539188   -0.654042
     42          6           0        0.403104    0.360179   -0.347038
     43          1           0      -11.293920    1.365170   -0.261342
     44          1           0      -12.678095   -1.722894    2.396851
     45          1           0      -11.228884   -2.141630    1.926284
     46          1           0      -12.286382   -3.181250   -0.018465
     47          1           0      -10.023015   -0.096255    2.953817
     48          1           0      -10.692857    1.565890    2.318181
     49          1           0      -11.536949    0.736021    3.498417
     50          1           0      -13.625212    0.716388    0.210763
     51          1           0      -13.751223    0.520895    2.080209
     52          1           0      -12.854999    1.901690    1.487015
     53          1           0       12.556760    2.275716    0.122740
     54          1           0       12.758308    2.148349    1.864040
     55          1           0      -12.883600   -1.746596   -1.861164
     56          1           0       13.460936   -0.459295    1.068677
     57          1           0       -9.132324   -1.073329    0.170989
     58          1           0       13.610264   -0.951662   -1.039919
     59          1           0       13.461280    0.683678   -1.695372
     60          1           0        9.007171    1.974972    1.653932
     61          1           0       10.131831    2.626666    0.192487
     62          1           0       10.400751    2.962149    1.946432
     63          1           0       11.525238   -0.781844    2.467714
     64          1           0        9.850193   -0.113745    2.732498
     65          1           0       11.384051    0.572359    3.419601
     66          1           0      -10.087398    0.014544   -2.778474
     67          1           0      -11.353966    1.307302   -2.657565
     68          1           0      -11.676665   -0.478398   -3.205672
     69          1           0      -14.647148   -2.524381   -0.208000
     70          1           0        8.483345    0.119468    0.391093
     71          1           0       -8.675608    1.957859   -0.377671
     72          1           0       11.486678   -2.256427   -2.179097
     73          1           0       10.094786   -1.258335   -2.166390
     74          1           0       11.876503   -0.855040   -2.999346
     75          1           0       15.056590    1.194255    1.111214
     76          1           0        9.540571   -2.457365   -0.204819
     77          1           0       -5.574741   -0.968078    0.220034
     78          1           0       -6.934483   -1.323947    1.214249
     79          1           0       -7.088916   -1.676764   -0.555436
     80          1           0       -6.597971    2.550424   -0.331467
     81          1           0        7.203802   -3.778723    1.320709
     82          1           0        6.178679   -4.121056   -0.280076
     83          1           0        7.989979   -4.126282   -0.552524
     84          1           0        6.674549   -0.325280   -0.408209
     85          1           0       -4.268244    0.226087   -0.562453
     86          1           0        4.628448   -2.648172    0.198740
     87          1           0       -4.667162    3.536578   -0.722322
     88          1           0        4.570057    0.531975   -0.529261
     89          1           0       -1.501151    4.120795   -2.077240
     90          1           0       -1.304184    4.171259   -0.326572
     91          1           0       -2.634482    4.836094   -1.092524
     92          1           0       -2.302462    0.623091   -0.013107
     93          1           0        2.367597    1.283216   -0.703209
     94          1           0        2.577985   -2.576617    0.888328
     95          1           0        1.125198   -2.056726    0.012026
     96          1           0        2.337598   -2.896212   -0.791650
     97          1           0        0.124907    2.463547   -1.133823
     98          1           0        0.039626   -0.667609   -0.143153
 ---------------------------------------------------------------------

 SCF Done:  E(RCAM-B3LYP) =  -1706.95318726     A.U. after   15 cycles

 Excitation energies and oscillator strengths:

 Excited State   1:      Singlet-A      1.9585 eV  633.04 nm  f=3.0541  <S**2>=0.000
     155 ->158         0.15393
     156 ->157         0.69266
 This state for optimization and/or second-order correction.
 Total Energy, E(TD-HF/TD-DFT) =  -1706.88121195
 Copying the excited state density for this state as the 1-particle RhoCI density.

 The electronic state is 1-A.
 Alpha  occ. eigenvalues --  -19.22310 -19.22165 -10.31432 -10.30251 -10.28643
 Alpha  occ. eigenvalues --  -10.27975 -10.27959 -10.27833 -10.27658 -10.27573
 Alpha  occ. eigenvalues --  -10.27518 -10.27420 -10.27371 -10.26889 -10.26708
 Alpha  occ. eigenvalues --  -10.26651 -10.26546 -10.26501 -10.26465 -10.26302
 Alpha  occ. eigenvalues --  -10.26288 -10.26178 -10.26165 -10.26135 -10.26117
 Alpha  occ. eigenvalues --  -10.25975 -10.25965 -10.25891 -10.25855 -10.25713
 Alpha  occ. eigenvalues --  -10.25460 -10.25404 -10.25399 -10.25386 -10.25278
 Alpha  occ. eigenvalues --  -10.25255 -10.25155 -10.24958 -10.24618 -10.24600
 Alpha  occ. eigenvalues --  -10.24354 -10.22787  -1.11970  -1.10851  -0.93940
 Alpha  occ. eigenvalues --   -0.93330  -0.91985  -0.90792  -0.89764  -0.88799
 Alpha  occ. eigenvalues --   -0.87714  -0.87567  -0.86500  -0.85080  -0.84167
 Alpha  occ. eigenvalues --   -0.82770  -0.81559  -0.80357  -0.79967  -0.78388
 Alpha  occ. eigenvalues --   -0.76392  -0.76246  -0.76015  -0.75558  -0.75424
 Alpha  occ. eigenvalues --   -0.74884  -0.74479  -0.74332  -0.71885  -0.69573
 Alpha  occ. eigenvalues --   -0.68344  -0.67438  -0.65170  -0.64309  -0.63670
 Alpha  occ. eigenvalues --   -0.63072  -0.61776  -0.61394  -0.60015  -0.59156
 Alpha  occ. eigenvalues --   -0.59024  -0.58853  -0.58183  -0.56794  -0.55925
 Alpha  occ. eigenvalues --   -0.55707  -0.54894  -0.54797  -0.54043  -0.53271
 Alpha  occ. eigenvalues --   -0.52887  -0.52712  -0.52522  -0.52131  -0.51223
 Alpha  occ. eigenvalues --   -0.50474  -0.50100  -0.49588  -0.49467  -0.49293
 Alpha  occ. eigenvalues --   -0.49120  -0.48559  -0.48430  -0.48183  -0.47643
 Alpha  occ. eigenvalues --   -0.47429  -0.47145  -0.46736  -0.46363  -0.46139
 Alpha  occ. eigenvalues --   -0.45650  -0.45418  -0.44963  -0.44917  -0.44341
 Alpha  occ. eigenvalues --   -0.44043  -0.43894  -0.43465  -0.43298  -0.42918
 Alpha  occ. eigenvalues --   -0.42397  -0.42178  -0.41925  -0.41508  -0.41385
 Alpha  occ. eigenvalues --   -0.41209  -0.40962  -0.40873  -0.40406  -0.40381
 Alpha  occ. eigenvalues --   -0.40221  -0.39717  -0.39459  -0.39128  -0.38978
 Alpha  occ. eigenvalues --   -0.38899  -0.38494  -0.38128  -0.38009  -0.37760
 Alpha  occ. eigenvalues --   -0.37513  -0.36821  -0.36803  -0.36283  -0.35058
 Alpha  occ. eigenvalues --   -0.34523  -0.33845  -0.33517  -0.32405  -0.31904
 Alpha  occ. eigenvalues --   -0.31366  -0.28904  -0.28381  -0.25919  -0.22736
 Alpha  occ. eigenvalues --   -0.18422
 Alpha virt. eigenvalues --   -0.05957  -0.01220   0.02862   0.06176   0.07639
 Alpha virt. eigenvalues --    0.08798   0.10620   0.11292   0.11586   0.11840
 Alpha virt. eigenvalues --    0.12124   0.12554   0.13269   0.13411   0.13629

 Mulliken charges:
               1
     1  O   -0.516982
     2  O   -0.538295
     3  C    0.060484
     4  C   -0.130458
     5  C   -0.181789
     6  C    0.137115
     7  C    0.107835
     8  C    0.011029
     9  C   -0.311702
    10  C   -0.298743
    11  C   -0.198430
    12  C   -0.108970
    13  C    0.166937
    14  C    0.055459
    15  C   -0.098686
    16  C   -0.233630
    17  C    0.099714
    18  C   -0.303235
    19  C   -0.296836
    20  C   -0.352563
    21  C   -0.072727
    22  C   -0.122974
    23  C   -0.387698
    24  C    0.108469
    25  C   -0.113205
    26  C   -0.377281
    27  C    0.089699
    28  C   -0.133069
    29  C   -0.360548
    30  C   -0.106580
    31  C   -0.072154
    32  C   -0.053967
    33  C   -0.131934
    34  C    0.061080
    35  C   -0.122234
    36  C    0.040103
    37  C   -0.379467
    38  C   -0.099471
    39  C   -0.110091
    40  C   -0.340514
    41  C   -0.105350
    42  C   -0.099060
    43  H    0.082169
    44  H    0.087121
    45  H    0.066744
    46  H    0.069312
    47  H    0.117191
    48  H    0.091561
    49  H    0.081337
    50  H    0.106227
    51  H    0.112060
    52  H    0.092627
    53  H    0.098310
    54  H    0.085623
    55  H    0.044146
    56  H    0.061451
    57  H    0.090280
    58  H    0.108762
    59  H    0.111719
    60  H    0.087523
    61  H    0.118998
    62  H    0.093471
    63  H    0.115878
    64  H    0.074860
    65  H    0.075525
    66  H    0.115297
    67  H    0.103268
    68  H    0.116044
    69  H    0.307282
    70  H    0.085094
    71  H    0.077256
    72  H    0.113228
    73  H    0.119696
    74  H    0.092906
    75  H    0.311226
    76  H    0.073926
    77  H    0.101681
    78  H    0.116522
    79  H    0.126723
    80  H    0.072355
    81  H    0.123232
    82  H    0.098374
    83  H    0.125633
    84  H    0.084607
    85  H    0.094890
    86  H    0.064206
    87  H    0.076603
    88  H    0.060407
    89  H    0.117502
    90  H    0.136917
    91  H    0.112284
    92  H    0.087431
    93  H    0.083197
    94  H    0.122746
    95  H    0.105774
    96  H    0.131843
    97  H    0.101847
    98  H    0.087826
 Sum of Mulliken charges =  -0.00000

 Dipole moment (field-independent basis, Debye):
    X=              0.1864    Y=             -1.5540    Z=              0.2232  Tot=              1.5810
 Quadrupole moment (field-independent basis, Debye-Ang):
   XX=           -252.2674   YY=           -241.2950   ZZ=           -262.0917
   XY=              8.9600   XZ=             36.8116   YZ=              1.1763

 Normal termination of Gaussian 16 at Sat Jul 13 09:02:58 2019.
