 Gaussian 16, Revision A.03,
 Gaussian 16:  ES64L-G16RevA.03 25-Dec-2016

 -------------------------------------
 # td=(NStates=1) CAM-B3LYP/6-31G(d,p)
 -------------------------------------

 --
 TD
 --
 Symbolic Z-matrix:
 Charge =  0 Multiplicity = 1

                         Standard orientation:
 ---------------------------------------------------------------------
 Center     Atomic      Atomic             Coordinates (Angstroms)
 Number     Number       Type             X           Y           Z
 ---------------------------------------------------------------------
      1          8           0      -14.324397   -1.749681    0.504708
      2          8           0       14.803233    1.019556    0.109827
      3          6           0      -11.740446    0.078342    1.330138
      4          6           0      -10.998123    0.420520    0.109876
      5          6           0      -12.053678   -1.418900    1.473661
      6          6           0      -12.854294   -1.936370    0.324650
      7          6           0      -11.641236   -0.363558   -1.232261
      8          6           0       11.072286    0.977904    1.110329
      9          6           0      -10.836707    0.491962    2.541553
     10          6           0      -13.023811    0.817193    1.394260
     11          6           0       12.545301    1.681614    0.914922
     12          6           0      -12.477253   -1.408746   -1.063114
     13          6           0       13.500906    0.590333    0.327180
     14          6           0       10.664364   -0.090494    0.041920
     15          6           0       -9.560121   -0.075844    0.037648
     16          6           0       12.951106    0.037187   -1.034893
     17          6           0       11.494167   -0.397768   -0.979162
     18          6           0       10.108979    2.212117    1.185127
     19          6           0       11.116553    0.255078    2.556400
     20          6           0      -11.192709    0.253380   -2.470854
     21          6           0       -8.514406    0.763470   -0.147104
     22          6           0        9.258211   -0.552376    0.212195
     23          6           0       11.252444   -1.217165   -2.125546
     24          6           0       -7.149979    0.479962   -0.198819
     25          6           0        8.824413   -1.759656   -0.136716
     26          6           0       -6.668682   -0.979321   -0.161243
     27          6           0        7.402016   -2.190681   -0.095239
     28          6           0       -6.189395    1.476453   -0.551875
     29          6           0        7.219833   -3.630285    0.329204
     30          6           0        6.436079   -1.300838   -0.132659
     31          6           0       -4.785688    1.362055   -0.446675
     32          6           0        5.016757   -1.640250   -0.074902
     33          6           0       -3.978723    2.497936   -0.758466
     34          6           0       -2.533912    2.492357   -0.714532
     35          6           0        3.981180   -0.703737   -0.256422
     36          6           0        2.651392   -0.963089   -0.316363
     37          6           0       -1.882186    3.946537   -0.822287
     38          6           0       -1.679650    1.448978   -0.502257
     39          6           0        1.749068    0.133953   -0.556527
     40          6           0        2.119072   -2.363979    0.037473
     41          6           0       -0.354019    1.364208   -0.651183
     42          6           0        0.355157    0.170512   -0.239502
     43          1           0      -10.998498    1.461664    0.003180
     44          1           0      -12.486166   -1.682091    2.445054
     45          1           0      -11.176252   -1.840896    1.541262
     46          1           0      -12.648928   -2.964400    0.165953
     47          1           0      -10.008827   -0.175504    2.618792
     48          1           0      -10.509827    1.547641    2.273834
     49          1           0      -11.432873    0.602656    3.495032
     50          1           0      -13.886674    0.561281    0.644994
     51          1           0      -13.592995    0.508327    2.250158
     52          1           0      -12.645383    1.987934    1.523192
     53          1           0       12.460627    2.496761    0.168927
     54          1           0       12.790166    1.942963    1.907170
     55          1           0      -12.889659   -1.784307   -2.066743
     56          1           0       13.457220   -0.219660    1.052677
     57          1           0       -9.263100   -1.144104    0.339374
     58          1           0       13.562980   -0.978271   -1.324054
     59          1           0       13.053750    0.838624   -1.797009
     60          1           0        9.077622    1.888187    1.398420
     61          1           0       10.191519    2.927247    0.235154
     62          1           0       10.233743    2.869530    2.225303
     63          1           0       12.054647   -0.390150    2.483825
     64          1           0       10.129405   -0.375390    2.612718
     65          1           0       11.117146    1.051633    3.209061
     66          1           0      -10.165477   -0.130986   -2.683582
     67          1           0      -11.313051    1.411599   -2.469803
     68          1           0      -11.826104    0.044599   -3.299846
     69          1           0      -14.606785   -2.082256   -0.405470
     70          1           0        8.536407    0.141570    0.545153
     71          1           0       -8.718006    1.794490   -0.480178
     72          1           0       11.603280   -2.244812   -2.095640
     73          1           0       10.119061   -1.394718   -2.003228
     74          1           0       11.681784   -0.878475   -2.992416
     75          1           0       15.248060    1.528742    0.751456
     76          1           0        9.585346   -2.632394   -0.484521
     77          1           0       -5.663870   -1.032608   -0.417829
     78          1           0       -6.678617   -1.561565    0.930933
     79          1           0       -7.311737   -1.649538   -0.887185
     80          1           0       -6.488322    2.591790   -0.591363
     81          1           0        6.922398   -3.775121    1.242773
     82          1           0        6.277307   -3.994470   -0.374443
     83          1           0        7.914089   -4.200949    0.037752
     84          1           0        6.560548   -0.231818   -0.348389
     85          1           0       -4.459404    0.329549   -0.161491
     86          1           0        4.854726   -2.726790    0.217668
     87          1           0       -4.774082    3.263797   -0.860136
     88          1           0        4.545009    0.221508   -0.556007
     89          1           0       -1.268162    3.944095   -1.761737
     90          1           0       -1.387336    4.326706    0.106898
     91          1           0       -2.801854    4.446982   -1.081930
     92          1           0       -2.195108    0.554767   -0.230441
     93          1           0        2.074016    1.043271   -0.769921
     94          1           0        2.275739   -2.448490    1.002333
     95          1           0        0.970281   -2.347590   -0.188038
     96          1           0        2.652350   -3.091345   -0.620626
     97          1           0        0.048462    2.487393   -0.983852
     98          1           0       -0.256875   -0.749547    0.042935
 ---------------------------------------------------------------------

 SCF Done:  E(RCAM-B3LYP) =  -1706.95011121     A.U. after   15 cycles

 Excitation energies and oscillator strengths:

 Excited State   1:      Singlet-A      1.9188 eV  646.17 nm  f=3.0064  <S**2>=0.000
     155 ->158         0.12181
     156 ->157         0.70323
     156 <-157        -0.11969
 This state for optimization and/or second-order correction.
 Total Energy, E(TD-HF/TD-DFT) =  -1706.87959801
 Copying the excited state density for this state as the 1-particle RhoCI density.

 The electronic state is 1-A.
 Alpha  occ. eigenvalues --  -19.21628 -19.20052 -10.30932 -10.30171 -10.28175
 Alpha  occ. eigenvalues --  -10.28059 -10.27952 -10.27919 -10.27824 -10.27753
 Alpha  occ. eigenvalues --  -10.27445 -10.27385 -10.27381 -10.27359 -10.27307
 Alpha  occ. eigenvalues --  -10.27007 -10.26977 -10.26839 -10.26612 -10.26573
 Alpha  occ. eigenvalues --  -10.26549 -10.26182 -10.26168 -10.26102 -10.26016
 Alpha  occ. eigenvalues --  -10.25861 -10.25859 -10.25733 -10.25730 -10.25720
 Alpha  occ. eigenvalues --  -10.25630 -10.25622 -10.25492 -10.25348 -10.25137
 Alpha  occ. eigenvalues --  -10.24959 -10.24676 -10.24608 -10.24309 -10.24129
 Alpha  occ. eigenvalues --  -10.23932 -10.23491  -1.09663  -1.07364  -0.94090
 Alpha  occ. eigenvalues --   -0.92662  -0.91995  -0.91471  -0.90715  -0.89923
 Alpha  occ. eigenvalues --   -0.87326  -0.86981  -0.86538  -0.85322  -0.84525
 Alpha  occ. eigenvalues --   -0.83387  -0.81909  -0.80495  -0.80351  -0.78800
 Alpha  occ. eigenvalues --   -0.77292  -0.76707  -0.75965  -0.75759  -0.74946
 Alpha  occ. eigenvalues --   -0.74877  -0.74528  -0.73976  -0.72728  -0.70348
 Alpha  occ. eigenvalues --   -0.68873  -0.68270  -0.67021  -0.65356  -0.63309
 Alpha  occ. eigenvalues --   -0.62515  -0.62269  -0.61562  -0.60538  -0.60029
 Alpha  occ. eigenvalues --   -0.59342  -0.58435  -0.58374  -0.57494  -0.56151
 Alpha  occ. eigenvalues --   -0.55637  -0.55291  -0.54851  -0.54028  -0.53934
 Alpha  occ. eigenvalues --   -0.53260  -0.52689  -0.52262  -0.51163  -0.50848
 Alpha  occ. eigenvalues --   -0.50754  -0.50344  -0.50075  -0.49955  -0.49462
 Alpha  occ. eigenvalues --   -0.49225  -0.48958  -0.48707  -0.48547  -0.48276
 Alpha  occ. eigenvalues --   -0.48147  -0.47572  -0.47139  -0.46712  -0.46291
 Alpha  occ. eigenvalues --   -0.45673  -0.45336  -0.45103  -0.44869  -0.44788
 Alpha  occ. eigenvalues --   -0.44222  -0.44108  -0.44028  -0.43737  -0.43621
 Alpha  occ. eigenvalues --   -0.43343  -0.43123  -0.42843  -0.42147  -0.42109
 Alpha  occ. eigenvalues --   -0.41832  -0.41684  -0.41081  -0.40737  -0.40551
 Alpha  occ. eigenvalues --   -0.40411  -0.40143  -0.39795  -0.39583  -0.39183
 Alpha  occ. eigenvalues --   -0.39080  -0.38684  -0.38444  -0.37835  -0.37706
 Alpha  occ. eigenvalues --   -0.37180  -0.37057  -0.36397  -0.36272  -0.35790
 Alpha  occ. eigenvalues --   -0.34580  -0.33823  -0.33173  -0.32053  -0.31912
 Alpha  occ. eigenvalues --   -0.31078  -0.29960  -0.29048  -0.26625  -0.24076
 Alpha  occ. eigenvalues --   -0.18681
 Alpha virt. eigenvalues --   -0.06866  -0.01027   0.02624   0.05705   0.06864
 Alpha virt. eigenvalues --    0.09256   0.10842   0.11690   0.12222   0.12390
 Alpha virt. eigenvalues --    0.12816   0.13154   0.13329   0.13965   0.14128

 Mulliken charges:
               1
     1  O   -0.551034
     2  O   -0.564630
     3  C    0.001600
     4  C   -0.093901
     5  C   -0.171466
     6  C    0.129376
     7  C    0.106576
     8  C   -0.041328
     9  C   -0.298962
    10  C   -0.281810
    11  C   -0.198743
    12  C   -0.176376
    13  C    0.194139
    14  C    0.074394
    15  C   -0.105096
    16  C   -0.221126
    17  C    0.064089
    18  C   -0.297267
    19  C   -0.299865
    20  C   -0.357884
    21  C   -0.081813
    22  C   -0.097442
    23  C   -0.372525
    24  C    0.106750
    25  C   -0.128152
    26  C   -0.360539
    27  C    0.057164
    28  C   -0.150144
    29  C   -0.334689
    30  C   -0.101188
    31  C   -0.054640
    32  C   -0.108229
    33  C   -0.133146
    34  C    0.035465
    35  C   -0.100542
    36  C    0.056303
    37  C   -0.376102
    38  C   -0.056091
    39  C   -0.086306
    40  C   -0.347776
    41  C   -0.080528
    42  C   -0.122701
    43  H    0.094292
    44  H    0.112882
    45  H    0.098110
    46  H    0.097005
    47  H    0.107611
    48  H    0.089861
    49  H    0.096460
    50  H    0.122423
    51  H    0.106619
    52  H    0.049637
    53  H    0.094816
    54  H    0.094290
    55  H    0.076392
    56  H    0.066891
    57  H    0.089477
    58  H    0.093046
    59  H    0.115430
    60  H    0.100276
    61  H    0.098403
    62  H    0.071488
    63  H    0.102284
    64  H    0.098774
    65  H    0.108852
    66  H    0.132691
    67  H    0.106039
    68  H    0.110865
    69  H    0.308122
    70  H    0.094905
    71  H    0.075503
    72  H    0.115166
    73  H    0.103451
    74  H    0.118437
    75  H    0.300624
    76  H    0.081508
    77  H    0.117671
    78  H    0.087857
    79  H    0.110031
    80  H    0.075629
    81  H    0.143595
    82  H    0.079071
    83  H    0.114274
    84  H    0.081982
    85  H    0.089804
    86  H    0.072899
    87  H    0.096588
    88  H    0.080317
    89  H    0.117880
    90  H    0.130901
    91  H    0.113595
    92  H    0.063077
    93  H    0.080788
    94  H    0.144171
    95  H    0.093214
    96  H    0.122011
    97  H    0.082305
    98  H    0.095897
 Sum of Mulliken charges =  -0.00000

 Dipole moment (field-independent basis, Debye):
    X=             -0.1165    Y=             -0.8063    Z=             -0.1116  Tot=              0.8223
 Quadrupole moment (field-independent basis, Debye-Ang):
   XX=           -287.1367   YY=           -244.4588   ZZ=           -261.8137
   XY=             12.5068   XZ=             35.3901   YZ=              1.5501

 Normal termination of Gaussian 16 at Tue Jul 16 15:27:17 2019.
