 Gaussian 16, Revision A.03,
 Gaussian 16:  ES64L-G16RevA.03 25-Dec-2016

 -------------------------------------
 # td=(NStates=1) CAM-B3LYP/6-31G(d,p)
 -------------------------------------

 --
 TD
 --
 Symbolic Z-matrix:
 Charge =  0 Multiplicity = 1

                         Standard orientation:
 ---------------------------------------------------------------------
 Center     Atomic      Atomic             Coordinates (Angstroms)
 Number     Number       Type             X           Y           Z
 ---------------------------------------------------------------------
      1          8           0      -14.060377   -2.071870    0.347203
      2          8           0       14.820790    1.035160   -0.194943
      3          6           0      -11.703773    0.056192    1.283509
      4          6           0      -11.065732    0.289381    0.062507
      5          6           0      -12.003149   -1.519689    1.283258
      6          6           0      -12.622079   -2.087437    0.130909
      7          6           0      -11.601409   -0.366321   -1.365130
      8          6           0       11.137429    0.945873    0.983365
      9          6           0      -10.932181    0.413604    2.517395
     10          6           0      -13.054799    0.908525    1.259440
     11          6           0       12.586606    1.475117    0.611410
     12          6           0      -12.335958   -1.380872   -1.178284
     13          6           0       13.503519    0.390956    0.158274
     14          6           0       10.737975   -0.120549   -0.064204
     15          6           0       -9.516937   -0.110443    0.009131
     16          6           0       12.972842   -0.224543   -1.101619
     17          6           0       11.518937   -0.605740   -1.024304
     18          6           0       10.176210    2.166725    1.126928
     19          6           0       11.279575    0.273107    2.368613
     20          6           0      -11.282725    0.356301   -2.571681
     21          6           0       -8.506869    0.758986   -0.236454
     22          6           0        9.282701   -0.506884    0.092517
     23          6           0       11.023331   -1.497678   -2.095455
     24          6           0       -7.062744    0.446824   -0.197984
     25          6           0        8.805206   -1.684232   -0.039507
     26          6           0       -6.744950   -1.057839   -0.009052
     27          6           0        7.329176   -2.074674    0.092810
     28          6           0       -6.152373    1.399300   -0.259341
     29          6           0        7.111011   -3.589790    0.334926
     30          6           0        6.371216   -1.148247   -0.068776
     31          6           0       -4.746418    1.264329   -0.327160
     32          6           0        5.038689   -1.502766   -0.011598
     33          6           0       -3.984754    2.443382   -0.602754
     34          6           0       -2.593938    2.678912   -0.418138
     35          6           0        3.959748   -0.505327   -0.151179
     36          6           0        2.562492   -0.737990   -0.016762
     37          6           0       -2.009513    4.006007   -0.902535
     38          6           0       -1.788880    1.572007   -0.236028
     39          6           0        1.756671    0.389497   -0.095763
     40          6           0        2.000034   -2.172972    0.094346
     41          6           0       -0.395650    1.534220   -0.312811
     42          6           0        0.376576    0.459732   -0.035606
     43          1           0      -11.030665    1.475750    0.017094
     44          1           0      -12.689329   -1.927459    2.054706
     45          1           0      -11.013636   -1.897830    1.360377
     46          1           0      -12.130744   -3.236776    0.051657
     47          1           0      -10.000273   -0.002132    2.656489
     48          1           0      -10.812499    1.549359    2.449852
     49          1           0      -11.595527    0.254413    3.345337
     50          1           0      -13.831565    0.689541    0.402565
     51          1           0      -13.850117    0.635100    2.050836
     52          1           0      -12.828984    2.025024    1.281865
     53          1           0       12.367493    2.245791   -0.050939
     54          1           0       12.950420    2.214012    1.408870
     55          1           0      -12.682909   -1.802417   -2.206097
     56          1           0       13.642658   -0.425906    1.120726
     57          1           0       -9.358861   -1.336387    0.212785
     58          1           0       13.495292   -1.166961   -1.291110
     59          1           0       13.247623    0.392465   -1.960996
     60          1           0        9.085678    2.074772    1.554860
     61          1           0       10.011345    2.493901    0.194317
     62          1           0       10.816193    2.973590    1.849493
     63          1           0       12.058908   -0.553852    2.395082
     64          1           0       10.396377   -0.289504    2.726717
     65          1           0       11.698878    1.163896    2.880625
     66          1           0      -10.146244    0.519507   -2.802174
     67          1           0      -11.620258    1.393819   -2.677802
     68          1           0      -11.542323   -0.159030   -3.459163
     69          1           0      -14.575069   -2.250623   -0.439564
     70          1           0        8.598340    0.334859    0.629578
     71          1           0       -8.952100    1.774500   -0.536039
     72          1           0       11.472209   -2.474680   -2.036184
     73          1           0        9.997510   -1.589450   -2.157509
     74          1           0       11.266514   -1.168607   -3.116252
     75          1           0       15.224879    1.366978    0.704029
     76          1           0        9.567490   -2.458412   -0.267006
     77          1           0       -5.780044   -1.373972   -0.155254
     78          1           0       -7.196276   -1.443833    0.898922
     79          1           0       -7.511624   -1.431244   -0.785363
     80          1           0       -6.616729    2.330206   -0.386903
     81          1           0        6.781390   -3.698034    1.380252
     82          1           0        6.482580   -4.025455   -0.300160
     83          1           0        7.912118   -4.145318    0.073645
     84          1           0        6.630007   -0.067935   -0.235788
     85          1           0       -4.350756    0.354982   -0.107776
     86          1           0        4.697858   -2.457250    0.344900
     87          1           0       -4.693085    3.362440   -0.687601
     88          1           0        4.267037    0.530165   -0.338392
     89          1           0       -1.364445    3.727180   -1.830347
     90          1           0       -1.458673    4.670692   -0.118585
     91          1           0       -2.708681    4.798060   -1.458178
     92          1           0       -2.391073    0.747281   -0.007834
     93          1           0        2.188578    1.350019   -0.242583
     94          1           0        2.048842   -2.536491    1.286334
     95          1           0        0.807123   -2.252706   -0.347801
     96          1           0        2.673988   -2.893918   -0.541007
     97          1           0       -0.008763    2.465362   -0.677991
     98          1           0       -0.280051   -0.563726    0.149124
 ---------------------------------------------------------------------

 SCF Done:  E(RCAM-B3LYP) =  -1706.96808861     A.U. after   15 cycles

 Excitation energies and oscillator strengths:

 Excited State   1:      Singlet-A      2.1677 eV  571.95 nm  f=2.9267  <S**2>=0.000
     155 ->158        -0.13919
     156 ->157         0.69518
 This state for optimization and/or second-order correction.
 Total Energy, E(TD-HF/TD-DFT) =  -1706.88842612
 Copying the excited state density for this state as the 1-particle RhoCI density.

 The electronic state is 1-A.
 Alpha  occ. eigenvalues --  -19.21525 -19.21213 -10.32422 -10.32147 -10.29771
 Alpha  occ. eigenvalues --  -10.27985 -10.27832 -10.27742 -10.27616 -10.27577
 Alpha  occ. eigenvalues --  -10.27219 -10.27112 -10.27070 -10.27026 -10.26927
 Alpha  occ. eigenvalues --  -10.26727 -10.26713 -10.26668 -10.26578 -10.26572
 Alpha  occ. eigenvalues --  -10.26545 -10.26306 -10.25972 -10.25884 -10.25848
 Alpha  occ. eigenvalues --  -10.25797 -10.25695 -10.25605 -10.25579 -10.25430
 Alpha  occ. eigenvalues --  -10.25398 -10.25343 -10.25079 -10.25045 -10.24980
 Alpha  occ. eigenvalues --  -10.24939 -10.24687 -10.24303 -10.24191 -10.24052
 Alpha  occ. eigenvalues --  -10.23939 -10.23660  -1.08796  -1.05805  -0.94190
 Alpha  occ. eigenvalues --   -0.93663  -0.92103  -0.91327  -0.90645  -0.89666
 Alpha  occ. eigenvalues --   -0.87964  -0.87511  -0.86632  -0.85580  -0.84651
 Alpha  occ. eigenvalues --   -0.83340  -0.82140  -0.80929  -0.79947  -0.78013
 Alpha  occ. eigenvalues --   -0.77148  -0.76908  -0.76385  -0.76065  -0.75735
 Alpha  occ. eigenvalues --   -0.75710  -0.75014  -0.74005  -0.72954  -0.70468
 Alpha  occ. eigenvalues --   -0.68179  -0.67105  -0.66330  -0.64494  -0.63755
 Alpha  occ. eigenvalues --   -0.63417  -0.62046  -0.61694  -0.60317  -0.59825
 Alpha  occ. eigenvalues --   -0.59078  -0.58121  -0.57685  -0.57592  -0.56072
 Alpha  occ. eigenvalues --   -0.55638  -0.55083  -0.54523  -0.53913  -0.53455
 Alpha  occ. eigenvalues --   -0.53098  -0.52377  -0.52073  -0.51251  -0.51114
 Alpha  occ. eigenvalues --   -0.50956  -0.50514  -0.50173  -0.49322  -0.49082
 Alpha  occ. eigenvalues --   -0.48783  -0.48035  -0.47951  -0.47831  -0.47692
 Alpha  occ. eigenvalues --   -0.47353  -0.47024  -0.46741  -0.46654  -0.46553
 Alpha  occ. eigenvalues --   -0.45944  -0.45282  -0.45156  -0.44977  -0.44917
 Alpha  occ. eigenvalues --   -0.44530  -0.44315  -0.44063  -0.43597  -0.43094
 Alpha  occ. eigenvalues --   -0.42789  -0.42489  -0.42314  -0.42222  -0.42093
 Alpha  occ. eigenvalues --   -0.41207  -0.41106  -0.40955  -0.40699  -0.40395
 Alpha  occ. eigenvalues --   -0.40188  -0.40038  -0.39924  -0.39783  -0.39304
 Alpha  occ. eigenvalues --   -0.39061  -0.38701  -0.38658  -0.38431  -0.38106
 Alpha  occ. eigenvalues --   -0.37864  -0.37179  -0.36302  -0.36120  -0.35257
 Alpha  occ. eigenvalues --   -0.34769  -0.34612  -0.33906  -0.32218  -0.31992
 Alpha  occ. eigenvalues --   -0.31868  -0.30684  -0.29117  -0.27282  -0.23839
 Alpha  occ. eigenvalues --   -0.19315
 Alpha virt. eigenvalues --   -0.05814  -0.00271   0.03686   0.06105   0.07766
 Alpha virt. eigenvalues --    0.09290   0.10722   0.11224   0.11466   0.11527
 Alpha virt. eigenvalues --    0.12061   0.12834   0.13241   0.13683   0.14323

 Mulliken charges:
               1
     1  O   -0.560252
     2  O   -0.576842
     3  C    0.026437
     4  C   -0.135905
     5  C   -0.187140
     6  C    0.174304
     7  C    0.185071
     8  C   -0.043991
     9  C   -0.287427
    10  C   -0.310533
    11  C   -0.180885
    12  C   -0.153464
    13  C    0.163295
    14  C    0.054376
    15  C   -0.093900
    16  C   -0.214435
    17  C    0.053763
    18  C   -0.297117
    19  C   -0.269069
    20  C   -0.386577
    21  C   -0.113462
    22  C   -0.090521
    23  C   -0.382038
    24  C    0.097811
    25  C   -0.121780
    26  C   -0.366180
    27  C    0.045769
    28  C   -0.116269
    29  C   -0.361396
    30  C   -0.088161
    31  C   -0.061073
    32  C   -0.105197
    33  C   -0.139152
    34  C    0.086898
    35  C   -0.133649
    36  C    0.128883
    37  C   -0.378007
    38  C   -0.086315
    39  C   -0.123811
    40  C   -0.349613
    41  C   -0.077832
    42  C   -0.076805
    43  H    0.062906
    44  H    0.118594
    45  H    0.095272
    46  H    0.054177
    47  H    0.115493
    48  H    0.085019
    49  H    0.111549
    50  H    0.102515
    51  H    0.095417
    52  H    0.088176
    53  H    0.112123
    54  H    0.066726
    55  H    0.055303
    56  H    0.063876
    57  H    0.069614
    58  H    0.109579
    59  H    0.131920
    60  H    0.100359
    61  H    0.126515
    62  H    0.072967
    63  H    0.084303
    64  H    0.105521
    65  H    0.092612
    66  H    0.110929
    67  H    0.126567
    68  H    0.114075
    69  H    0.308437
    70  H    0.070368
    71  H    0.085640
    72  H    0.112522
    73  H    0.132238
    74  H    0.106063
    75  H    0.306722
    76  H    0.092431
    77  H    0.110742
    78  H    0.124718
    79  H    0.112494
    80  H    0.069905
    81  H    0.127611
    82  H    0.126520
    83  H    0.114389
    84  H    0.090437
    85  H    0.084479
    86  H    0.089521
    87  H    0.079368
    88  H    0.080599
    89  H    0.119912
    90  H    0.116072
    91  H    0.099610
    92  H    0.072024
    93  H    0.084162
    94  H    0.104638
    95  H    0.095468
    96  H    0.115739
    97  H    0.083085
    98  H    0.064171
 Sum of Mulliken charges =  -0.00000

 Dipole moment (field-independent basis, Debye):
    X=              0.2924    Y=             -0.8005    Z=             -0.6743  Tot=              1.0867
 Quadrupole moment (field-independent basis, Debye-Ang):
   XX=           -274.5065   YY=           -244.1734   ZZ=           -262.1469
   XY=             -3.7425   XZ=             34.7310   YZ=              1.5895

 Normal termination of Gaussian 16 at Mon Jul 15 04:34:18 2019.
