 Gaussian 16, Revision A.03,
 Gaussian 16:  ES64L-G16RevA.03 25-Dec-2016

 -------------------------------------
 # td=(NStates=1) CAM-B3LYP/6-31G(d,p)
 -------------------------------------

 --
 TD
 --
 Symbolic Z-matrix:
 Charge =  0 Multiplicity = 1

                         Standard orientation:
 ---------------------------------------------------------------------
 Center     Atomic      Atomic             Coordinates (Angstroms)
 Number     Number       Type             X           Y           Z
 ---------------------------------------------------------------------
      1          8           0      -13.888774   -2.162983    0.546927
      2          8           0       14.792311    1.145979    0.392297
      3          6           0      -11.708833    0.032462    1.360543
      4          6           0      -10.961414    0.333223    0.001990
      5          6           0      -11.708394   -1.485290    1.392421
      6          6           0      -12.497961   -2.124125    0.211265
      7          6           0      -11.625557   -0.169642   -1.194645
      8          6           0       11.005945    0.952062    1.142680
      9          6           0      -10.901483    0.500103    2.620003
     10          6           0      -13.123624    0.753236    1.324594
     11          6           0       12.448792    1.484466    0.998328
     12          6           0      -12.209190   -1.389871   -1.062045
     13          6           0       13.432625    0.449336    0.548226
     14          6           0       10.695119   -0.028375    0.023011
     15          6           0       -9.505691   -0.022352    0.004941
     16          6           0       13.034393    0.002864   -0.873519
     17          6           0       11.541412   -0.449177   -0.914591
     18          6           0       10.002014    2.117461    1.150578
     19          6           0       10.952294    0.174070    2.500567
     20          6           0      -11.346917    0.382287   -2.528218
     21          6           0       -8.425018    0.841668    0.006604
     22          6           0        9.285668   -0.470340   -0.012865
     23          6           0       11.161733   -1.269209   -2.063703
     24          6           0       -7.074363    0.515184   -0.034628
     25          6           0        8.828032   -1.735814   -0.194773
     26          6           0       -6.632645   -0.912071    0.085662
     27          6           0        7.395677   -2.206128   -0.285386
     28          6           0       -6.189363    1.525428   -0.334264
     29          6           0        7.129905   -3.705972   -0.150269
     30          6           0        6.316277   -1.351847   -0.298025
     31          6           0       -4.797557    1.496791   -0.391035
     32          6           0        4.925295   -1.558215   -0.216458
     33          6           0       -3.996055    2.626878   -0.571459
     34          6           0       -2.645667    2.631214   -0.747504
     35          6           0        3.883212   -0.667603   -0.334620
     36          6           0        2.548745   -0.937471   -0.245191
     37          6           0       -1.897765    3.965838   -1.044435
     38          6           0       -1.852354    1.526268   -0.645101
     39          6           0        1.638148    0.231081   -0.645472
     40          6           0        1.979219   -2.188204    0.250605
     41          6           0       -0.392122    1.460943   -0.671576
     42          6           0        0.305455    0.319180   -0.501145
     43          1           0      -11.039398    1.498498   -0.080775
     44          1           0      -12.394157   -1.751056    2.326469
     45          1           0      -10.783970   -1.981875    1.522962
     46          1           0      -12.080772   -3.101548    0.233486
     47          1           0       -9.818090   -0.186521    2.612044
     48          1           0      -10.734568    1.534735    2.563222
     49          1           0      -11.324653    0.137343    3.493289
     50          1           0      -13.527332    0.530372    0.316757
     51          1           0      -14.002468    0.200170    2.050047
     52          1           0      -12.922909    1.758758    1.560015
     53          1           0       12.443277    2.315531    0.185358
     54          1           0       12.738756    1.965738    1.949207
     55          1           0      -12.645869   -1.928455   -1.974422
     56          1           0       13.554833   -0.443585    1.194706
     57          1           0       -9.419614   -1.147966   -0.014528
     58          1           0       13.653258   -0.681965   -1.290379
     59          1           0       13.164026    0.780534   -1.573172
     60          1           0        9.032607    1.503045    1.486526
     61          1           0        9.908203    2.345422    0.135481
     62          1           0       10.497588    2.888221    1.599042
     63          1           0       11.543597   -0.780289    2.610503
     64          1           0        9.946462   -0.056978    3.004520
     65          1           0       11.404451    0.820483    3.201604
     66          1           0      -10.352107    0.378399   -2.690878
     67          1           0      -11.705740    1.434356   -2.413507
     68          1           0      -11.944149   -0.027983   -3.292457
     69          1           0      -14.270413   -2.921416   -0.145025
     70          1           0        8.806608    0.347487    0.553844
     71          1           0       -8.601395    1.787491    0.057779
     72          1           0       11.669006   -2.359593   -2.030378
     73          1           0       10.178978   -1.454887   -2.232947
     74          1           0       11.743640   -0.955041   -2.965771
     75          1           0       14.836222    1.748571    1.215448
     76          1           0        9.402356   -2.492325   -0.197199
     77          1           0       -5.386934   -1.027430    0.057285
     78          1           0       -6.858139   -1.342556    1.154138
     79          1           0       -6.992945   -1.679834   -0.681561
     80          1           0       -6.654701    2.458265   -0.224623
     81          1           0        7.380460   -3.998067    0.971973
     82          1           0        6.028508   -3.872643   -0.592271
     83          1           0        7.751479   -4.443353   -0.644454
     84          1           0        6.393735   -0.194802   -0.395250
     85          1           0       -4.249168    0.520271   -0.176377
     86          1           0        4.717003   -2.662102   -0.207905
     87          1           0       -4.584279    3.541412   -0.662524
     88          1           0        4.261235    0.406288   -0.285689
     89          1           0       -1.269944    3.871649   -1.959633
     90          1           0       -1.438223    4.027126   -0.005458
     91          1           0       -2.516216    4.890165   -1.153740
     92          1           0       -2.343813    0.833117   -0.325416
     93          1           0        2.439566    1.141339   -0.944516
     94          1           0        2.221267   -2.524401    1.165812
     95          1           0        0.922821   -2.187047    0.504018
     96          1           0        2.252175   -2.983750   -0.652359
     97          1           0        0.018346    2.319972   -0.931513
     98          1           0       -0.384699   -0.563291   -0.461136
 ---------------------------------------------------------------------

 SCF Done:  E(RCAM-B3LYP) =  -1706.90476764     A.U. after   16 cycles

 Excitation energies and oscillator strengths:

 Excited State   1:      Singlet-A      1.9042 eV  651.11 nm  f=3.0828  <S**2>=0.000
     155 ->158        -0.13724
     156 ->157         0.69769
     156 <-157        -0.10661
 This state for optimization and/or second-order correction.
 Total Energy, E(TD-HF/TD-DFT) =  -1706.83478991
 Copying the excited state density for this state as the 1-particle RhoCI density.

 The electronic state is 1-A.
 Alpha  occ. eigenvalues --  -19.22240 -19.20932 -10.31189 -10.29763 -10.28053
 Alpha  occ. eigenvalues --  -10.28043 -10.27977 -10.27903 -10.27867 -10.27422
 Alpha  occ. eigenvalues --  -10.27045 -10.26833 -10.26787 -10.26749 -10.26523
 Alpha  occ. eigenvalues --  -10.26517 -10.26446 -10.26378 -10.26327 -10.26264
 Alpha  occ. eigenvalues --  -10.26166 -10.26120 -10.26018 -10.26013 -10.25995
 Alpha  occ. eigenvalues --  -10.25963 -10.25833 -10.25560 -10.25414 -10.25213
 Alpha  occ. eigenvalues --  -10.25190 -10.25159 -10.25080 -10.25074 -10.25060
 Alpha  occ. eigenvalues --  -10.24924 -10.24828 -10.24601 -10.24495 -10.24347
 Alpha  occ. eigenvalues --  -10.24050 -10.23409  -1.07439  -1.05239  -0.94280
 Alpha  occ. eigenvalues --   -0.93876  -0.92723  -0.91660  -0.91043  -0.89574
 Alpha  occ. eigenvalues --   -0.87935  -0.87487  -0.86690  -0.85524  -0.84725
 Alpha  occ. eigenvalues --   -0.82689  -0.82031  -0.80395  -0.80098  -0.78267
 Alpha  occ. eigenvalues --   -0.77457  -0.76829  -0.76753  -0.76312  -0.76169
 Alpha  occ. eigenvalues --   -0.75889  -0.75100  -0.74176  -0.72739  -0.70521
 Alpha  occ. eigenvalues --   -0.69386  -0.67921  -0.66574  -0.65885  -0.64456
 Alpha  occ. eigenvalues --   -0.63659  -0.63016  -0.62480  -0.60775  -0.60191
 Alpha  occ. eigenvalues --   -0.59798  -0.58207  -0.57572  -0.57273  -0.56451
 Alpha  occ. eigenvalues --   -0.55968  -0.55073  -0.54670  -0.54164  -0.53694
 Alpha  occ. eigenvalues --   -0.53118  -0.52948  -0.52584  -0.52449  -0.51132
 Alpha  occ. eigenvalues --   -0.50835  -0.50328  -0.50023  -0.49927  -0.49245
 Alpha  occ. eigenvalues --   -0.48847  -0.48805  -0.48456  -0.48166  -0.48051
 Alpha  occ. eigenvalues --   -0.47841  -0.47399  -0.47292  -0.47195  -0.46911
 Alpha  occ. eigenvalues --   -0.46669  -0.46578  -0.45758  -0.45510  -0.44859
 Alpha  occ. eigenvalues --   -0.44466  -0.44253  -0.43846  -0.43355  -0.43163
 Alpha  occ. eigenvalues --   -0.43135  -0.42836  -0.42645  -0.42177  -0.41872
 Alpha  occ. eigenvalues --   -0.41740  -0.41562  -0.41517  -0.41183  -0.41069
 Alpha  occ. eigenvalues --   -0.40491  -0.40020  -0.39675  -0.39342  -0.39189
 Alpha  occ. eigenvalues --   -0.38957  -0.38727  -0.38475  -0.37753  -0.37470
 Alpha  occ. eigenvalues --   -0.37093  -0.36410  -0.36284  -0.35934  -0.35790
 Alpha  occ. eigenvalues --   -0.34593  -0.34073  -0.33735  -0.32817  -0.32475
 Alpha  occ. eigenvalues --   -0.31249  -0.29450  -0.28875  -0.26364  -0.23470
 Alpha  occ. eigenvalues --   -0.18543
 Alpha virt. eigenvalues --   -0.06564  -0.01533   0.02353   0.05464   0.07110
 Alpha virt. eigenvalues --    0.08820   0.10204   0.11171   0.11993   0.12278
 Alpha virt. eigenvalues --    0.12339   0.12444   0.12835   0.13182   0.13637

 Mulliken charges:
               1
     1  O   -0.540725
     2  O   -0.580848
     3  C    0.032526
     4  C   -0.155341
     5  C   -0.201675
     6  C    0.131038
     7  C    0.107470
     8  C   -0.053761
     9  C   -0.282671
    10  C   -0.293650
    11  C   -0.213334
    12  C   -0.114676
    13  C    0.158676
    14  C    0.061365
    15  C   -0.074710
    16  C   -0.217882
    17  C    0.069937
    18  C   -0.295874
    19  C   -0.304425
    20  C   -0.339935
    21  C   -0.077647
    22  C   -0.083638
    23  C   -0.368447
    24  C    0.146931
    25  C   -0.073116
    26  C   -0.370735
    27  C    0.057033
    28  C   -0.132821
    29  C   -0.367288
    30  C   -0.102449
    31  C   -0.070026
    32  C   -0.082761
    33  C   -0.129592
    34  C    0.068052
    35  C   -0.124891
    36  C    0.107264
    37  C   -0.369630
    38  C   -0.063587
    39  C   -0.125622
    40  C   -0.356289
    41  C   -0.055182
    42  C   -0.083757
    43  H    0.057713
    44  H    0.089639
    45  H    0.101821
    46  H    0.084025
    47  H    0.057797
    48  H    0.099276
    49  H    0.116696
    50  H    0.120762
    51  H    0.085863
    52  H    0.102994
    53  H    0.100898
    54  H    0.081858
    55  H    0.051695
    56  H    0.099583
    57  H    0.082173
    58  H    0.111272
    59  H    0.125354
    60  H    0.109299
    61  H    0.124511
    62  H    0.112728
    63  H    0.104011
    64  H    0.097185
    65  H    0.101128
    66  H    0.136605
    67  H    0.101998
    68  H    0.116839
    69  H    0.302709
    70  H    0.059923
    71  H    0.064429
    72  H    0.085004
    73  H    0.132866
    74  H    0.104741
    75  H    0.300870
    76  H    0.071080
    77  H    0.077313
    78  H    0.110918
    79  H    0.120870
    80  H    0.079310
    81  H    0.112261
    82  H    0.105799
    83  H    0.119721
    84  H    0.063811
    85  H    0.086882
    86  H    0.059593
    87  H    0.083251
    88  H    0.084752
    89  H    0.127290
    90  H    0.130656
    91  H    0.101117
    92  H    0.023177
    93  H    0.072608
    94  H    0.135016
    95  H    0.109109
    96  H    0.100395
    97  H    0.072122
    98  H    0.095372
 Sum of Mulliken charges =  -0.00000

 Dipole moment (field-independent basis, Debye):
    X=             -0.1418    Y=             -1.0038    Z=              0.4403  Tot=              1.1052
 Quadrupole moment (field-independent basis, Debye-Ang):
   XX=           -293.8811   YY=           -238.4879   ZZ=           -260.5372
   XY=             10.6366   XZ=             33.2833   YZ=              3.8613

 Normal termination of Gaussian 16 at Tue Jul 16 11:48:32 2019.
