 Gaussian 16, Revision A.03,
 Gaussian 16:  ES64L-G16RevA.03 25-Dec-2016

 -------------------------------------
 # td=(NStates=1) CAM-B3LYP/6-31G(d,p)
 -------------------------------------

 --
 TD
 --
 Symbolic Z-matrix:
 Charge =  0 Multiplicity = 1

                         Standard orientation:
 ---------------------------------------------------------------------
 Center     Atomic      Atomic             Coordinates (Angstroms)
 Number     Number       Type             X           Y           Z
 ---------------------------------------------------------------------
      1          8           0      -14.188418   -1.874895    0.523666
      2          8           0       14.891033    0.911472    0.375172
      3          6           0      -11.801712    0.151189    1.334978
      4          6           0      -10.929991    0.270313    0.019204
      5          6           0      -12.086367   -1.307505    1.538354
      6          6           0      -12.802801   -2.023310    0.491403
      7          6           0      -11.676023   -0.480590   -1.146855
      8          6           0       10.985485    0.994307    1.122229
      9          6           0      -11.065108    0.636205    2.600963
     10          6           0      -13.068747    0.920466    1.200963
     11          6           0       12.489736    1.511529    0.955261
     12          6           0      -12.341462   -1.546811   -0.934982
     13          6           0       13.517964    0.484531    0.578103
     14          6           0       10.712363    0.051997    0.065094
     15          6           0       -9.552598   -0.137360    0.113694
     16          6           0       13.164447   -0.211831   -0.732122
     17          6           0       11.639819   -0.458897   -0.840884
     18          6           0       10.067292    2.261658    1.023936
     19          6           0       10.915587    0.329937    2.505833
     20          6           0      -11.352939    0.201869   -2.464786
     21          6           0       -8.477598    0.696611   -0.116870
     22          6           0        9.354421   -0.412681   -0.010876
     23          6           0       11.301504   -1.302759   -2.083354
     24          6           0       -7.073360    0.422015   -0.155998
     25          6           0        8.829702   -1.743229   -0.045248
     26          6           0       -6.617394   -0.948471    0.168342
     27          6           0        7.434679   -2.152362   -0.043437
     28          6           0       -6.207895    1.419901   -0.345486
     29          6           0        7.181736   -3.620741    0.045915
     30          6           0        6.373321   -1.178769   -0.323950
     31          6           0       -4.817938    1.304535   -0.426133
     32          6           0        4.984561   -1.543832   -0.064252
     33          6           0       -4.045093    2.328232   -0.659728
     34          6           0       -2.570803    2.496714   -0.854265
     35          6           0        4.056986   -0.551155   -0.449826
     36          6           0        2.707169   -0.789674   -0.382370
     37          6           0       -2.011596    3.896364   -1.143253
     38          6           0       -1.697079    1.409342   -0.681364
     39          6           0        1.889570    0.316542   -0.588015
     40          6           0        2.069910   -2.146076    0.014901
     41          6           0       -0.285027    1.393001   -0.780828
     42          6           0        0.481355    0.337244   -0.606772
     43          1           0      -10.927354    1.346302   -0.177592
     44          1           0      -12.558035   -1.379849    2.653050
     45          1           0      -11.062893   -1.700832    1.647338
     46          1           0      -12.685266   -3.092121    0.443622
     47          1           0      -10.114389    0.104443    2.931921
     48          1           0      -10.796191    1.807904    2.687810
     49          1           0      -11.756723    0.448343    3.513077
     50          1           0      -13.601568    0.714127    0.141906
     51          1           0      -13.868106    0.592244    2.020078
     52          1           0      -13.082090    1.895509    1.181020
     53          1           0       12.566252    2.364711    0.029979
     54          1           0       12.762864    2.061318    1.884370
     55          1           0      -12.856093   -2.075021   -1.746591
     56          1           0       13.343702   -0.187548    1.434972
     57          1           0       -9.374902   -1.269035    0.039260
     58          1           0       13.561176   -1.199226   -0.823713
     59          1           0       13.528661    0.430697   -1.714708
     60          1           0        8.956690    1.950919    1.518893
     61          1           0        9.765874    2.621324    0.083976
     62          1           0       10.365272    2.976575    1.761447
     63          1           0       11.622506   -0.421184    2.813581
     64          1           0        9.921647   -0.254837    2.502208
     65          1           0       10.873625    1.303129    3.296878
     66          1           0      -10.320314    0.024785   -2.764024
     67          1           0      -11.569070    1.215251   -2.440234
     68          1           0      -12.071678   -0.243802   -3.280734
     69          1           0      -14.406618   -1.769077   -0.389638
     70          1           0        8.519589    0.282244    0.393545
     71          1           0       -8.814113    1.706773   -0.390336
     72          1           0       11.519840   -2.367785   -1.710045
     73          1           0       10.045076   -1.440399   -2.257161
     74          1           0       11.807698   -1.181839   -3.122902
     75          1           0       15.223974    1.357944    1.206670
     76          1           0        9.443558   -2.577996   -0.124653
     77          1           0       -5.522400   -1.120051    0.355540
     78          1           0       -7.270256   -1.291302    0.951609
     79          1           0       -6.880370   -1.660028   -0.810088
     80          1           0       -6.541517    2.560245   -0.452424
     81          1           0        6.869333   -3.893623    1.058930
     82          1           0        6.375584   -3.969575   -0.482212
     83          1           0        7.923722   -4.102127   -0.402427
     84          1           0        6.725822   -0.180496   -0.606615
     85          1           0       -4.357459    0.145728   -0.345235
     86          1           0        4.630086   -2.501271    0.324381
     87          1           0       -4.627486    3.250198   -0.895938
     88          1           0        4.418571    0.447205   -0.814392
     89          1           0       -1.560840    3.772868   -2.063955
     90          1           0       -1.187463    4.090339   -0.457023
     91          1           0       -2.847991    4.464623   -1.240626
     92          1           0       -2.169883    0.426260   -0.423704
     93          1           0        2.245093    1.355972   -0.753989
     94          1           0        2.325303   -2.150518    1.244647
     95          1           0        1.097951   -2.446235   -0.378800
     96          1           0        2.777568   -2.984365   -0.463215
     97          1           0        0.026781    2.398926   -0.979838
     98          1           0       -0.090112   -0.620081   -0.183723
 ---------------------------------------------------------------------

 SCF Done:  E(RCAM-B3LYP) =  -1706.98340827     A.U. after   15 cycles

 Excitation energies and oscillator strengths:

 Excited State   1:      Singlet-A      2.1725 eV  570.71 nm  f=3.0429  <S**2>=0.000
     155 ->158         0.16632
     156 ->157         0.68562
 This state for optimization and/or second-order correction.
 Total Energy, E(TD-HF/TD-DFT) =  -1706.90357177
 Copying the excited state density for this state as the 1-particle RhoCI density.

 The electronic state is 1-A.
 Alpha  occ. eigenvalues --  -19.21883 -19.20166 -10.30688 -10.30066 -10.28869
 Alpha  occ. eigenvalues --  -10.28346 -10.27908 -10.27897 -10.27651 -10.27467
 Alpha  occ. eigenvalues --  -10.27276 -10.27012 -10.26821 -10.26819 -10.26742
 Alpha  occ. eigenvalues --  -10.26742 -10.26741 -10.26723 -10.26711 -10.26698
 Alpha  occ. eigenvalues --  -10.26560 -10.26519 -10.26457 -10.26431 -10.26424
 Alpha  occ. eigenvalues --  -10.26415 -10.26342 -10.26329 -10.26248 -10.26246
 Alpha  occ. eigenvalues --  -10.26127 -10.26062 -10.25991 -10.25946 -10.25854
 Alpha  occ. eigenvalues --  -10.25734 -10.25500 -10.25088 -10.25033 -10.24570
 Alpha  occ. eigenvalues --  -10.23748 -10.23688  -1.10784  -1.07976  -0.94186
 Alpha  occ. eigenvalues --   -0.93867  -0.92435  -0.91973  -0.90418  -0.89338
 Alpha  occ. eigenvalues --   -0.87759  -0.87354  -0.86186  -0.85659  -0.84573
 Alpha  occ. eigenvalues --   -0.83599  -0.82280  -0.80855  -0.79712  -0.78261
 Alpha  occ. eigenvalues --   -0.76560  -0.76462  -0.76382  -0.75908  -0.75587
 Alpha  occ. eigenvalues --   -0.75321  -0.74555  -0.74294  -0.72820  -0.70094
 Alpha  occ. eigenvalues --   -0.69030  -0.67984  -0.66128  -0.64617  -0.64206
 Alpha  occ. eigenvalues --   -0.63124  -0.62610  -0.61570  -0.60539  -0.59437
 Alpha  occ. eigenvalues --   -0.59019  -0.58667  -0.58007  -0.57513  -0.56303
 Alpha  occ. eigenvalues --   -0.55642  -0.55434  -0.55028  -0.53891  -0.53610
 Alpha  occ. eigenvalues --   -0.53290  -0.53183  -0.52975  -0.51721  -0.50926
 Alpha  occ. eigenvalues --   -0.50694  -0.50493  -0.49913  -0.49665  -0.49111
 Alpha  occ. eigenvalues --   -0.48751  -0.48570  -0.48080  -0.48003  -0.47848
 Alpha  occ. eigenvalues --   -0.47604  -0.47412  -0.46949  -0.46668  -0.46457
 Alpha  occ. eigenvalues --   -0.46105  -0.45851  -0.45479  -0.45178  -0.44831
 Alpha  occ. eigenvalues --   -0.44609  -0.44408  -0.44171  -0.43699  -0.43522
 Alpha  occ. eigenvalues --   -0.43083  -0.42620  -0.42257  -0.41968  -0.41408
 Alpha  occ. eigenvalues --   -0.41150  -0.41081  -0.40698  -0.40534  -0.40515
 Alpha  occ. eigenvalues --   -0.40164  -0.39846  -0.39706  -0.39401  -0.39285
 Alpha  occ. eigenvalues --   -0.39030  -0.38573  -0.38506  -0.38178  -0.38107
 Alpha  occ. eigenvalues --   -0.37810  -0.37534  -0.37165  -0.36539  -0.35910
 Alpha  occ. eigenvalues --   -0.35481  -0.34488  -0.33332  -0.32300  -0.32140
 Alpha  occ. eigenvalues --   -0.31297  -0.30824  -0.28566  -0.26424  -0.23303
 Alpha  occ. eigenvalues --   -0.19329
 Alpha virt. eigenvalues --   -0.05562  -0.01335   0.02265   0.05833   0.07735
 Alpha virt. eigenvalues --    0.08790   0.10767   0.11262   0.11804   0.12238
 Alpha virt. eigenvalues --    0.12365   0.12598   0.12951   0.13457   0.13880

 Mulliken charges:
               1
     1  O   -0.535388
     2  O   -0.561552
     3  C    0.033505
     4  C   -0.150674
     5  C   -0.165800
     6  C    0.183847
     7  C    0.134889
     8  C   -0.021063
     9  C   -0.305062
    10  C   -0.275669
    11  C   -0.183611
    12  C   -0.218001
    13  C    0.179733
    14  C    0.100175
    15  C   -0.064193
    16  C   -0.197744
    17  C    0.039222
    18  C   -0.295380
    19  C   -0.289539
    20  C   -0.352827
    21  C   -0.114445
    22  C   -0.148021
    23  C   -0.359740
    24  C    0.130869
    25  C   -0.099386
    26  C   -0.364501
    27  C    0.050021
    28  C   -0.131430
    29  C   -0.368207
    30  C   -0.119697
    31  C   -0.027176
    32  C   -0.106069
    33  C   -0.136018
    34  C    0.039802
    35  C   -0.095265
    36  C    0.107203
    37  C   -0.363392
    38  C   -0.111189
    39  C   -0.128551
    40  C   -0.358308
    41  C   -0.057276
    42  C   -0.086433
    43  H    0.083049
    44  H    0.082087
    45  H    0.097084
    46  H    0.083468
    47  H    0.101263
    48  H    0.080432
    49  H    0.090062
    50  H    0.070502
    51  H    0.094309
    52  H    0.104854
    53  H    0.060048
    54  H    0.076900
    55  H    0.077113
    56  H    0.074328
    57  H    0.083779
    58  H    0.119862
    59  H    0.103367
    60  H    0.064790
    61  H    0.130828
    62  H    0.112482
    63  H    0.118454
    64  H    0.107291
    65  H    0.069722
    66  H    0.133802
    67  H    0.126161
    68  H    0.086050
    69  H    0.302037
    70  H    0.077586
    71  H    0.077436
    72  H    0.110040
    73  H    0.095756
    74  H    0.114478
    75  H    0.304507
    76  H    0.071374
    77  H    0.112479
    78  H    0.128752
    79  H    0.089266
    80  H    0.076778
    81  H    0.121545
    82  H    0.122164
    83  H    0.119751
    84  H    0.093602
    85  H    0.071038
    86  H    0.099211
    87  H    0.069062
    88  H    0.094776
    89  H    0.139324
    90  H    0.133304
    91  H    0.113713
    92  H    0.063931
    93  H    0.079862
    94  H    0.112227
    95  H    0.132692
    96  H    0.095675
    97  H    0.067220
    98  H    0.070664
 Sum of Mulliken charges =  -0.00000

 Dipole moment (field-independent basis, Debye):
    X=              1.3417    Y=              0.0480    Z=             -0.3566  Tot=              1.3892
 Quadrupole moment (field-independent basis, Debye-Ang):
   XX=           -301.5649   YY=           -245.1831   ZZ=           -261.2011
   XY=             -9.4407   XZ=             42.9622   YZ=              1.8074

 Normal termination of Gaussian 16 at Mon Jul 15 13:49:02 2019.
