 Gaussian 16, Revision A.03,
 Gaussian 16:  ES64L-G16RevA.03 25-Dec-2016

 -------------------------------------
 # td=(NStates=1) CAM-B3LYP/6-31G(d,p)
 -------------------------------------

 --
 TD
 --
 Symbolic Z-matrix:
 Charge =  0 Multiplicity = 1

                         Standard orientation:
 ---------------------------------------------------------------------
 Center     Atomic      Atomic             Coordinates (Angstroms)
 Number     Number       Type             X           Y           Z
 ---------------------------------------------------------------------
      1          8           0      -14.041693   -2.016850    0.291399
      2          8           0       14.748416    1.183110   -0.032754
      3          6           0      -11.885089    0.031264    1.275379
      4          6           0      -10.888183    0.337490    0.003966
      5          6           0      -12.127750   -1.323038    1.334150
      6          6           0      -12.683382   -2.135159    0.109510
      7          6           0      -11.505988   -0.348078   -1.355627
      8          6           0       11.053322    0.974089    1.057496
      9          6           0      -11.137614    0.527431    2.604561
     10          6           0      -13.101228    0.962509    1.025460
     11          6           0       12.494314    1.649780    0.863966
     12          6           0      -12.282949   -1.388093   -1.178143
     13          6           0       13.426758    0.621777    0.276705
     14          6           0       10.715602   -0.133082   -0.014098
     15          6           0       -9.449164   -0.027738    0.065333
     16          6           0       12.956313    0.078242   -1.042533
     17          6           0       11.588096   -0.589705   -0.975384
     18          6           0       10.063156    2.094503    1.112639
     19          6           0       11.070954    0.313922    2.435456
     20          6           0      -11.096490    0.351142   -2.581117
     21          6           0       -8.448529    0.750837   -0.105976
     22          6           0        9.366270   -0.603361    0.127199
     23          6           0       11.162739   -1.472547   -2.196830
     24          6           0       -7.074093    0.523389    0.013389
     25          6           0        8.878928   -1.831445   -0.085700
     26          6           0       -6.697721   -0.907777    0.369189
     27          6           0        7.427063   -2.181552    0.028440
     28          6           0       -6.201536    1.555157   -0.167357
     29          6           0        7.010676   -3.604024    0.377592
     30          6           0        6.410829   -1.222944   -0.322533
     31          6           0       -4.779002    1.494368   -0.237258
     32          6           0        5.023050   -1.531970   -0.134671
     33          6           0       -4.034687    2.554169   -0.528215
     34          6           0       -2.581858    2.555371   -0.621651
     35          6           0        4.000121   -0.689570   -0.445570
     36          6           0        2.583524   -0.924680   -0.210777
     37          6           0       -1.815093    3.806497   -1.064748
     38          6           0       -1.827463    1.394846   -0.304543
     39          6           0        1.762883    0.145970   -0.437090
     40          6           0        2.100301   -2.314841    0.237233
     41          6           0       -0.538297    1.308789   -0.530697
     42          6           0        0.356313    0.203004   -0.251263
     43          1           0      -10.866906    1.423070   -0.160305
     44          1           0      -12.710998   -1.719261    2.148830
     45          1           0      -11.164022   -1.957534    1.681821
     46          1           0      -12.406325   -3.251788    0.171413
     47          1           0      -10.198362   -0.238082    2.954440
     48          1           0      -10.880995    1.670744    2.260518
     49          1           0      -12.108652    0.719032    3.204851
     50          1           0      -13.702608    0.574013   -0.028529
     51          1           0      -13.829772    0.592688    1.769211
     52          1           0      -13.079032    2.067013    1.083117
     53          1           0       12.349916    2.424686    0.130255
     54          1           0       12.953196    2.181439    1.812252
     55          1           0      -12.540567   -1.861587   -2.036224
     56          1           0       13.495076   -0.215962    1.204583
     57          1           0       -9.337814   -0.963397    0.521928
     58          1           0       13.866275   -0.534263   -1.298426
     59          1           0       13.093286    0.853423   -1.755779
     60          1           0        9.122505    1.830429    1.857639
     61          1           0        9.701284    2.489998    0.119584
     62          1           0       10.623680    2.928730    1.691982
     63          1           0       12.069142   -0.178645    2.471574
     64          1           0       10.171928   -0.340555    2.950810
     65          1           0       11.364320    1.123537    3.131869
     66          1           0      -10.022896    0.498395   -2.829610
     67          1           0      -11.439347    1.369880   -2.730549
     68          1           0      -11.447257   -0.155917   -3.577154
     69          1           0      -14.633079   -2.343944   -0.525227
     70          1           0        8.596436    0.153099    0.486637
     71          1           0       -8.628092    1.850269   -0.357553
     72          1           0       11.310206   -2.569908   -1.971283
     73          1           0       10.123531   -1.181039   -2.246365
     74          1           0       11.738721   -1.307981   -2.985015
     75          1           0       15.050748    1.881585    0.709255
     76          1           0        9.725282   -2.494625   -0.160810
     77          1           0       -5.726705   -1.267198    0.695905
     78          1           0       -7.013550   -1.025565    1.367169
     79          1           0       -7.153166   -1.755864   -0.324816
     80          1           0       -6.495886    2.642343   -0.172931
     81          1           0        6.361945   -3.480355    1.264511
     82          1           0        6.295737   -4.161300   -0.403982
     83          1           0        7.930172   -4.244653    0.538505
     84          1           0        6.834377   -0.146476   -0.644113
     85          1           0       -4.150683    0.640434    0.051684
     86          1           0        4.877173   -2.624810    0.223830
     87          1           0       -4.676271    3.544132   -0.829087
     88          1           0        4.043476    0.219946   -0.853050
     89          1           0       -1.147685    3.414949   -1.870539
     90          1           0       -1.032199    4.156871   -0.271023
     91          1           0       -2.521824    4.626085   -1.356182
     92          1           0       -2.229862    0.354878    0.080000
     93          1           0        2.156553    1.022385   -0.818220
     94          1           0        2.403123   -2.473411    1.180880
     95          1           0        1.161983   -2.718873    0.047735
     96          1           0        2.569031   -2.904341   -0.492171
     97          1           0       -0.073114    2.259451   -0.623770
     98          1           0       -0.195792   -0.755901    0.285477
 ---------------------------------------------------------------------

 SCF Done:  E(RCAM-B3LYP) =  -1706.92198111     A.U. after   15 cycles

 Excitation energies and oscillator strengths:

 Excited State   1:      Singlet-A      2.1128 eV  586.82 nm  f=2.9665  <S**2>=0.000
     155 ->158        -0.14169
     156 ->157         0.69536
 This state for optimization and/or second-order correction.
 Total Energy, E(TD-HF/TD-DFT) =  -1706.84433698
 Copying the excited state density for this state as the 1-particle RhoCI density.

 The electronic state is 1-A.
 Alpha  occ. eigenvalues --  -19.21761 -19.21705 -10.31613 -10.31508 -10.28322
 Alpha  occ. eigenvalues --  -10.28276 -10.28215 -10.27810 -10.27805 -10.27616
 Alpha  occ. eigenvalues --  -10.27350 -10.27176 -10.27146 -10.27106 -10.27103
 Alpha  occ. eigenvalues --  -10.27024 -10.26928 -10.26910 -10.26777 -10.26651
 Alpha  occ. eigenvalues --  -10.26387 -10.26289 -10.26197 -10.25862 -10.25861
 Alpha  occ. eigenvalues --  -10.25819 -10.25799 -10.25710 -10.25598 -10.25525
 Alpha  occ. eigenvalues --  -10.25456 -10.25411 -10.25410 -10.25325 -10.25214
 Alpha  occ. eigenvalues --  -10.25112 -10.24807 -10.24590 -10.24545 -10.23973
 Alpha  occ. eigenvalues --  -10.23868 -10.23633  -1.09561  -1.06489  -0.93315
 Alpha  occ. eigenvalues --   -0.92963  -0.92030  -0.91396  -0.90663  -0.89293
 Alpha  occ. eigenvalues --   -0.87455  -0.87016  -0.86773  -0.85535  -0.84096
 Alpha  occ. eigenvalues --   -0.82756  -0.81599  -0.80192  -0.79975  -0.79407
 Alpha  occ. eigenvalues --   -0.76928  -0.76715  -0.76226  -0.75997  -0.75259
 Alpha  occ. eigenvalues --   -0.75180  -0.74591  -0.73069  -0.72008  -0.70021
 Alpha  occ. eigenvalues --   -0.68639  -0.67730  -0.65676  -0.63648  -0.63532
 Alpha  occ. eigenvalues --   -0.62501  -0.62399  -0.61347  -0.60804  -0.60060
 Alpha  occ. eigenvalues --   -0.58826  -0.58380  -0.57688  -0.57395  -0.56264
 Alpha  occ. eigenvalues --   -0.55265  -0.54711  -0.54339  -0.53895  -0.53627
 Alpha  occ. eigenvalues --   -0.53206  -0.52554  -0.52318  -0.51569  -0.51293
 Alpha  occ. eigenvalues --   -0.50693  -0.50177  -0.49710  -0.49109  -0.49007
 Alpha  occ. eigenvalues --   -0.48626  -0.48382  -0.48232  -0.47926  -0.47565
 Alpha  occ. eigenvalues --   -0.47182  -0.46951  -0.46636  -0.46522  -0.46447
 Alpha  occ. eigenvalues --   -0.46123  -0.45286  -0.45219  -0.44858  -0.44354
 Alpha  occ. eigenvalues --   -0.44270  -0.44035  -0.43677  -0.43500  -0.42598
 Alpha  occ. eigenvalues --   -0.42554  -0.41959  -0.41806  -0.41565  -0.41304
 Alpha  occ. eigenvalues --   -0.40945  -0.40855  -0.40608  -0.40442  -0.40306
 Alpha  occ. eigenvalues --   -0.40244  -0.39860  -0.39607  -0.39333  -0.39034
 Alpha  occ. eigenvalues --   -0.38580  -0.38548  -0.38334  -0.38271  -0.37991
 Alpha  occ. eigenvalues --   -0.37155  -0.37034  -0.36468  -0.35795  -0.35563
 Alpha  occ. eigenvalues --   -0.34746  -0.34158  -0.32873  -0.32546  -0.31728
 Alpha  occ. eigenvalues --   -0.31515  -0.29958  -0.28723  -0.26557  -0.23720
 Alpha  occ. eigenvalues --   -0.18945
 Alpha virt. eigenvalues --   -0.05758  -0.00648   0.02894   0.05959   0.07019
 Alpha virt. eigenvalues --    0.09591   0.10489   0.10899   0.11950   0.12304
 Alpha virt. eigenvalues --    0.12495   0.13020   0.13486   0.13671   0.14272

 Mulliken charges:
               1
     1  O   -0.537835
     2  O   -0.587235
     3  C    0.034367
     4  C   -0.156162
     5  C   -0.160664
     6  C    0.151190
     7  C    0.145040
     8  C   -0.002455
     9  C   -0.283682
    10  C   -0.310592
    11  C   -0.209076
    12  C   -0.138035
    13  C    0.190988
    14  C    0.068711
    15  C   -0.068213
    16  C   -0.228456
    17  C    0.015092
    18  C   -0.297220
    19  C   -0.285363
    20  C   -0.385387
    21  C   -0.074754
    22  C   -0.110994
    23  C   -0.348827
    24  C    0.143186
    25  C   -0.118649
    26  C   -0.383271
    27  C    0.058402
    28  C   -0.176508
    29  C   -0.374854
    30  C   -0.098336
    31  C   -0.021171
    32  C   -0.111557
    33  C   -0.126135
    34  C    0.058660
    35  C   -0.077775
    36  C    0.085422
    37  C   -0.377805
    38  C   -0.081959
    39  C   -0.125789
    40  C   -0.366004
    41  C   -0.092580
    42  C   -0.113010
    43  H    0.073796
    44  H    0.112512
    45  H    0.061545
    46  H    0.073716
    47  H    0.096356
    48  H    0.086053
    49  H    0.103641
    50  H    0.091870
    51  H    0.106081
    52  H    0.107101
    53  H    0.106597
    54  H    0.074600
    55  H    0.060310
    56  H    0.053295
    57  H    0.077620
    58  H    0.116528
    59  H    0.128285
    60  H    0.085529
    61  H    0.106037
    62  H    0.094299
    63  H    0.092776
    64  H    0.102545
    65  H    0.090602
    66  H    0.129694
    67  H    0.125148
    68  H    0.089596
    69  H    0.304018
    70  H    0.085476
    71  H    0.065074
    72  H    0.109720
    73  H    0.137598
    74  H    0.117839
    75  H    0.305613
    76  H    0.092364
    77  H    0.106858
    78  H    0.130696
    79  H    0.109562
    80  H    0.085295
    81  H    0.132541
    82  H    0.111243
    83  H    0.110436
    84  H    0.082740
    85  H    0.084168
    86  H    0.087154
    87  H    0.063226
    88  H    0.074265
    89  H    0.134825
    90  H    0.120741
    91  H    0.112770
    92  H    0.077884
    93  H    0.077769
    94  H    0.132439
    95  H    0.117218
    96  H    0.124639
    97  H    0.076272
    98  H    0.062726
 Sum of Mulliken charges =  -0.00000

 Dipole moment (field-independent basis, Debye):
    X=             -0.6954    Y=             -0.3143    Z=              0.0892  Tot=              0.7683
 Quadrupole moment (field-independent basis, Debye-Ang):
   XX=           -262.2171   YY=           -240.8392   ZZ=           -261.7937
   XY=             17.9646   XZ=             28.1862   YZ=              0.0000

 Normal termination of Gaussian 16 at Tue Jul 16 11:07:31 2019.
