 Gaussian 16, Revision A.03,
 Gaussian 16:  ES64L-G16RevA.03 25-Dec-2016

 -------------------------------------
 # td=(NStates=1) CAM-B3LYP/6-31G(d,p)
 -------------------------------------

 --
 TD
 --
 Symbolic Z-matrix:
 Charge =  0 Multiplicity = 1

                         Standard orientation:
 ---------------------------------------------------------------------
 Center     Atomic      Atomic             Coordinates (Angstroms)
 Number     Number       Type             X           Y           Z
 ---------------------------------------------------------------------
      1          8           0      -14.197323   -2.118334    0.591867
      2          8           0       14.794615    1.046976    0.012092
      3          6           0      -11.784028    0.019609    1.317769
      4          6           0      -11.032723    0.231790   -0.000233
      5          6           0      -12.013582   -1.555320    1.445865
      6          6           0      -12.709540   -2.131145    0.231138
      7          6           0      -11.623275   -0.366335   -1.235058
      8          6           0       11.168469    0.831186    1.207292
      9          6           0      -10.872909    0.414869    2.492335
     10          6           0      -13.039592    0.755147    1.323686
     11          6           0       12.502673    1.452049    0.869128
     12          6           0      -12.442428   -1.430863   -1.105961
     13          6           0       13.475748    0.478263    0.275695
     14          6           0       10.648793   -0.104186   -0.001669
     15          6           0       -9.593533   -0.161666    0.011737
     16          6           0       12.957499   -0.084253   -1.026779
     17          6           0       11.508271   -0.479033   -0.940954
     18          6           0       10.203264    1.946987    1.490132
     19          6           0       11.268862    0.002159    2.594035
     20          6           0      -11.403306    0.265756   -2.491792
     21          6           0       -8.511438    0.812941   -0.176211
     22          6           0        9.287935   -0.612123    0.147285
     23          6           0       11.200430   -1.353231   -2.181374
     24          6           0       -7.122804    0.505649   -0.181418
     25          6           0        8.764129   -1.768629   -0.127970
     26          6           0       -6.648873   -0.885813    0.195535
     27          6           0        7.352354   -2.153460   -0.075186
     28          6           0       -6.174196    1.525871   -0.377481
     29          6           0        7.032974   -3.660018    0.039697
     30          6           0        6.416083   -1.170425   -0.100937
     31          6           0       -4.802502    1.553822   -0.392775
     32          6           0        5.000770   -1.426487   -0.225148
     33          6           0       -3.949223    2.705961   -0.623380
     34          6           0       -2.531766    2.667199   -0.675732
     35          6           0        4.026178   -0.468964   -0.267331
     36          6           0        2.676284   -0.678091   -0.279240
     37          6           0       -1.937369    4.107842   -0.761593
     38          6           0       -1.793032    1.529639   -0.553996
     39          6           0        1.840816    0.385041   -0.437045
     40          6           0        2.094115   -2.103124   -0.087573
     41          6           0       -0.446776    1.555184   -0.649558
     42          6           0        0.369076    0.347002   -0.481938
     43          1           0      -10.994875    1.289158   -0.028762
     44          1           0      -12.468661   -1.707309    2.281348
     45          1           0      -11.004183   -2.096453    1.560708
     46          1           0      -12.494060   -3.244572    0.090291
     47          1           0       -9.934205   -0.016749    2.511924
     48          1           0      -10.628333    1.460126    2.281996
     49          1           0      -11.258215    0.226094    3.527490
     50          1           0      -13.595597    0.361322    0.518840
     51          1           0      -13.597423    0.334234    2.221085
     52          1           0      -12.853012    1.661291    1.435701
     53          1           0       12.614265    2.287622    0.211417
     54          1           0       12.873303    2.010714    1.728470
     55          1           0      -12.809715   -1.952532   -1.998545
     56          1           0       13.597543   -0.488715    0.991358
     57          1           0       -9.197522   -1.313469   -0.170553
     58          1           0       13.722778   -0.864896   -1.317331
     59          1           0       13.179348    0.684661   -1.687897
     60          1           0        9.083892    1.726837    1.787792
     61          1           0       10.009143    2.545547    0.501240
     62          1           0       10.565261    2.761789    2.361392
     63          1           0       12.073894   -0.886151    2.687363
     64          1           0       10.264877   -0.567456    2.746525
     65          1           0       11.605059    0.653796    3.448918
     66          1           0      -10.254604    0.428258   -2.723209
     67          1           0      -11.967044    1.228911   -2.343516
     68          1           0      -11.730066   -0.199711   -3.421469
     69          1           0      -14.737203   -1.957317   -0.301286
     70          1           0        8.434963    0.100456    0.383284
     71          1           0       -8.691066    1.905831   -0.307680
     72          1           0       11.468348   -2.405872   -1.921963
     73          1           0        9.989798   -1.685694   -2.504451
     74          1           0       11.741726   -1.059776   -3.060237
     75          1           0       15.132196    1.700993    0.804325
     76          1           0        9.458205   -2.599696   -0.285858
     77          1           0       -5.653352   -0.969638    0.187366
     78          1           0       -7.110169   -1.132613    1.136204
     79          1           0       -7.007742   -1.612927   -0.602832
     80          1           0       -6.664822    2.410106   -0.677276
     81          1           0        6.137080   -3.665296    0.950860
     82          1           0        6.547306   -3.925253   -1.010340
     83          1           0        8.103193   -4.274331    0.006711
     84          1           0        6.818977   -0.171195   -0.274318
     85          1           0       -4.355420    0.614787   -0.196949
     86          1           0        4.695024   -2.442259    0.243398
     87          1           0       -4.478062    3.665778   -0.797284
     88          1           0        4.120565    0.554328   -0.640174
     89          1           0       -1.121511    4.307081   -1.680616
     90          1           0       -1.463452    4.367193    0.224476
     91          1           0       -2.874384    4.847776   -0.938470
     92          1           0       -2.343858    0.729248   -0.302688
     93          1           0        2.272379    1.470508   -0.447849
     94          1           0        2.568424   -2.452538    0.694611
     95          1           0        0.917976   -2.166202    0.052103
     96          1           0        2.383501   -2.778328   -0.763785
     97          1           0        0.149193    2.487626   -0.748875
     98          1           0       -0.188966   -0.619046   -0.352650
 ---------------------------------------------------------------------

 SCF Done:  E(RCAM-B3LYP) =  -1706.94114648     A.U. after   15 cycles

 Excitation energies and oscillator strengths:

 Excited State   1:      Singlet-A      1.9615 eV  632.09 nm  f=3.0316  <S**2>=0.000
     155 ->158         0.13171
     156 ->157         0.69976
     156 <-157        -0.11032
 This state for optimization and/or second-order correction.
 Total Energy, E(TD-HF/TD-DFT) =  -1706.86906300
 Copying the excited state density for this state as the 1-particle RhoCI density.

 The electronic state is 1-A.
 Alpha  occ. eigenvalues --  -19.21898 -19.20548 -10.31105 -10.30790 -10.29832
 Alpha  occ. eigenvalues --  -10.28929 -10.28858 -10.28525 -10.27859 -10.27759
 Alpha  occ. eigenvalues --  -10.27635 -10.27575 -10.27544 -10.27494 -10.27361
 Alpha  occ. eigenvalues --  -10.27304 -10.27214 -10.27169 -10.27136 -10.27013
 Alpha  occ. eigenvalues --  -10.26859 -10.26824 -10.26814 -10.26792 -10.26752
 Alpha  occ. eigenvalues --  -10.26349 -10.26211 -10.26074 -10.25760 -10.25747
 Alpha  occ. eigenvalues --  -10.25616 -10.25520 -10.25434 -10.25349 -10.24995
 Alpha  occ. eigenvalues --  -10.24953 -10.24878 -10.24684 -10.24336 -10.23686
 Alpha  occ. eigenvalues --  -10.23414 -10.21498  -1.06323  -1.04096  -0.94720
 Alpha  occ. eigenvalues --   -0.93435  -0.92516  -0.92056  -0.90761  -0.90441
 Alpha  occ. eigenvalues --   -0.88452  -0.86888  -0.86384  -0.85455  -0.84090
 Alpha  occ. eigenvalues --   -0.82865  -0.81880  -0.80814  -0.79850  -0.79063
 Alpha  occ. eigenvalues --   -0.77423  -0.77230  -0.76709  -0.75755  -0.75742
 Alpha  occ. eigenvalues --   -0.75632  -0.75039  -0.73824  -0.73181  -0.70220
 Alpha  occ. eigenvalues --   -0.68531  -0.67168  -0.66440  -0.64364  -0.63644
 Alpha  occ. eigenvalues --   -0.63467  -0.62658  -0.62426  -0.60645  -0.59364
 Alpha  occ. eigenvalues --   -0.58922  -0.58375  -0.57927  -0.57197  -0.56220
 Alpha  occ. eigenvalues --   -0.55470  -0.55127  -0.54678  -0.54202  -0.53842
 Alpha  occ. eigenvalues --   -0.53774  -0.53457  -0.52859  -0.51898  -0.50898
 Alpha  occ. eigenvalues --   -0.50513  -0.50175  -0.49650  -0.49293  -0.49032
 Alpha  occ. eigenvalues --   -0.48924  -0.48769  -0.48412  -0.47813  -0.47628
 Alpha  occ. eigenvalues --   -0.47386  -0.47260  -0.46859  -0.46724  -0.46520
 Alpha  occ. eigenvalues --   -0.46316  -0.45776  -0.45314  -0.45041  -0.44579
 Alpha  occ. eigenvalues --   -0.44407  -0.44215  -0.43986  -0.43678  -0.43429
 Alpha  occ. eigenvalues --   -0.42845  -0.42771  -0.42281  -0.42140  -0.41787
 Alpha  occ. eigenvalues --   -0.41603  -0.41405  -0.40761  -0.40617  -0.40361
 Alpha  occ. eigenvalues --   -0.40095  -0.39885  -0.39805  -0.39560  -0.39179
 Alpha  occ. eigenvalues --   -0.38741  -0.38737  -0.38523  -0.38236  -0.38132
 Alpha  occ. eigenvalues --   -0.38004  -0.37414  -0.37018  -0.36797  -0.36376
 Alpha  occ. eigenvalues --   -0.35489  -0.35028  -0.33954  -0.32176  -0.31586
 Alpha  occ. eigenvalues --   -0.31234  -0.29784  -0.29441  -0.27173  -0.23852
 Alpha  occ. eigenvalues --   -0.19030
 Alpha virt. eigenvalues --   -0.06822  -0.01572   0.02357   0.04947   0.06451
 Alpha virt. eigenvalues --    0.08805   0.10008   0.10296   0.10887   0.12257
 Alpha virt. eigenvalues --    0.12585   0.12872   0.13295   0.13599   0.14048

 Mulliken charges:
               1
     1  O   -0.582027
     2  O   -0.590408
     3  C   -0.015421
     4  C   -0.126470
     5  C   -0.153223
     6  C    0.141735
     7  C    0.146320
     8  C    0.010717
     9  C   -0.309760
    10  C   -0.249455
    11  C   -0.187632
    12  C   -0.174800
    13  C    0.175127
    14  C    0.053218
    15  C   -0.099312
    16  C   -0.225152
    17  C    0.055048
    18  C   -0.293854
    19  C   -0.298100
    20  C   -0.358806
    21  C   -0.118227
    22  C   -0.093638
    23  C   -0.355218
    24  C    0.108377
    25  C   -0.102703
    26  C   -0.363076
    27  C    0.096038
    28  C   -0.124257
    29  C   -0.352914
    30  C   -0.116874
    31  C   -0.070104
    32  C   -0.126974
    33  C   -0.142527
    34  C    0.096854
    35  C   -0.094450
    36  C    0.134021
    37  C   -0.361773
    38  C   -0.055638
    39  C   -0.157281
    40  C   -0.362584
    41  C   -0.095515
    42  C   -0.102151
    43  H    0.091289
    44  H    0.113652
    45  H    0.077609
    46  H    0.087106
    47  H    0.115741
    48  H    0.085241
    49  H    0.094978
    50  H    0.107568
    51  H    0.098057
    52  H    0.092767
    53  H    0.104201
    54  H    0.078533
    55  H    0.080921
    56  H    0.055813
    57  H    0.087797
    58  H    0.118780
    59  H    0.131436
    60  H    0.097935
    61  H    0.094163
    62  H    0.075026
    63  H    0.083494
    64  H    0.107434
    65  H    0.101775
    66  H    0.108988
    67  H    0.119052
    68  H    0.117208
    69  H    0.298299
    70  H    0.073504
    71  H    0.084818
    72  H    0.120489
    73  H    0.080807
    74  H    0.120282
    75  H    0.309119
    76  H    0.070168
    77  H    0.111630
    78  H    0.130498
    79  H    0.108003
    80  H    0.065374
    81  H    0.111946
    82  H    0.121843
    83  H    0.103912
    84  H    0.088374
    85  H    0.075759
    86  H    0.066472
    87  H    0.088540
    88  H    0.083709
    89  H    0.096803
    90  H    0.131563
    91  H    0.094585
    92  H    0.075503
    93  H    0.079461
    94  H    0.128668
    95  H    0.093268
    96  H    0.130231
    97  H    0.090764
    98  H    0.081913
 Sum of Mulliken charges =  -0.00000

 Dipole moment (field-independent basis, Debye):
    X=              0.2833    Y=              0.6500    Z=             -0.6586  Tot=              0.9677
 Quadrupole moment (field-independent basis, Debye-Ang):
   XX=           -292.0566   YY=           -247.0647   ZZ=           -262.6000
   XY=             -4.0044   XZ=             37.5967   YZ=              5.4849

 Normal termination of Gaussian 16 at Mon Jul 15 21:42:08 2019.
