 Gaussian 16, Revision A.03,
 Gaussian 16:  ES64L-G16RevA.03 25-Dec-2016

 -------------------------------------
 # td=(NStates=1) CAM-B3LYP/6-31G(d,p)
 -------------------------------------

 --
 TD
 --
 Symbolic Z-matrix:
 Charge =  0 Multiplicity = 1

                         Standard orientation:
 ---------------------------------------------------------------------
 Center     Atomic      Atomic             Coordinates (Angstroms)
 Number     Number       Type             X           Y           Z
 ---------------------------------------------------------------------
      1          8           0      -13.960806   -2.020582    0.501964
      2          8           0       14.706658    0.988146    0.012441
      3          6           0      -11.771095    0.042556    1.221496
      4          6           0      -11.018920    0.358121   -0.058977
      5          6           0      -11.999119   -1.406690    1.411469
      6          6           0      -12.654813   -2.200123    0.304891
      7          6           0      -11.579412   -0.467994   -1.247881
      8          6           0       11.153755    1.017534    1.070394
      9          6           0      -11.026570    0.678252    2.502535
     10          6           0      -13.083052    0.855404    1.053263
     11          6           0       12.468129    1.649268    0.712813
     12          6           0      -12.367927   -1.523462   -1.120161
     13          6           0       13.356549    0.480184    0.333007
     14          6           0       10.645904    0.057257   -0.066079
     15          6           0       -9.554019   -0.060225   -0.001626
     16          6           0       12.930335   -0.171106   -0.995195
     17          6           0       11.487252   -0.440579   -0.974051
     18          6           0       10.073850    2.138894    1.139854
     19          6           0       11.003014    0.294289    2.360330
     20          6           0      -11.394091    0.315161   -2.507792
     21          6           0       -8.513579    0.753161   -0.200495
     22          6           0        9.235153   -0.351835    0.077890
     23          6           0       11.171169   -1.406448   -2.128332
     24          6           0       -7.119541    0.484441   -0.230853
     25          6           0        8.843336   -1.652596   -0.052222
     26          6           0       -6.737879   -0.897118    0.129733
     27          6           0        7.521561   -2.081291    0.005934
     28          6           0       -6.192223    1.588618   -0.359888
     29          6           0        7.213829   -3.586310    0.279132
     30          6           0        6.402304   -1.269029   -0.145325
     31          6           0       -4.763508    1.438142   -0.442164
     32          6           0        5.052322   -1.562246   -0.124389
     33          6           0       -3.988261    2.551108   -0.514793
     34          6           0       -2.533870    2.646686   -0.561637
     35          6           0        3.991494   -0.693309   -0.220007
     36          6           0        2.684662   -0.905941   -0.153757
     37          6           0       -1.764268    3.839840   -0.956575
     38          6           0       -1.750573    1.450131   -0.420271
     39          6           0        1.779443    0.142096   -0.231130
     40          6           0        2.092695   -2.339290    0.189767
     41          6           0       -0.355481    1.461902   -0.411720
     42          6           0        0.401524    0.188806   -0.298237
     43          1           0      -11.033501    1.293157   -0.066150
     44          1           0      -12.572413   -1.706132    2.295459
     45          1           0      -11.128426   -1.831056    1.568326
     46          1           0      -12.461501   -3.266480    0.264893
     47          1           0       -9.957349    0.509483    2.464297
     48          1           0      -11.175757    1.783450    2.493119
     49          1           0      -11.578930    0.451486    3.314574
     50          1           0      -13.642682    0.368672    0.202772
     51          1           0      -13.810615    0.615042    1.908119
     52          1           0      -13.181311    1.917120    0.854249
     53          1           0       12.725671    2.475027    0.011831
     54          1           0       12.848226    2.033255    1.762314
     55          1           0      -12.862929   -1.920042   -2.018106
     56          1           0       13.476983   -0.219244    1.019410
     57          1           0       -9.362091   -1.157398    0.116497
     58          1           0       13.604223   -0.950165   -1.088991
     59          1           0       13.101498    0.607612   -1.744159
     60          1           0        9.124028    1.816456    1.648757
     61          1           0        9.754168    2.607514    0.100898
     62          1           0       10.586099    2.973647    1.635382
     63          1           0       11.673327   -0.505356    2.568313
     64          1           0        9.924352   -0.024904    2.475657
     65          1           0       10.972081    1.041087    3.052607
     66          1           0      -10.244403    0.250000   -2.719154
     67          1           0      -11.645597    1.523827   -2.347944
     68          1           0      -12.052933    0.058371   -3.422926
     69          1           0      -14.326361   -2.373181   -0.325399
     70          1           0        8.366060    0.230435    0.148665
     71          1           0       -8.847569    1.852084   -0.284385
     72          1           0       11.769016   -2.336681   -1.934259
     73          1           0       10.057316   -1.887033   -2.145616
     74          1           0       11.720266   -0.937594   -3.223338
     75          1           0       15.247423    1.061878    0.888330
     76          1           0        9.667199   -2.404997   -0.220526
     77          1           0       -5.747682   -1.117558    0.142983
     78          1           0       -7.167925   -1.238933    1.148995
     79          1           0       -7.262271   -1.785488   -0.398409
     80          1           0       -6.422491    2.593328   -0.180906
     81          1           0        6.955757   -3.729965    1.228439
     82          1           0        6.575098   -4.223781   -0.369653
     83          1           0        8.311655   -4.041677    0.278892
     84          1           0        6.752085   -0.198573   -0.188490
     85          1           0       -4.304815    0.510876   -0.687843
     86          1           0        4.912298   -2.842311   -0.380457
     87          1           0       -4.791013    3.430722   -0.439431
     88          1           0        4.458675    0.284557   -0.372866
     89          1           0       -1.511763    3.823805   -1.983431
     90          1           0       -1.235529    4.217542   -0.077038
     91          1           0       -2.537638    4.758325   -1.136350
     92          1           0       -2.067931    0.333509   -0.192375
     93          1           0        2.171078    1.177972   -0.408398
     94          1           0        2.689668   -2.745373    1.121601
     95          1           0        1.136029   -2.369864    0.421085
     96          1           0        2.407024   -3.003592   -0.632925
     97          1           0        0.150427    2.637224   -0.421539
     98          1           0       -0.211591   -0.658146   -0.054357
 ---------------------------------------------------------------------

 SCF Done:  E(RCAM-B3LYP) =  -1706.89404628     A.U. after   16 cycles

 Excitation energies and oscillator strengths:

 Excited State   1:      Singlet-A      1.8091 eV  685.35 nm  f=3.1317  <S**2>=0.000
     155 ->158        -0.12914
     156 ->157         0.70249
     156 <-157        -0.12578
 This state for optimization and/or second-order correction.
 Total Energy, E(TD-HF/TD-DFT) =  -1706.82756407
 Copying the excited state density for this state as the 1-particle RhoCI density.

 The electronic state is 1-A.
 Alpha  occ. eigenvalues --  -19.21277 -19.20575 -10.30612 -10.28840 -10.28821
 Alpha  occ. eigenvalues --  -10.28807 -10.28238 -10.27758 -10.27605 -10.27442
 Alpha  occ. eigenvalues --  -10.27386 -10.27356 -10.27236 -10.27226 -10.27215
 Alpha  occ. eigenvalues --  -10.27080 -10.26838 -10.26718 -10.26693 -10.26522
 Alpha  occ. eigenvalues --  -10.26133 -10.26069 -10.25928 -10.25904 -10.25881
 Alpha  occ. eigenvalues --  -10.25860 -10.25829 -10.25818 -10.25714 -10.25623
 Alpha  occ. eigenvalues --  -10.25596 -10.25533 -10.25514 -10.25410 -10.25301
 Alpha  occ. eigenvalues --  -10.25196 -10.24732 -10.23966 -10.23843 -10.23269
 Alpha  occ. eigenvalues --  -10.23221 -10.23042  -1.13509  -1.06244  -0.94153
 Alpha  occ. eigenvalues --   -0.93964  -0.92193  -0.91631  -0.90695  -0.90030
 Alpha  occ. eigenvalues --   -0.87719  -0.87116  -0.86360  -0.85758  -0.84396
 Alpha  occ. eigenvalues --   -0.83337  -0.82099  -0.80323  -0.79965  -0.78342
 Alpha  occ. eigenvalues --   -0.76873  -0.76613  -0.76550  -0.75877  -0.75271
 Alpha  occ. eigenvalues --   -0.75229  -0.74705  -0.74422  -0.72310  -0.70275
 Alpha  occ. eigenvalues --   -0.68954  -0.68515  -0.66189  -0.65544  -0.63633
 Alpha  occ. eigenvalues --   -0.63366  -0.62784  -0.62236  -0.60318  -0.60287
 Alpha  occ. eigenvalues --   -0.60220  -0.59770  -0.58706  -0.57525  -0.56555
 Alpha  occ. eigenvalues --   -0.55716  -0.55493  -0.54856  -0.54501  -0.53839
 Alpha  occ. eigenvalues --   -0.53121  -0.52787  -0.52741  -0.52439  -0.52154
 Alpha  occ. eigenvalues --   -0.51458  -0.50204  -0.49988  -0.49705  -0.49443
 Alpha  occ. eigenvalues --   -0.48953  -0.48704  -0.48138  -0.47985  -0.47393
 Alpha  occ. eigenvalues --   -0.47302  -0.47149  -0.47019  -0.45769  -0.45613
 Alpha  occ. eigenvalues --   -0.45467  -0.45344  -0.45120  -0.44791  -0.44579
 Alpha  occ. eigenvalues --   -0.44434  -0.44221  -0.43825  -0.43694  -0.43552
 Alpha  occ. eigenvalues --   -0.43172  -0.42798  -0.42490  -0.42103  -0.41668
 Alpha  occ. eigenvalues --   -0.41521  -0.41172  -0.40800  -0.40731  -0.40671
 Alpha  occ. eigenvalues --   -0.39998  -0.39829  -0.39638  -0.39434  -0.39144
 Alpha  occ. eigenvalues --   -0.38668  -0.38537  -0.38416  -0.38247  -0.37909
 Alpha  occ. eigenvalues --   -0.37728  -0.37355  -0.36995  -0.36867  -0.35362
 Alpha  occ. eigenvalues --   -0.34359  -0.33859  -0.33092  -0.32108  -0.31771
 Alpha  occ. eigenvalues --   -0.31311  -0.29766  -0.29117  -0.26778  -0.23598
 Alpha  occ. eigenvalues --   -0.18332
 Alpha virt. eigenvalues --   -0.07181  -0.01224   0.02300   0.06243   0.07250
 Alpha virt. eigenvalues --    0.09061   0.10134   0.11579   0.12089   0.12239
 Alpha virt. eigenvalues --    0.12542   0.13208   0.13508   0.13781   0.13898

 Mulliken charges:
               1
     1  O   -0.491942
     2  O   -0.587426
     3  C    0.008707
     4  C   -0.068114
     5  C   -0.164646
     6  C    0.122276
     7  C    0.123994
     8  C   -0.016939
     9  C   -0.315107
    10  C   -0.318779
    11  C   -0.177943
    12  C   -0.174394
    13  C    0.131739
    14  C    0.069267
    15  C   -0.097656
    16  C   -0.203151
    17  C    0.052362
    18  C   -0.313987
    19  C   -0.294169
    20  C   -0.341034
    21  C   -0.099201
    22  C   -0.103519
    23  C   -0.343887
    24  C    0.123240
    25  C   -0.117130
    26  C   -0.382605
    27  C    0.076641
    28  C   -0.145148
    29  C   -0.374372
    30  C   -0.104393
    31  C   -0.033119
    32  C   -0.079659
    33  C   -0.123561
    34  C    0.047289
    35  C   -0.117545
    36  C    0.110395
    37  C   -0.390966
    38  C   -0.089165
    39  C   -0.114780
    40  C   -0.349822
    41  C   -0.082169
    42  C   -0.119323
    43  H    0.073975
    44  H    0.107808
    45  H    0.096666
    46  H    0.074292
    47  H    0.110356
    48  H    0.089359
    49  H    0.112105
    50  H    0.108700
    51  H    0.086117
    52  H    0.096880
    53  H    0.123755
    54  H    0.063084
    55  H    0.076076
    56  H    0.091369
    57  H    0.076113
    58  H    0.118054
    59  H    0.125418
    60  H    0.099160
    61  H    0.092388
    62  H    0.098626
    63  H    0.104649
    64  H    0.111864
    65  H    0.108741
    66  H    0.118721
    67  H    0.085835
    68  H    0.099455
    69  H    0.299709
    70  H    0.085686
    71  H    0.066711
    72  H    0.110948
    73  H    0.103717
    74  H    0.076179
    75  H    0.297455
    76  H    0.090385
    77  H    0.116574
    78  H    0.118425
    79  H    0.104982
    80  H    0.089435
    81  H    0.144648
    82  H    0.121463
    83  H    0.075977
    84  H    0.062418
    85  H    0.088434
    86  H    0.048149
    87  H    0.068825
    88  H    0.088803
    89  H    0.157902
    90  H    0.146908
    91  H    0.084571
    92  H    0.083651
    93  H    0.077631
    94  H    0.105957
    95  H    0.115046
    96  H    0.121434
    97  H    0.083288
    98  H    0.084864
 Sum of Mulliken charges =  -0.00000

 Dipole moment (field-independent basis, Debye):
    X=             -0.4116    Y=             -1.0230    Z=              0.8401  Tot=              1.3863
 Quadrupole moment (field-independent basis, Debye-Ang):
   XX=           -260.5679   YY=           -242.6225   ZZ=           -264.2988
   XY=              3.4268   XZ=             41.0299   YZ=              1.2918

 Normal termination of Gaussian 16 at Mon Jul 15 10:48:04 2019.
