 Gaussian 16, Revision A.03,
 Gaussian 16:  ES64L-G16RevA.03 25-Dec-2016

 -------------------------------------
 # td=(NStates=1) CAM-B3LYP/6-31G(d,p)
 -------------------------------------

 --
 TD
 --
 Symbolic Z-matrix:
 Charge =  0 Multiplicity = 1

                         Standard orientation:
 ---------------------------------------------------------------------
 Center     Atomic      Atomic             Coordinates (Angstroms)
 Number     Number       Type             X           Y           Z
 ---------------------------------------------------------------------
      1          8           0      -14.123041   -1.962372    0.388664
      2          8           0       14.764138    1.022992   -0.030267
      3          6           0      -11.725188    0.060972    1.270882
      4          6           0      -10.967263    0.316347   -0.014709
      5          6           0      -11.951703   -1.506782    1.453728
      6          6           0      -12.690553   -2.147550    0.142786
      7          6           0      -11.723386   -0.331346   -1.325959
      8          6           0       11.209040    0.911617    1.122857
      9          6           0      -10.984101    0.567791    2.503559
     10          6           0      -13.123128    0.754037    1.285289
     11          6           0       12.568051    1.422534    0.787662
     12          6           0      -12.386240   -1.445456   -1.210340
     13          6           0       13.532188    0.406618    0.149655
     14          6           0       10.727655   -0.023648   -0.081309
     15          6           0       -9.561705   -0.053397   -0.059086
     16          6           0       12.923559    0.016038   -1.166240
     17          6           0       11.518529   -0.327371   -1.157839
     18          6           0       10.150899    1.958872    1.344282
     19          6           0       11.191579    0.170018    2.425953
     20          6           0      -11.460627    0.312731   -2.628037
     21          6           0       -8.485497    0.697698   -0.140270
     22          6           0        9.329535   -0.450575    0.083802
     23          6           0       10.908056   -1.031838   -2.281163
     24          6           0       -7.079782    0.422331   -0.147943
     25          6           0        8.736964   -1.743662   -0.106862
     26          6           0       -6.717377   -0.917974   -0.036303
     27          6           0        7.496033   -2.189783   -0.040961
     28          6           0       -6.240749    1.555602   -0.326919
     29          6           0        7.111981   -3.721157   -0.016709
     30          6           0        6.453313   -1.309859   -0.089930
     31          6           0       -4.795940    1.454658   -0.234268
     32          6           0        5.036035   -1.617901    0.081466
     33          6           0       -3.956340    2.536759   -0.573932
     34          6           0       -2.586137    2.675392   -0.547391
     35          6           0        3.995999   -0.609686   -0.008510
     36          6           0        2.721262   -0.868063   -0.084320
     37          6           0       -1.907955    3.964387   -0.931144
     38          6           0       -1.771810    1.571620   -0.250160
     39          6           0        1.800908    0.283141   -0.232270
     40          6           0        2.091766   -2.238194    0.139844
     41          6           0       -0.333968    1.438961   -0.321776
     42          6           0        0.444010    0.323091   -0.252000
     43          1           0      -11.032768    1.351291    0.027866
     44          1           0      -12.800392   -1.699584    2.401244
     45          1           0      -10.947604   -1.960610    1.626957
     46          1           0      -12.583712   -3.314099   -0.012208
     47          1           0      -10.018055    0.181705    2.407026
     48          1           0      -10.815538    1.555608    2.324889
     49          1           0      -11.573207    0.201388    3.510312
     50          1           0      -13.575114    0.840989    0.039101
     51          1           0      -13.864515    0.231630    1.981076
     52          1           0      -12.842667    1.848020    1.561048
     53          1           0       12.494541    2.282384    0.266368
     54          1           0       12.931025    1.658566    1.709641
     55          1           0      -12.725604   -1.867028   -2.106263
     56          1           0       13.564078   -0.611384    0.745702
     57          1           0       -9.375858   -1.132003    0.177407
     58          1           0       13.619493   -0.869205   -1.671666
     59          1           0       13.088158    1.019273   -1.757299
     60          1           0        9.185742    1.627302    1.944722
     61          1           0        9.709711    2.561483    0.350807
     62          1           0       10.554204    2.938257    2.062999
     63          1           0       11.871519   -0.728821    2.769028
     64          1           0       10.287987   -0.231048    2.727331
     65          1           0       11.433663    0.958474    3.334309
     66          1           0      -10.422845    0.416076   -2.571814
     67          1           0      -11.521499    1.492904   -2.623054
     68          1           0      -11.987359   -0.186029   -3.480578
     69          1           0      -14.355709   -1.908817   -0.362442
     70          1           0        8.660767    0.262744    0.661881
     71          1           0       -8.496716    1.850724   -0.236924
     72          1           0       11.301370   -2.025972   -2.345505
     73          1           0        9.746296   -1.290698   -2.147109
     74          1           0       11.314679   -0.598902   -3.278184
     75          1           0       15.252204    1.272044    0.773984
     76          1           0        9.584886   -2.540083   -0.167162
     77          1           0       -5.565436   -1.314536    0.102993
     78          1           0       -7.204406   -1.482140    0.796496
     79          1           0       -7.177780   -1.518859   -0.831360
     80          1           0       -6.896332    2.514379   -0.452167
     81          1           0        6.364281   -3.974637    0.807240
     82          1           0        6.768109   -3.998657   -0.909669
     83          1           0        8.075818   -4.478966    0.237848
     84          1           0        6.591219   -0.031892   -0.086824
     85          1           0       -4.497587    0.417119   -0.298082
     86          1           0        4.704674   -2.614810    0.437811
     87          1           0       -4.543725    3.511012   -0.468886
     88          1           0        4.450824    0.350871   -0.251508
     89          1           0       -1.147076    4.008555   -1.902210
     90          1           0       -1.237569    4.442640   -0.218564
     91          1           0       -2.612357    4.776331   -1.297040
     92          1           0       -2.247490    0.682048    0.198529
     93          1           0        2.270503    1.138768   -0.540209
     94          1           0        2.418525   -2.803462    1.229479
     95          1           0        1.016260   -2.213295    0.129464
     96          1           0        2.551984   -3.019184   -0.685830
     97          1           0        0.335247    2.426887   -0.611316
     98          1           0       -0.195090   -0.611554   -0.049361
 ---------------------------------------------------------------------

 SCF Done:  E(RCAM-B3LYP) =  -1706.81045260     A.U. after   17 cycles

 Excitation energies and oscillator strengths:

 Excited State   1:      Singlet-A      1.6724 eV  741.37 nm  f=3.0782  <S**2>=0.000
     155 ->158        -0.13634
     156 ->157         0.70279
     156 <-157        -0.13318
 This state for optimization and/or second-order correction.
 Total Energy, E(TD-HF/TD-DFT) =  -1706.74899400
 Copying the excited state density for this state as the 1-particle RhoCI density.

 The electronic state is 1-A.
 Alpha  occ. eigenvalues --  -19.21927 -19.18535 -10.32187 -10.31576 -10.28636
 Alpha  occ. eigenvalues --  -10.28521 -10.28113 -10.27992 -10.27973 -10.27967
 Alpha  occ. eigenvalues --  -10.27925 -10.27919 -10.27512 -10.27511 -10.27407
 Alpha  occ. eigenvalues --  -10.27378 -10.27314 -10.27303 -10.27286 -10.27252
 Alpha  occ. eigenvalues --  -10.27231 -10.27184 -10.27066 -10.27058 -10.26896
 Alpha  occ. eigenvalues --  -10.26875 -10.26802 -10.26693 -10.26591 -10.26524
 Alpha  occ. eigenvalues --  -10.26500 -10.26379 -10.26336 -10.26316 -10.26205
 Alpha  occ. eigenvalues --  -10.26122 -10.26004 -10.25647 -10.25452 -10.24595
 Alpha  occ. eigenvalues --  -10.23978 -10.23098  -1.12649  -1.10619  -0.94332
 Alpha  occ. eigenvalues --   -0.93977  -0.92457  -0.92131  -0.91334  -0.90719
 Alpha  occ. eigenvalues --   -0.88491  -0.87758  -0.87609  -0.85195  -0.84812
 Alpha  occ. eigenvalues --   -0.82869  -0.81703  -0.80367  -0.79652  -0.77989
 Alpha  occ. eigenvalues --   -0.77311  -0.76757  -0.76220  -0.76093  -0.75653
 Alpha  occ. eigenvalues --   -0.75462  -0.74009  -0.73926  -0.72590  -0.71238
 Alpha  occ. eigenvalues --   -0.69759  -0.67882  -0.67267  -0.65249  -0.63421
 Alpha  occ. eigenvalues --   -0.63325  -0.61770  -0.61399  -0.60100  -0.59899
 Alpha  occ. eigenvalues --   -0.59591  -0.59302  -0.57891  -0.57280  -0.56834
 Alpha  occ. eigenvalues --   -0.56372  -0.55356  -0.54869  -0.54576  -0.54039
 Alpha  occ. eigenvalues --   -0.53119  -0.52525  -0.52318  -0.52095  -0.51175
 Alpha  occ. eigenvalues --   -0.50641  -0.50264  -0.49747  -0.49619  -0.49497
 Alpha  occ. eigenvalues --   -0.48914  -0.48881  -0.48492  -0.48162  -0.47982
 Alpha  occ. eigenvalues --   -0.47323  -0.46896  -0.46532  -0.46463  -0.45947
 Alpha  occ. eigenvalues --   -0.45823  -0.45395  -0.45111  -0.45022  -0.44768
 Alpha  occ. eigenvalues --   -0.44575  -0.44050  -0.43906  -0.43668  -0.42523
 Alpha  occ. eigenvalues --   -0.42329  -0.42023  -0.41998  -0.41954  -0.41766
 Alpha  occ. eigenvalues --   -0.41434  -0.41343  -0.41169  -0.40802  -0.40729
 Alpha  occ. eigenvalues --   -0.40346  -0.40167  -0.39750  -0.39499  -0.39312
 Alpha  occ. eigenvalues --   -0.38811  -0.38497  -0.38351  -0.38283  -0.37949
 Alpha  occ. eigenvalues --   -0.37671  -0.37424  -0.36579  -0.36201  -0.35675
 Alpha  occ. eigenvalues --   -0.35231  -0.34756  -0.33781  -0.32818  -0.31550
 Alpha  occ. eigenvalues --   -0.31348  -0.30198  -0.29833  -0.26633  -0.23464
 Alpha  occ. eigenvalues --   -0.18378
 Alpha virt. eigenvalues --   -0.07954  -0.02292   0.01713   0.05163   0.07321
 Alpha virt. eigenvalues --    0.08613   0.10840   0.11352   0.11764   0.11997
 Alpha virt. eigenvalues --    0.12241   0.12372   0.12764   0.12876   0.13270

 Mulliken charges:
               1
     1  O   -0.487141
     2  O   -0.560064
     3  C    0.007449
     4  C   -0.128255
     5  C   -0.169874
     6  C    0.118357
     7  C    0.143511
     8  C    0.017345
     9  C   -0.283099
    10  C   -0.256258
    11  C   -0.178195
    12  C   -0.179895
    13  C    0.181906
    14  C    0.045607
    15  C   -0.104587
    16  C   -0.234387
    17  C    0.127441
    18  C   -0.295690
    19  C   -0.296316
    20  C   -0.361655
    21  C   -0.079748
    22  C   -0.120130
    23  C   -0.381432
    24  C    0.185983
    25  C   -0.158912
    26  C   -0.423510
    27  C    0.120142
    28  C   -0.137722
    29  C   -0.354942
    30  C   -0.124163
    31  C   -0.087497
    32  C   -0.106139
    33  C   -0.130991
    34  C    0.141085
    35  C   -0.118475
    36  C    0.141216
    37  C   -0.382973
    38  C   -0.135385
    39  C   -0.126550
    40  C   -0.352493
    41  C   -0.085930
    42  C   -0.059945
    43  H    0.088544
    44  H    0.084242
    45  H    0.086322
    46  H    0.071299
    47  H    0.105412
    48  H    0.101678
    49  H    0.092939
    50  H    0.056132
    51  H    0.121210
    52  H    0.074700
    53  H    0.109265
    54  H    0.084910
    55  H    0.079793
    56  H    0.067903
    57  H    0.076569
    58  H    0.087217
    59  H    0.111016
    60  H    0.108733
    61  H    0.086622
    62  H    0.063405
    63  H    0.087139
    64  H    0.120175
    65  H    0.067431
    66  H    0.136101
    67  H    0.100144
    68  H    0.114500
    69  H    0.258746
    70  H    0.083049
    71  H    0.056730
    72  H    0.118961
    73  H    0.124105
    74  H    0.098452
    75  H    0.315803
    76  H    0.081794
    77  H    0.095589
    78  H    0.123776
    79  H    0.134592
    80  H    0.085602
    81  H    0.119491
    82  H    0.148869
    83  H    0.081140
    84  H    0.070080
    85  H    0.093428
    86  H    0.085737
    87  H    0.081384
    88  H    0.083435
    89  H    0.096091
    90  H    0.132541
    91  H    0.105984
    92  H    0.085389
    93  H    0.080857
    94  H    0.087342
    95  H    0.120340
    96  H    0.103377
    97  H    0.063254
    98  H    0.072974
 Sum of Mulliken charges =  -0.00000

 Dipole moment (field-independent basis, Debye):
    X=              3.1340    Y=             -0.4374    Z=             -0.0549  Tot=              3.1649
 Quadrupole moment (field-independent basis, Debye-Ang):
   XX=           -288.5474   YY=           -247.6733   ZZ=           -263.8263
   XY=             -6.1663   XZ=             40.5424   YZ=              2.1799

 Normal termination of Gaussian 16 at Fri Jul 12 16:03:51 2019.
