 Gaussian 16, Revision A.03,
 Gaussian 16:  ES64L-G16RevA.03 25-Dec-2016

 -------------------------------------
 # td=(NStates=1) CAM-B3LYP/6-31G(d,p)
 -------------------------------------

 --
 TD
 --
 Symbolic Z-matrix:
 Charge =  0 Multiplicity = 1

                         Standard orientation:
 ---------------------------------------------------------------------
 Center     Atomic      Atomic             Coordinates (Angstroms)
 Number     Number       Type             X           Y           Z
 ---------------------------------------------------------------------
      1          8           0      -14.204042   -1.920718    0.307213
      2          8           0       14.835799    0.777732   -0.072524
      3          6           0      -11.795521   -0.022406    1.214014
      4          6           0      -10.928254    0.291660   -0.034388
      5          6           0      -11.982053   -1.557574    1.373480
      6          6           0      -12.795155   -2.126757    0.229414
      7          6           0      -11.611042   -0.383262   -1.175712
      8          6           0       11.061839    1.027299    1.078496
      9          6           0      -10.913668    0.507034    2.527441
     10          6           0      -13.108384    0.761559    1.181314
     11          6           0       12.556107    1.511906    0.653250
     12          6           0      -12.287959   -1.559722   -1.124730
     13          6           0       13.508822    0.359805    0.417581
     14          6           0       10.689485   -0.182685    0.016100
     15          6           0       -9.595878   -0.010568    0.064795
     16          6           0       12.986091   -0.328535   -0.765948
     17          6           0       11.558560   -0.628770   -0.839514
     18          6           0       10.139594    2.175640    0.890574
     19          6           0       10.954256    0.528242    2.493630
     20          6           0      -11.244967    0.190923   -2.590078
     21          6           0       -8.444079    0.815653   -0.065209
     22          6           0        9.246881   -0.394197   -0.023487
     23          6           0       11.186046   -1.516716   -2.025756
     24          6           0       -7.039519    0.460840   -0.000130
     25          6           0        8.769985   -1.689015    0.006785
     26          6           0       -6.706288   -1.013024    0.196486
     27          6           0        7.340508   -2.140488   -0.005093
     28          6           0       -6.165398    1.551271   -0.221727
     29          6           0        7.263110   -3.583191    0.236264
     30          6           0        6.366219   -1.159101   -0.161783
     31          6           0       -4.732429    1.439077   -0.246813
     32          6           0        5.014850   -1.555696   -0.180772
     33          6           0       -3.933279    2.646827   -0.587930
     34          6           0       -2.558125    2.688267   -0.692419
     35          6           0        3.990217   -0.580817   -0.110107
     36          6           0        2.666312   -0.750425   -0.191257
     37          6           0       -1.950167    4.041735   -0.895205
     38          6           0       -1.819899    1.549951   -0.617134
     39          6           0        1.767578    0.277625   -0.354378
     40          6           0        2.112790   -2.125106    0.084040
     41          6           0       -0.454412    1.590438   -0.469182
     42          6           0        0.358795    0.309909   -0.443512
     43          1           0      -11.240418    1.420917   -0.162937
     44          1           0      -12.393640   -1.891200    2.337320
     45          1           0      -11.085774   -2.125369    1.465452
     46          1           0      -12.379894   -3.222851    0.247795
     47          1           0      -10.115485   -0.278043    2.844065
     48          1           0      -10.548235    1.443926    2.233439
     49          1           0      -11.724669    0.412932    3.471358
     50          1           0      -13.825787    0.414675    0.233873
     51          1           0      -13.811926    0.618154    2.035406
     52          1           0      -12.722508    1.932341    1.161314
     53          1           0       12.593658    2.209760   -0.180036
     54          1           0       12.956915    2.232225    1.289235
     55          1           0      -12.546535   -1.966490   -1.908159
     56          1           0       13.457645   -0.191121    1.335615
     57          1           0       -9.351657   -1.126488    0.131478
     58          1           0       13.630480   -1.306753   -0.983634
     59          1           0       13.147810    0.152790   -1.812516
     60          1           0        9.055814    1.919838    1.111053
     61          1           0       10.287519    2.852126   -0.145766
     62          1           0       10.413758    3.061130    1.544692
     63          1           0       11.584115   -0.275050    2.809214
     64          1           0        9.904920    0.413503    2.587341
     65          1           0       11.088711    1.712341    3.013663
     66          1           0      -10.253403    0.347931   -2.649360
     67          1           0      -11.833459    1.183773   -2.999228
     68          1           0      -11.553185   -0.634037   -3.329701
     69          1           0      -14.679131   -2.491961   -0.385087
     70          1           0        8.752029    0.450084    0.371203
     71          1           0       -8.557199    1.947609   -0.212390
     72          1           0       11.801381   -2.499497   -1.865891
     73          1           0       10.184195   -1.629730   -2.118202
     74          1           0       11.395436   -0.944880   -3.049496
     75          1           0       15.431931    0.871646    0.785737
     76          1           0        9.463946   -2.360183    0.109644
     77          1           0       -5.729587   -1.180892    0.283520
     78          1           0       -7.399243   -1.264711    1.232566
     79          1           0       -7.216150   -1.797774   -0.483270
     80          1           0       -6.524051    2.476502   -0.462706
     81          1           0        7.253718   -3.719250    1.346013
     82          1           0        6.450052   -4.061065   -0.130724
     83          1           0        8.164971   -4.229236   -0.197315
     84          1           0        6.554606   -0.143547   -0.458738
     85          1           0       -4.234069    0.534741   -0.128968
     86          1           0        4.670389   -2.608527    0.077025
     87          1           0       -4.533342    3.755993   -0.703121
     88          1           0        4.446007    0.321543   -0.351032
     89          1           0       -1.204900    4.045803   -1.603084
     90          1           0       -1.605350    4.643471    0.044141
     91          1           0       -2.808853    4.666302   -1.238433
     92          1           0       -2.236069    0.503388   -0.600208
     93          1           0        2.217846    1.399168   -0.550340
     94          1           0        1.941558   -2.313864    1.257977
     95          1           0        0.941442   -2.153529   -0.346085
     96          1           0        2.680828   -2.833448   -0.368598
     97          1           0        0.096712    2.455250   -0.514087
     98          1           0       -0.337329   -0.512126   -0.346960
 ---------------------------------------------------------------------

 SCF Done:  E(RCAM-B3LYP) =  -1706.85739119     A.U. after   17 cycles

 Excitation energies and oscillator strengths:

 Excited State   1:      Singlet-A      1.7023 eV  728.33 nm  f=3.0793  <S**2>=0.000
     155 ->158        -0.12668
     156 ->157         0.70588
     156 <-157        -0.13676
 This state for optimization and/or second-order correction.
 Total Energy, E(TD-HF/TD-DFT) =  -1706.79483233
 Copying the excited state density for this state as the 1-particle RhoCI density.

 The electronic state is 1-A.
 Alpha  occ. eigenvalues --  -19.22299 -19.22276 -10.31267 -10.30359 -10.28406
 Alpha  occ. eigenvalues --  -10.28333 -10.27979 -10.27911 -10.27339 -10.27228
 Alpha  occ. eigenvalues --  -10.27173 -10.27141 -10.27070 -10.26914 -10.26862
 Alpha  occ. eigenvalues --  -10.26769 -10.26607 -10.26605 -10.26504 -10.26453
 Alpha  occ. eigenvalues --  -10.26388 -10.26310 -10.26300 -10.26279 -10.26266
 Alpha  occ. eigenvalues --  -10.26234 -10.25950 -10.25852 -10.25790 -10.25624
 Alpha  occ. eigenvalues --  -10.25576 -10.25497 -10.25419 -10.25389 -10.25334
 Alpha  occ. eigenvalues --  -10.25269 -10.24961 -10.24785 -10.24681 -10.24488
 Alpha  occ. eigenvalues --  -10.24073 -10.23215  -1.08703  -1.07122  -0.93677
 Alpha  occ. eigenvalues --   -0.93633  -0.92420  -0.92010  -0.90324  -0.89738
 Alpha  occ. eigenvalues --   -0.87845  -0.86350  -0.85480  -0.84926  -0.84715
 Alpha  occ. eigenvalues --   -0.83239  -0.81962  -0.80774  -0.79311  -0.78645
 Alpha  occ. eigenvalues --   -0.76667  -0.76301  -0.75960  -0.75450  -0.75173
 Alpha  occ. eigenvalues --   -0.75066  -0.74975  -0.73052  -0.72294  -0.70282
 Alpha  occ. eigenvalues --   -0.69145  -0.66946  -0.66284  -0.65592  -0.63816
 Alpha  occ. eigenvalues --   -0.63147  -0.62556  -0.61840  -0.60968  -0.60708
 Alpha  occ. eigenvalues --   -0.59788  -0.59258  -0.59201  -0.57530  -0.56757
 Alpha  occ. eigenvalues --   -0.55620  -0.55005  -0.54620  -0.53897  -0.53847
 Alpha  occ. eigenvalues --   -0.53393  -0.52476  -0.51893  -0.51477  -0.50928
 Alpha  occ. eigenvalues --   -0.50777  -0.50390  -0.49707  -0.49361  -0.49350
 Alpha  occ. eigenvalues --   -0.48463  -0.48350  -0.48307  -0.47991  -0.47719
 Alpha  occ. eigenvalues --   -0.47562  -0.46956  -0.46750  -0.46304  -0.45737
 Alpha  occ. eigenvalues --   -0.45503  -0.45001  -0.44830  -0.44523  -0.44423
 Alpha  occ. eigenvalues --   -0.44100  -0.43791  -0.43394  -0.43252  -0.42878
 Alpha  occ. eigenvalues --   -0.42734  -0.42715  -0.42541  -0.42318  -0.41983
 Alpha  occ. eigenvalues --   -0.41653  -0.41523  -0.40990  -0.40726  -0.40522
 Alpha  occ. eigenvalues --   -0.40380  -0.39874  -0.39528  -0.39343  -0.39068
 Alpha  occ. eigenvalues --   -0.38840  -0.38600  -0.38537  -0.38322  -0.38043
 Alpha  occ. eigenvalues --   -0.37848  -0.37082  -0.36894  -0.35992  -0.35486
 Alpha  occ. eigenvalues --   -0.34134  -0.33286  -0.32839  -0.32408  -0.31605
 Alpha  occ. eigenvalues --   -0.31200  -0.29014  -0.28855  -0.26317  -0.23220
 Alpha  occ. eigenvalues --   -0.17794
 Alpha virt. eigenvalues --   -0.07228  -0.01367   0.02433   0.05608   0.07224
 Alpha virt. eigenvalues --    0.09075   0.10568   0.10741   0.11266   0.11518
 Alpha virt. eigenvalues --    0.11654   0.12405   0.12925   0.13318   0.13566

 Mulliken charges:
               1
     1  O   -0.543129
     2  O   -0.561834
     3  C    0.021298
     4  C   -0.134699
     5  C   -0.184387
     6  C    0.137232
     7  C    0.096973
     8  C   -0.028323
     9  C   -0.295877
    10  C   -0.279455
    11  C   -0.186328
    12  C   -0.083731
    13  C    0.142828
    14  C    0.025651
    15  C   -0.066264
    16  C   -0.192063
    17  C    0.069715
    18  C   -0.314489
    19  C   -0.256787
    20  C   -0.346076
    21  C   -0.110025
    22  C   -0.097264
    23  C   -0.339530
    24  C    0.118529
    25  C   -0.097128
    26  C   -0.351123
    27  C    0.096172
    28  C   -0.112748
    29  C   -0.377734
    30  C   -0.119109
    31  C   -0.079047
    32  C   -0.100645
    33  C   -0.148683
    34  C    0.121633
    35  C   -0.112492
    36  C    0.136910
    37  C   -0.371373
    38  C   -0.103452
    39  C   -0.129520
    40  C   -0.355442
    41  C   -0.085785
    42  C   -0.100559
    43  H    0.086725
    44  H    0.099188
    45  H    0.100956
    46  H    0.057516
    47  H    0.091977
    48  H    0.111843
    49  H    0.069798
    50  H    0.111388
    51  H    0.108516
    52  H    0.063757
    53  H    0.098762
    54  H    0.076942
    55  H    0.046722
    56  H    0.092253
    57  H    0.077894
    58  H    0.082606
    59  H    0.116592
    60  H    0.107172
    61  H    0.091976
    62  H    0.102261
    63  H    0.112462
    64  H    0.114918
    65  H    0.057709
    66  H    0.130865
    67  H    0.088090
    68  H    0.089902
    69  H    0.315746
    70  H    0.069752
    71  H    0.072164
    72  H    0.101007
    73  H    0.126842
    74  H    0.089262
    75  H    0.302889
    76  H    0.075821
    77  H    0.114184
    78  H    0.090356
    79  H    0.125145
    80  H    0.085840
    81  H    0.132860
    82  H    0.125351
    83  H    0.107275
    84  H    0.102993
    85  H    0.085105
    86  H    0.079505
    87  H    0.066343
    88  H    0.068171
    89  H    0.130572
    90  H    0.112804
    91  H    0.106222
    92  H    0.084633
    93  H    0.063140
    94  H    0.111386
    95  H    0.081591
    96  H    0.123904
    97  H    0.080622
    98  H    0.077883
 Sum of Mulliken charges =  -0.00000

 Dipole moment (field-independent basis, Debye):
    X=              2.1471    Y=             -1.9242    Z=              0.5674  Tot=              2.9385
 Quadrupole moment (field-independent basis, Debye-Ang):
   XX=           -262.8460   YY=           -239.1770   ZZ=           -266.6395
   XY=             13.4813   XZ=             40.6095   YZ=             -0.4521

 Normal termination of Gaussian 16 at Tue Jul 16 10:27:07 2019.
