 Gaussian 16, Revision A.03,
 Gaussian 16:  ES64L-G16RevA.03 25-Dec-2016

 -------------------------------------
 # td=(NStates=1) CAM-B3LYP/6-31G(d,p)
 -------------------------------------

 --
 TD
 --
 Symbolic Z-matrix:
 Charge =  0 Multiplicity = 1

                         Standard orientation:
 ---------------------------------------------------------------------
 Center     Atomic      Atomic             Coordinates (Angstroms)
 Number     Number       Type             X           Y           Z
 ---------------------------------------------------------------------
      1          8           0      -14.231898   -2.072056    0.391277
      2          8           0       14.839024    1.038239   -0.173818
      3          6           0      -11.775211   -0.004682    1.190383
      4          6           0      -10.980126    0.217875   -0.055441
      5          6           0      -12.028424   -1.458146    1.332933
      6          6           0      -12.820017   -2.065092    0.246794
      7          6           0      -11.645766   -0.444602   -1.278973
      8          6           0       11.199205    0.976559    1.079556
      9          6           0      -11.123813    0.553781    2.426063
     10          6           0      -13.101317    0.779985    1.051463
     11          6           0       12.596682    1.531140    0.637254
     12          6           0      -12.414296   -1.554612   -1.075114
     13          6           0       13.566663    0.502793    0.162854
     14          6           0       10.661440   -0.050562   -0.141770
     15          6           0       -9.498686   -0.055209    0.055413
     16          6           0       12.985595   -0.127064   -1.053728
     17          6           0       11.518465   -0.617274   -0.966279
     18          6           0       10.128549    2.149737    1.142804
     19          6           0       11.198961    0.332398    2.522823
     20          6           0      -11.170379    0.172737   -2.651120
     21          6           0       -8.534570    0.854928   -0.146160
     22          6           0        9.247988   -0.408845    0.033801
     23          6           0       11.051226   -1.609490   -2.085179
     24          6           0       -7.093583    0.525445   -0.123022
     25          6           0        8.795953   -1.626098   -0.086953
     26          6           0       -6.651910   -0.891499    0.200869
     27          6           0        7.368640   -2.114337    0.062602
     28          6           0       -6.190353    1.556737   -0.250640
     29          6           0        7.195011   -3.698919    0.236392
     30          6           0        6.384954   -1.297728   -0.115066
     31          6           0       -4.814464    1.488060   -0.230959
     32          6           0        5.015541   -1.614620    0.166345
     33          6           0       -3.962154    2.567250   -0.505870
     34          6           0       -2.562050    2.731624   -0.497991
     35          6           0        3.999146   -0.506732   -0.083390
     36          6           0        2.623469   -0.829952   -0.064525
     37          6           0       -1.907063    3.968407   -0.937912
     38          6           0       -1.649881    1.600556   -0.392538
     39          6           0        1.778354    0.272865   -0.269865
     40          6           0        2.087300   -2.189866    0.283169
     41          6           0       -0.392953    1.491278   -0.374623
     42          6           0        0.413292    0.327453   -0.260324
     43          1           0      -11.120036    1.203676   -0.142221
     44          1           0      -12.456619   -1.651266    2.426503
     45          1           0      -11.098082   -1.920941    1.205878
     46          1           0      -12.387111   -3.080650    0.172790
     47          1           0      -10.146612    0.128940    2.607757
     48          1           0      -11.058336    1.734175    2.390668
     49          1           0      -11.877951    0.338379    3.360487
     50          1           0      -13.716421    0.697480    0.132889
     51          1           0      -13.636930    0.330335    1.827409
     52          1           0      -13.013048    2.078870    1.245816
     53          1           0       12.409137    2.389989   -0.204488
     54          1           0       12.958240    2.150784    1.485954
     55          1           0      -12.890712   -1.784373   -1.956554
     56          1           0       13.773697   -0.215661    1.071753
     57          1           0       -9.297343   -1.049530    0.374130
     58          1           0       13.604744   -1.061268   -1.347308
     59          1           0       13.031511    0.498656   -1.921201
     60          1           0        9.023280    1.839090    1.438189
     61          1           0        9.902969    2.480116    0.163982
     62          1           0       10.466136    3.004590    1.808170
     63          1           0       11.959815   -0.444299    2.491984
     64          1           0       10.157413   -0.226652    2.796017
     65          1           0       11.277390    1.121155    3.309022
     66          1           0      -10.065626   -0.146544   -2.936258
     67          1           0      -11.312619    1.223223   -2.643596
     68          1           0      -11.787202   -0.367710   -3.504407
     69          1           0      -14.808217   -1.708599   -0.588410
     70          1           0        8.686719    0.352003    0.610616
     71          1           0       -8.669815    1.841344   -0.528313
     72          1           0       11.195264   -2.648743   -2.007321
     73          1           0       10.128309   -1.270017   -2.209001
     74          1           0       11.547604   -1.401861   -2.996867
     75          1           0       15.412981    1.002050    0.629829
     76          1           0        9.443143   -2.499051   -0.097085
     77          1           0       -5.527580   -1.033851   -0.092766
     78          1           0       -7.092666   -1.226406    1.096587
     79          1           0       -7.218037   -1.621826   -0.604681
     80          1           0       -6.640760    2.416610   -0.558516
     81          1           0        7.259795   -4.227398    1.385225
     82          1           0        6.263809   -3.903590   -0.365026
     83          1           0        8.143089   -4.345894   -0.391208
     84          1           0        6.615855   -0.403400   -0.451794
     85          1           0       -4.448343    0.557582   -0.038836
     86          1           0        4.807977   -2.595616    0.229012
     87          1           0       -4.635148    3.461960   -0.939319
     88          1           0        4.289500    0.454553   -0.467818
     89          1           0       -1.262037    3.837121   -1.774978
     90          1           0       -1.431088    4.643142   -0.203856
     91          1           0       -2.717384    4.718679   -1.188926
     92          1           0       -2.184803    0.542333   -0.499887
     93          1           0        2.193602    1.314413   -0.531008
     94          1           0        2.149569   -2.459461    1.249697
     95          1           0        1.166256   -2.235791   -0.007447
     96          1           0        2.630300   -2.866073   -0.358908
     97          1           0        0.240691    2.322718   -0.674437
     98          1           0       -0.091777   -0.634641   -0.122039
 ---------------------------------------------------------------------

 SCF Done:  E(RCAM-B3LYP) =  -1706.89846131     A.U. after   17 cycles

 Excitation energies and oscillator strengths:

 Excited State   1:      Singlet-A      1.7360 eV  714.20 nm  f=2.9070  <S**2>=0.000
     155 ->158         0.10958
     156 ->157         0.71495
     156 <-157        -0.16431
 This state for optimization and/or second-order correction.
 Total Energy, E(TD-HF/TD-DFT) =  -1706.83466489
 Copying the excited state density for this state as the 1-particle RhoCI density.

 The electronic state is 1-A.
 Alpha  occ. eigenvalues --  -19.22684 -19.21241 -10.31253 -10.30486 -10.29807
 Alpha  occ. eigenvalues --  -10.28803 -10.27886 -10.27729 -10.27576 -10.27564
 Alpha  occ. eigenvalues --  -10.27535 -10.27493 -10.27315 -10.27151 -10.26784
 Alpha  occ. eigenvalues --  -10.26737 -10.26513 -10.26508 -10.26286 -10.26114
 Alpha  occ. eigenvalues --  -10.26070 -10.25937 -10.25924 -10.25921 -10.25727
 Alpha  occ. eigenvalues --  -10.25632 -10.25556 -10.25489 -10.25452 -10.25434
 Alpha  occ. eigenvalues --  -10.25316 -10.25278 -10.25206 -10.25066 -10.24967
 Alpha  occ. eigenvalues --  -10.24904 -10.24871 -10.24772 -10.24414 -10.23720
 Alpha  occ. eigenvalues --  -10.23719 -10.23113  -1.09168  -1.06745  -0.94907
 Alpha  occ. eigenvalues --   -0.92550  -0.92334  -0.91606  -0.90828  -0.90044
 Alpha  occ. eigenvalues --   -0.87385  -0.86472  -0.86223  -0.85609  -0.85161
 Alpha  occ. eigenvalues --   -0.83351  -0.81921  -0.80742  -0.80054  -0.79719
 Alpha  occ. eigenvalues --   -0.76694  -0.76535  -0.75934  -0.75788  -0.75711
 Alpha  occ. eigenvalues --   -0.74959  -0.74652  -0.74385  -0.72562  -0.71137
 Alpha  occ. eigenvalues --   -0.68478  -0.67968  -0.66573  -0.64712  -0.64227
 Alpha  occ. eigenvalues --   -0.62844  -0.62314  -0.61896  -0.61318  -0.60507
 Alpha  occ. eigenvalues --   -0.59508  -0.58686  -0.57953  -0.57422  -0.56636
 Alpha  occ. eigenvalues --   -0.55498  -0.55180  -0.54711  -0.54097  -0.53670
 Alpha  occ. eigenvalues --   -0.53391  -0.53185  -0.52836  -0.51905  -0.51255
 Alpha  occ. eigenvalues --   -0.51009  -0.50756  -0.50240  -0.49759  -0.49536
 Alpha  occ. eigenvalues --   -0.49508  -0.49019  -0.48825  -0.48364  -0.47713
 Alpha  occ. eigenvalues --   -0.47579  -0.47404  -0.46976  -0.46448  -0.45953
 Alpha  occ. eigenvalues --   -0.45675  -0.45582  -0.45458  -0.44899  -0.44842
 Alpha  occ. eigenvalues --   -0.44420  -0.44282  -0.44151  -0.43755  -0.43485
 Alpha  occ. eigenvalues --   -0.42910  -0.42659  -0.42086  -0.41683  -0.41508
 Alpha  occ. eigenvalues --   -0.41221  -0.41076  -0.41029  -0.40886  -0.40553
 Alpha  occ. eigenvalues --   -0.40236  -0.40153  -0.40057  -0.39648  -0.39310
 Alpha  occ. eigenvalues --   -0.38754  -0.38624  -0.38310  -0.37955  -0.37611
 Alpha  occ. eigenvalues --   -0.37596  -0.37119  -0.36577  -0.36272  -0.35752
 Alpha  occ. eigenvalues --   -0.35601  -0.34546  -0.33216  -0.32512  -0.32296
 Alpha  occ. eigenvalues --   -0.31672  -0.29498  -0.29059  -0.27237  -0.24307
 Alpha  occ. eigenvalues --   -0.17902
 Alpha virt. eigenvalues --   -0.07666  -0.00308   0.03065   0.04840   0.06114
 Alpha virt. eigenvalues --    0.08366   0.09885   0.10618   0.11316   0.12110
 Alpha virt. eigenvalues --    0.12471   0.12549   0.12851   0.13196   0.13641

 Mulliken charges:
               1
     1  O   -0.572453
     2  O   -0.560702
     3  C   -0.002308
     4  C   -0.104941
     5  C   -0.170770
     6  C    0.209500
     7  C    0.083983
     8  C    0.002608
     9  C   -0.279717
    10  C   -0.274229
    11  C   -0.174874
    12  C   -0.165537
    13  C    0.174298
    14  C    0.066213
    15  C   -0.083521
    16  C   -0.206328
    17  C   -0.006149
    18  C   -0.318813
    19  C   -0.292938
    20  C   -0.344958
    21  C   -0.080792
    22  C   -0.114102
    23  C   -0.360301
    24  C    0.092828
    25  C   -0.096771
    26  C   -0.369576
    27  C    0.072342
    28  C   -0.100943
    29  C   -0.347470
    30  C   -0.073544
    31  C   -0.041792
    32  C   -0.111616
    33  C   -0.141685
    34  C    0.105484
    35  C   -0.119764
    36  C    0.082942
    37  C   -0.390477
    38  C   -0.117733
    39  C   -0.115093
    40  C   -0.346941
    41  C   -0.060782
    42  C   -0.090154
    43  H    0.086709
    44  H    0.091424
    45  H    0.098998
    46  H    0.089972
    47  H    0.104230
    48  H    0.088871
    49  H    0.075558
    50  H    0.094959
    51  H    0.117393
    52  H    0.043670
    53  H    0.083755
    54  H    0.078628
    55  H    0.069062
    56  H    0.063086
    57  H    0.081194
    58  H    0.089841
    59  H    0.131826
    60  H    0.089185
    61  H    0.115253
    62  H    0.093848
    63  H    0.103664
    64  H    0.090301
    65  H    0.106021
    66  H    0.121407
    67  H    0.126356
    68  H    0.090068
    69  H    0.308288
    70  H    0.082933
    71  H    0.082678
    72  H    0.118547
    73  H    0.135530
    74  H    0.099760
    75  H    0.310585
    76  H    0.087660
    77  H    0.111092
    78  H    0.137842
    79  H    0.089369
    80  H    0.063210
    81  H    0.102176
    82  H    0.119513
    83  H    0.074510
    84  H    0.072292
    85  H    0.067935
    86  H    0.084082
    87  H    0.068812
    88  H    0.098374
    89  H    0.133014
    90  H    0.122083
    91  H    0.101040
    92  H    0.063371
    93  H    0.070462
    94  H    0.140262
    95  H    0.117147
    96  H    0.116769
    97  H    0.072481
    98  H    0.070479
 Sum of Mulliken charges =  -0.00000

 Dipole moment (field-independent basis, Debye):
    X=              0.6707    Y=             -0.6644    Z=             -0.9406  Tot=              1.3326
 Quadrupole moment (field-independent basis, Debye-Ang):
   XX=           -265.4819   YY=           -250.8711   ZZ=           -261.1526
   XY=            -16.0544   XZ=             43.5095   YZ=              0.4604

 Normal termination of Gaussian 16 at Tue Jul 16 10:56:19 2019.
