 Gaussian 16, Revision A.03,
 Gaussian 16:  ES64L-G16RevA.03 25-Dec-2016

 -------------------------------------
 # td=(NStates=1) CAM-B3LYP/6-31G(d,p)
 -------------------------------------

 --
 TD
 --
 Symbolic Z-matrix:
 Charge =  0 Multiplicity = 1

                         Standard orientation:
 ---------------------------------------------------------------------
 Center     Atomic      Atomic             Coordinates (Angstroms)
 Number     Number       Type             X           Y           Z
 ---------------------------------------------------------------------
      1          8           0      -14.096812   -2.014354    0.507189
      2          8           0       14.702778    0.945865    0.187951
      3          6           0      -11.701369    0.015452    1.329104
      4          6           0      -10.981031    0.243107   -0.001486
      5          6           0      -11.935862   -1.552277    1.435484
      6          6           0      -12.761912   -2.088302    0.264924
      7          6           0      -11.668771   -0.308318   -1.210044
      8          6           0       11.118709    1.035429    1.065764
      9          6           0      -10.787730    0.444692    2.505244
     10          6           0      -13.055787    0.807058    1.467237
     11          6           0       12.515184    1.526331    0.791487
     12          6           0      -12.438150   -1.436042   -1.094691
     13          6           0       13.491860    0.393773    0.502381
     14          6           0       10.639745   -0.012892    0.003492
     15          6           0       -9.497324   -0.028932    0.078149
     16          6           0       13.092027   -0.274565   -0.851461
     17          6           0       11.551340   -0.558100   -0.834437
     18          6           0       10.140353    2.280583    1.071444
     19          6           0       10.998840    0.424541    2.411821
     20          6           0      -11.381837    0.367416   -2.560739
     21          6           0       -8.541597    0.795190   -0.169384
     22          6           0        9.283403   -0.447772   -0.008760
     23          6           0       11.279165   -1.527736   -1.900184
     24          6           0       -7.101266    0.510121   -0.085124
     25          6           0        8.765772   -1.684838   -0.025364
     26          6           0       -6.699425   -1.008803   -0.081106
     27          6           0        7.389020   -2.102236   -0.053091
     28          6           0       -6.155227    1.514393   -0.269198
     29          6           0        7.173662   -3.601635    0.227182
     30          6           0        6.403492   -1.203167   -0.209604
     31          6           0       -4.796299    1.448561   -0.291750
     32          6           0        5.016736   -1.543719   -0.196689
     33          6           0       -4.025351    2.534397   -0.500184
     34          6           0       -2.589175    2.635629   -0.595889
     35          6           0        3.959107   -0.639332   -0.402013
     36          6           0        2.633221   -0.803644   -0.265363
     37          6           0       -1.874358    3.952123   -1.091324
     38          6           0       -1.783340    1.496087   -0.505762
     39          6           0        1.730181    0.199049   -0.549482
     40          6           0        2.010288   -2.183901   -0.051990
     41          6           0       -0.338058    1.525850   -0.600136
     42          6           0        0.395384    0.376395   -0.451221
     43          1           0      -11.235976    1.333892   -0.196419
     44          1           0      -12.404523   -2.015732    2.438709
     45          1           0      -10.920940   -1.950663    1.686754
     46          1           0      -12.359478   -3.163209    0.165867
     47          1           0       -9.796781   -0.159665    2.442800
     48          1           0      -10.624410    1.636178    2.420304
     49          1           0      -11.150308    0.200264    3.448971
     50          1           0      -13.646632    0.423447    0.633683
     51          1           0      -13.556883    0.518228    2.360971
     52          1           0      -12.896402    1.782117    1.578945
     53          1           0       12.404581    2.218102    0.078659
     54          1           0       12.789950    1.940961    1.724900
     55          1           0      -12.871771   -1.952996   -2.010466
     56          1           0       13.606755   -0.294755    1.244310
     57          1           0       -9.185216   -1.084066    0.043856
     58          1           0       13.448228   -1.210524   -1.130543
     59          1           0       13.390216    0.290748   -1.728946
     60          1           0        9.161105    2.072696    1.682552
     61          1           0       10.031502    2.718887   -0.033501
     62          1           0       10.720347    3.079183    1.470384
     63          1           0       11.727279   -0.271870    2.599345
     64          1           0       10.102531   -0.160308    2.514843
     65          1           0       11.042076    1.310051    3.043917
     66          1           0      -10.400662    0.419873   -2.612828
     67          1           0      -11.809191    1.476131   -2.448033
     68          1           0      -11.830001   -0.227455   -3.427302
     69          1           0      -14.674442   -2.198408   -0.162621
     70          1           0        8.380234    0.380863    0.075918
     71          1           0       -8.807918    1.993202   -0.027796
     72          1           0       11.745813   -2.506425   -1.502489
     73          1           0       10.148796   -1.709007   -2.128518
     74          1           0       11.599712   -1.334415   -2.823735
     75          1           0       15.122116    1.304230    0.984859
     76          1           0        9.529618   -2.616965    0.095130
     77          1           0       -5.576650   -1.157498   -0.246917
     78          1           0       -7.103224   -1.316791    0.899626
     79          1           0       -7.413917   -1.550341   -0.689833
     80          1           0       -6.635263    2.557863   -0.273019
     81          1           0        6.577307   -3.759785    1.177143
     82          1           0        6.577572   -3.931920   -0.719236
     83          1           0        8.357117   -4.006314    0.452608
     84          1           0        6.360954   -0.223262   -0.541492
     85          1           0       -4.295960    0.513713   -0.039627
     86          1           0        4.699956   -2.468005   -0.187599
     87          1           0       -4.346067    3.551201   -0.553178
     88          1           0        4.241667    0.452480   -0.421497
     89          1           0       -1.576713    3.653052   -2.064821
     90          1           0       -1.300288    4.550395   -0.421716
     91          1           0       -2.670846    4.554506   -1.322158
     92          1           0       -2.238011    0.451534   -0.498966
     93          1           0        2.009952    1.194352   -0.877379
     94          1           0        2.499718   -2.821421    0.802541
     95          1           0        0.989450   -2.273584   -0.188058
     96          1           0        2.389096   -2.809035   -1.028712
     97          1           0        0.179752    2.415481   -0.976191
     98          1           0       -0.194369   -0.391102   -0.128538
 ---------------------------------------------------------------------

 SCF Done:  E(RCAM-B3LYP) =  -1706.97391909     A.U. after   15 cycles

 Excitation energies and oscillator strengths:

 Excited State   1:      Singlet-A      2.1527 eV  575.94 nm  f=3.1827  <S**2>=0.000
     155 ->158        -0.14855
     156 ->157         0.69255
 This state for optimization and/or second-order correction.
 Total Energy, E(TD-HF/TD-DFT) =  -1706.89480765
 Copying the excited state density for this state as the 1-particle RhoCI density.

 The electronic state is 1-A.
 Alpha  occ. eigenvalues --  -19.20876 -19.20701 -10.31280 -10.29760 -10.28398
 Alpha  occ. eigenvalues --  -10.27681 -10.27413 -10.27105 -10.27064 -10.26849
 Alpha  occ. eigenvalues --  -10.26659 -10.26548 -10.26541 -10.26523 -10.26518
 Alpha  occ. eigenvalues --  -10.26488 -10.26428 -10.26383 -10.26326 -10.26283
 Alpha  occ. eigenvalues --  -10.26074 -10.26066 -10.25978 -10.25925 -10.25866
 Alpha  occ. eigenvalues --  -10.25723 -10.25670 -10.25645 -10.25571 -10.25447
 Alpha  occ. eigenvalues --  -10.25256 -10.25046 -10.25026 -10.24810 -10.24784
 Alpha  occ. eigenvalues --  -10.24757 -10.24598 -10.24502 -10.24227 -10.23268
 Alpha  occ. eigenvalues --  -10.22847 -10.21849  -1.12287  -1.11133  -0.93631
 Alpha  occ. eigenvalues --   -0.93281  -0.92535  -0.91591  -0.90782  -0.89566
 Alpha  occ. eigenvalues --   -0.88004  -0.87479  -0.85809  -0.85615  -0.84695
 Alpha  occ. eigenvalues --   -0.82740  -0.82180  -0.80511  -0.79978  -0.78421
 Alpha  occ. eigenvalues --   -0.76749  -0.76712  -0.75977  -0.75962  -0.75798
 Alpha  occ. eigenvalues --   -0.75629  -0.75266  -0.74128  -0.73038  -0.70914
 Alpha  occ. eigenvalues --   -0.69188  -0.68291  -0.67677  -0.65427  -0.63345
 Alpha  occ. eigenvalues --   -0.63131  -0.62748  -0.62623  -0.61536  -0.60691
 Alpha  occ. eigenvalues --   -0.60195  -0.59859  -0.58534  -0.57434  -0.56100
 Alpha  occ. eigenvalues --   -0.55972  -0.55463  -0.54688  -0.53898  -0.53635
 Alpha  occ. eigenvalues --   -0.53303  -0.52487  -0.52162  -0.51803  -0.51362
 Alpha  occ. eigenvalues --   -0.51241  -0.50879  -0.50006  -0.49992  -0.49445
 Alpha  occ. eigenvalues --   -0.48768  -0.48644  -0.48569  -0.48368  -0.48076
 Alpha  occ. eigenvalues --   -0.47690  -0.47109  -0.46967  -0.46802  -0.46282
 Alpha  occ. eigenvalues --   -0.45893  -0.45797  -0.45648  -0.45133  -0.44877
 Alpha  occ. eigenvalues --   -0.44268  -0.44218  -0.43887  -0.43640  -0.43493
 Alpha  occ. eigenvalues --   -0.43011  -0.42856  -0.42306  -0.42132  -0.41640
 Alpha  occ. eigenvalues --   -0.41363  -0.41152  -0.40961  -0.40822  -0.40381
 Alpha  occ. eigenvalues --   -0.40228  -0.39893  -0.39744  -0.39629  -0.39069
 Alpha  occ. eigenvalues --   -0.38915  -0.38797  -0.38127  -0.38043  -0.37788
 Alpha  occ. eigenvalues --   -0.37614  -0.37073  -0.36421  -0.35675  -0.35326
 Alpha  occ. eigenvalues --   -0.34920  -0.34368  -0.33894  -0.32234  -0.31705
 Alpha  occ. eigenvalues --   -0.31133  -0.29535  -0.28896  -0.26828  -0.23698
 Alpha  occ. eigenvalues --   -0.19233
 Alpha virt. eigenvalues --   -0.05870  -0.00825   0.03154   0.06181   0.07918
 Alpha virt. eigenvalues --    0.09517   0.11058   0.11649   0.12292   0.12674
 Alpha virt. eigenvalues --    0.12840   0.13400   0.13636   0.14256   0.14370

 Mulliken charges:
               1
     1  O   -0.514767
     2  O   -0.549874
     3  C    0.000498
     4  C   -0.117737
     5  C   -0.182408
     6  C    0.168117
     7  C    0.092629
     8  C   -0.026844
     9  C   -0.291841
    10  C   -0.294789
    11  C   -0.167126
    12  C   -0.163752
    13  C    0.174632
    14  C    0.083006
    15  C   -0.080072
    16  C   -0.208799
    17  C    0.024232
    18  C   -0.319913
    19  C   -0.292689
    20  C   -0.334047
    21  C   -0.070509
    22  C   -0.135113
    23  C   -0.364107
    24  C    0.071623
    25  C   -0.094960
    26  C   -0.377331
    27  C    0.087802
    28  C   -0.112112
    29  C   -0.348451
    30  C   -0.088827
    31  C   -0.060060
    32  C   -0.084049
    33  C   -0.091913
    34  C    0.017160
    35  C   -0.142599
    36  C    0.152014
    37  C   -0.370076
    38  C   -0.116045
    39  C   -0.122914
    40  C   -0.373663
    41  C   -0.091767
    42  C   -0.066195
    43  H    0.084267
    44  H    0.083900
    45  H    0.091033
    46  H    0.058852
    47  H    0.087447
    48  H    0.075680
    49  H    0.108586
    50  H    0.111720
    51  H    0.106743
    52  H    0.096566
    53  H    0.107905
    54  H    0.078403
    55  H    0.069679
    56  H    0.084177
    57  H    0.079999
    58  H    0.104902
    59  H    0.124808
    60  H    0.104888
    61  H    0.087812
    62  H    0.105909
    63  H    0.098229
    64  H    0.111011
    65  H    0.094133
    66  H    0.138450
    67  H    0.097114
    68  H    0.104225
    69  H    0.300553
    70  H    0.076648
    71  H    0.061834
    72  H    0.101232
    73  H    0.103057
    74  H    0.121313
    75  H    0.294754
    76  H    0.061401
    77  H    0.110327
    78  H    0.124087
    79  H    0.129693
    80  H    0.074286
    81  H    0.128845
    82  H    0.126279
    83  H    0.089115
    84  H    0.087699
    85  H    0.088917
    86  H    0.058599
    87  H    0.075596
    88  H    0.072369
    89  H    0.143377
    90  H    0.132996
    91  H    0.108348
    92  H    0.083568
    93  H    0.059100
    94  H    0.108351
    95  H    0.125662
    96  H    0.093275
    97  H    0.088648
    98  H    0.057270
 Sum of Mulliken charges =  -0.00000

 Dipole moment (field-independent basis, Debye):
    X=              1.0916    Y=             -0.3983    Z=             -0.1382  Tot=              1.1702
 Quadrupole moment (field-independent basis, Debye-Ang):
   XX=           -246.8518   YY=           -244.6327   ZZ=           -260.6983
   XY=              5.5288   XZ=             36.4321   YZ=              1.8358

 Normal termination of Gaussian 16 at Sat Jul 13 02:25:13 2019.
