 Gaussian 16, Revision A.03,
 Gaussian 16:  ES64L-G16RevA.03 25-Dec-2016

 -------------------------------------
 # td=(NStates=1) CAM-B3LYP/6-31G(d,p)
 -------------------------------------

 --
 TD
 --
 Symbolic Z-matrix:
 Charge =  0 Multiplicity = 1

                         Standard orientation:
 ---------------------------------------------------------------------
 Center     Atomic      Atomic             Coordinates (Angstroms)
 Number     Number       Type             X           Y           Z
 ---------------------------------------------------------------------
      1          8           0      -13.982944   -2.094792    0.389989
      2          8           0       14.759616    0.846735    0.019746
      3          6           0      -11.736666    0.011503    1.317424
      4          6           0      -10.956183    0.334986   -0.010604
      5          6           0      -11.801733   -1.590349    1.368248
      6          6           0      -12.577260   -2.210209    0.193440
      7          6           0      -11.562642   -0.356181   -1.280443
      8          6           0       11.024011    0.932283    1.035480
      9          6           0      -10.896946    0.419766    2.511229
     10          6           0      -13.138311    0.649532    1.224537
     11          6           0       12.452014    1.499276    0.823197
     12          6           0      -12.166450   -1.672301   -1.089806
     13          6           0       13.488568    0.384167    0.400154
     14          6           0       10.616474   -0.114979    0.001756
     15          6           0       -9.495683   -0.004840   -0.044454
     16          6           0       12.955188   -0.159919   -0.932752
     17          6           0       11.523571   -0.543078   -0.958603
     18          6           0       10.180380    2.197764    1.128934
     19          6           0       11.021280    0.150883    2.495810
     20          6           0      -11.412232    0.232487   -2.611133
     21          6           0       -8.438177    0.894094   -0.053128
     22          6           0        9.219275   -0.562102   -0.030453
     23          6           0       11.199100   -1.472858   -2.070323
     24          6           0       -7.076942    0.601038   -0.133803
     25          6           0        8.692871   -1.833469   -0.150112
     26          6           0       -6.671222   -0.831045    0.066996
     27          6           0        7.359658   -2.044527   -0.084967
     28          6           0       -6.220473    1.595984   -0.188098
     29          6           0        6.905482   -3.547145    0.104470
     30          6           0        6.340299   -1.139404   -0.242042
     31          6           0       -4.847212    1.525640   -0.312526
     32          6           0        4.918167   -1.395796   -0.089910
     33          6           0       -4.027258    2.681678   -0.484757
     34          6           0       -2.588375    2.673829   -0.630192
     35          6           0        3.943713   -0.462974   -0.321614
     36          6           0        2.661023   -0.754335   -0.066798
     37          6           0       -1.915297    4.072715   -0.928346
     38          6           0       -1.735367    1.637866   -0.528316
     39          6           0        1.754011    0.342598   -0.352912
     40          6           0        2.191246   -2.203581    0.280949
     41          6           0       -0.325863    1.603776   -0.429336
     42          6           0        0.371605    0.378293   -0.226940
     43          1           0      -11.268234    1.436179   -0.080926
     44          1           0      -12.472970   -1.711965    2.266850
     45          1           0      -10.765161   -2.178615    1.547475
     46          1           0      -12.309504   -3.453546    0.178224
     47          1           0       -9.942741   -0.088103    2.756711
     48          1           0      -10.654950    1.473612    2.285183
     49          1           0      -11.654648    0.459445    3.328378
     50          1           0      -13.637645    0.399537    0.362507
     51          1           0      -13.962100    0.266839    1.942115
     52          1           0      -13.167875    1.792217    1.386132
     53          1           0       12.390779    2.204905   -0.197319
     54          1           0       12.721718    2.317790    1.571459
     55          1           0      -12.411132   -2.035405   -2.062596
     56          1           0       13.715969   -0.491377    1.259955
     57          1           0       -9.221489   -1.096349    0.028598
     58          1           0       13.751618   -0.930547   -1.435241
     59          1           0       13.023250    0.554153   -1.649149
     60          1           0        9.212548    2.097484    1.564795
     61          1           0       10.040103    2.596213    0.067808
     62          1           0       10.678137    3.046426    1.706333
     63          1           0       11.759152   -0.728421    2.475429
     64          1           0       10.015028   -0.209603    2.574623
     65          1           0       11.302454    0.796094    3.246012
     66          1           0      -10.320851    0.544648   -2.623575
     67          1           0      -11.792169    1.249987   -2.627682
     68          1           0      -11.682952   -0.551703   -3.469203
     69          1           0      -14.233707   -2.696035   -0.300963
     70          1           0        8.657064    0.185790    0.486857
     71          1           0       -8.674332    2.066406   -0.290918
     72          1           0       11.162300   -2.733029   -1.715578
     73          1           0       10.228130   -1.332385   -2.360426
     74          1           0       11.976110   -1.425432   -3.010563
     75          1           0       15.295016    0.978329    0.815526
     76          1           0        9.229621   -2.870258   -0.417688
     77          1           0       -5.681889   -1.122380    0.198188
     78          1           0       -7.326082   -1.409029    0.724627
     79          1           0       -6.978957   -1.432594   -0.879089
     80          1           0       -6.777112    2.650338   -0.290373
     81          1           0        6.505505   -3.644969    1.311376
     82          1           0        6.066534   -3.866058   -0.470389
     83          1           0        7.734168   -4.290793   -0.165225
     84          1           0        6.624773   -0.072534   -0.307304
     85          1           0       -4.335084    0.543905   -0.265866
     86          1           0        4.575938   -2.334726   -0.106995
     87          1           0       -4.457836    3.563448   -0.552952
     88          1           0        4.264842    0.679689   -0.556416
     89          1           0       -1.408172    4.046705   -1.889798
     90          1           0       -0.992231    4.136145   -0.177244
     91          1           0       -2.725952    4.752067   -0.869367
     92          1           0       -2.101487    0.602706   -0.295462
     93          1           0        2.160595    1.401727   -0.694820
     94          1           0        2.716257   -2.725921    1.311505
     95          1           0        1.066492   -2.316409    0.651896
     96          1           0        2.564708   -2.673516   -0.752482
     97          1           0        0.280882    2.490547   -0.781734
     98          1           0       -0.341659   -0.453567   -0.230637
 ---------------------------------------------------------------------

 SCF Done:  E(RCAM-B3LYP) =  -1706.93249078     A.U. after   15 cycles

 Excitation energies and oscillator strengths:

 Excited State   1:      Singlet-A      1.9072 eV  650.09 nm  f=3.2116  <S**2>=0.000
     155 ->158         0.14734
     156 ->157         0.69423
 This state for optimization and/or second-order correction.
 Total Energy, E(TD-HF/TD-DFT) =  -1706.86240280
 Copying the excited state density for this state as the 1-particle RhoCI density.

 The electronic state is 1-A.
 Alpha  occ. eigenvalues --  -19.21323 -19.21321 -10.32427 -10.31854 -10.30162
 Alpha  occ. eigenvalues --  -10.28166 -10.28017 -10.27976 -10.27581 -10.27427
 Alpha  occ. eigenvalues --  -10.27145 -10.27137 -10.27129 -10.27109 -10.27073
 Alpha  occ. eigenvalues --  -10.27062 -10.27021 -10.27008 -10.26985 -10.26903
 Alpha  occ. eigenvalues --  -10.26878 -10.26686 -10.26672 -10.26572 -10.26387
 Alpha  occ. eigenvalues --  -10.26305 -10.26217 -10.26213 -10.26198 -10.26169
 Alpha  occ. eigenvalues --  -10.26059 -10.25953 -10.25772 -10.25561 -10.25509
 Alpha  occ. eigenvalues --  -10.25488 -10.25067 -10.24926 -10.24823 -10.24357
 Alpha  occ. eigenvalues --  -10.24355 -10.24224  -1.10584  -1.10045  -0.93178
 Alpha  occ. eigenvalues --   -0.93132  -0.92229  -0.91972  -0.90761  -0.90134
 Alpha  occ. eigenvalues --   -0.87184  -0.86674  -0.86204  -0.84884  -0.83974
 Alpha  occ. eigenvalues --   -0.82562  -0.81470  -0.80275  -0.79011  -0.77789
 Alpha  occ. eigenvalues --   -0.77127  -0.76081  -0.75983  -0.75319  -0.75308
 Alpha  occ. eigenvalues --   -0.74902  -0.74274  -0.74208  -0.72602  -0.70561
 Alpha  occ. eigenvalues --   -0.69457  -0.67264  -0.65651  -0.65355  -0.63477
 Alpha  occ. eigenvalues --   -0.63015  -0.62087  -0.61633  -0.60229  -0.59601
 Alpha  occ. eigenvalues --   -0.58907  -0.58093  -0.57629  -0.56900  -0.56029
 Alpha  occ. eigenvalues --   -0.55057  -0.54670  -0.54120  -0.53891  -0.53832
 Alpha  occ. eigenvalues --   -0.53284  -0.52441  -0.52195  -0.51450  -0.50699
 Alpha  occ. eigenvalues --   -0.49674  -0.49455  -0.49119  -0.48960  -0.48862
 Alpha  occ. eigenvalues --   -0.48690  -0.48521  -0.47863  -0.47620  -0.47076
 Alpha  occ. eigenvalues --   -0.46821  -0.46787  -0.46364  -0.46090  -0.45990
 Alpha  occ. eigenvalues --   -0.45734  -0.45434  -0.45381  -0.45105  -0.44867
 Alpha  occ. eigenvalues --   -0.44425  -0.44165  -0.43908  -0.43678  -0.43503
 Alpha  occ. eigenvalues --   -0.43031  -0.42846  -0.42625  -0.42071  -0.41906
 Alpha  occ. eigenvalues --   -0.41689  -0.41442  -0.41027  -0.40871  -0.40596
 Alpha  occ. eigenvalues --   -0.40279  -0.39963  -0.39823  -0.39637  -0.39361
 Alpha  occ. eigenvalues --   -0.39047  -0.38868  -0.38712  -0.38395  -0.37961
 Alpha  occ. eigenvalues --   -0.37703  -0.37405  -0.36930  -0.36455  -0.35827
 Alpha  occ. eigenvalues --   -0.34777  -0.34231  -0.33951  -0.31915  -0.31687
 Alpha  occ. eigenvalues --   -0.31382  -0.29273  -0.27238  -0.26234  -0.23236
 Alpha  occ. eigenvalues --   -0.18645
 Alpha virt. eigenvalues --   -0.06599  -0.01684   0.01792   0.04606   0.06678
 Alpha virt. eigenvalues --    0.08392   0.10564   0.11108   0.11607   0.11870
 Alpha virt. eigenvalues --    0.12091   0.12403   0.12860   0.12899   0.13450

 Mulliken charges:
               1
     1  O   -0.517436
     2  O   -0.547920
     3  C    0.032232
     4  C   -0.131886
     5  C   -0.183872
     6  C    0.123265
     7  C    0.094163
     8  C   -0.016907
     9  C   -0.299407
    10  C   -0.324517
    11  C   -0.196472
    12  C   -0.114711
    13  C    0.177460
    14  C    0.059779
    15  C   -0.093349
    16  C   -0.228830
    17  C    0.085460
    18  C   -0.313817
    19  C   -0.301890
    20  C   -0.358584
    21  C   -0.115552
    22  C   -0.149256
    23  C   -0.344890
    24  C    0.190253
    25  C   -0.084815
    26  C   -0.393802
    27  C    0.109364
    28  C   -0.128797
    29  C   -0.358408
    30  C   -0.122002
    31  C   -0.081678
    32  C   -0.091444
    33  C   -0.094780
    34  C    0.071553
    35  C   -0.087095
    36  C    0.103404
    37  C   -0.365677
    38  C   -0.120251
    39  C   -0.140422
    40  C   -0.351936
    41  C   -0.087594
    42  C   -0.078978
    43  H    0.078787
    44  H    0.105605
    45  H    0.083980
    46  H    0.029908
    47  H    0.112742
    48  H    0.093355
    49  H    0.100496
    50  H    0.141166
    51  H    0.102435
    52  H    0.085729
    53  H    0.071572
    54  H    0.088772
    55  H    0.062667
    56  H    0.051649
    57  H    0.091220
    58  H    0.095429
    59  H    0.143041
    60  H    0.104804
    61  H    0.103999
    62  H    0.099372
    63  H    0.096231
    64  H    0.109836
    65  H    0.104693
    66  H    0.116756
    67  H    0.128312
    68  H    0.107874
    69  H    0.305495
    70  H    0.090077
    71  H    0.066695
    72  H    0.073704
    73  H    0.135677
    74  H    0.090367
    75  H    0.304980
    76  H    0.087532
    77  H    0.119286
    78  H    0.123791
    79  H    0.106558
    80  H    0.070527
    81  H    0.088610
    82  H    0.125973
    83  H    0.093368
    84  H    0.071717
    85  H    0.090151
    86  H    0.074328
    87  H    0.068222
    88  H    0.078949
    89  H    0.130251
    90  H    0.109767
    91  H    0.108028
    92  H    0.062180
    93  H    0.082704
    94  H    0.099712
    95  H    0.114042
    96  H    0.128945
    97  H    0.078537
    98  H    0.089445
 Sum of Mulliken charges =  -0.00000

 Dipole moment (field-independent basis, Debye):
    X=              1.1290    Y=             -0.6291    Z=             -0.3626  Tot=              1.3423
 Quadrupole moment (field-independent basis, Debye-Ang):
   XX=           -268.2042   YY=           -246.1548   ZZ=           -263.4118
   XY=              4.6630   XZ=             35.1460   YZ=              2.8535

 Normal termination of Gaussian 16 at Fri Jul 12 17:33:51 2019.
