 Gaussian 16, Revision A.03,
 Gaussian 16:  ES64L-G16RevA.03 25-Dec-2016

 -------------------------------------
 # td=(NStates=1) CAM-B3LYP/6-31G(d,p)
 -------------------------------------

 --
 TD
 --
 Symbolic Z-matrix:
 Charge =  0 Multiplicity = 1

                         Standard orientation:
 ---------------------------------------------------------------------
 Center     Atomic      Atomic             Coordinates (Angstroms)
 Number     Number       Type             X           Y           Z
 ---------------------------------------------------------------------
      1          8           0      -14.111663   -1.928293    0.628778
      2          8           0       14.837770    0.786150    0.081502
      3          6           0      -11.698641    0.097878    1.261085
      4          6           0      -10.969983    0.275814   -0.078662
      5          6           0      -11.876590   -1.345366    1.470574
      6          6           0      -12.581921   -2.050661    0.396031
      7          6           0      -11.551026   -0.499373   -1.255247
      8          6           0       11.181730    0.981657    1.062436
      9          6           0      -10.942902    0.828044    2.459510
     10          6           0      -13.060702    0.816285    1.200494
     11          6           0       12.561803    1.488794    0.797201
     12          6           0      -12.286354   -1.587019   -0.971051
     13          6           0       13.486585    0.360488    0.319369
     14          6           0       10.554749   -0.030984    0.043033
     15          6           0       -9.516939   -0.058310    0.061316
     16          6           0       13.010622   -0.232627   -0.953507
     17          6           0       11.454781   -0.516414   -0.909504
     18          6           0       10.188320    2.223572    1.227021
     19          6           0       11.149244    0.356798    2.507451
     20          6           0      -11.137736   -0.233814   -2.634737
     21          6           0       -8.506902    0.849489    0.012786
     22          6           0        9.260666   -0.430380    0.176338
     23          6           0       11.134139   -1.448185   -2.055482
     24          6           0       -7.083155    0.554747    0.034929
     25          6           0        8.680970   -1.572934   -0.187160
     26          6           0       -6.607618   -0.898753    0.246940
     27          6           0        7.367485   -2.051677    0.015664
     28          6           0       -6.243431    1.583072   -0.291445
     29          6           0        7.078194   -3.540080    0.153122
     30          6           0        6.294273   -1.136198   -0.113255
     31          6           0       -4.835654    1.441909   -0.441680
     32          6           0        4.929570   -1.478831   -0.053986
     33          6           0       -4.001296    2.557261   -0.736904
     34          6           0       -2.535965    2.646328   -0.852840
     35          6           0        3.964232   -0.604648   -0.241988
     36          6           0        2.557089   -0.707147   -0.208515
     37          6           0       -1.969296    3.889058   -1.334836
     38          6           0       -1.824109    1.501547   -0.496667
     39          6           0        1.653253    0.289491   -0.469862
     40          6           0        2.069469   -2.151845    0.061554
     41          6           0       -0.454141    1.377201   -0.556060
     42          6           0        0.256255    0.181099   -0.343400
     43          1           0      -10.864207    1.261095   -0.409551
     44          1           0      -12.411135   -1.561547    2.368877
     45          1           0      -10.894407   -1.778332    1.505580
     46          1           0      -12.449845   -3.112203    0.436662
     47          1           0      -10.086008    0.322131    2.676887
     48          1           0      -10.660192    1.825860    2.219009
     49          1           0      -11.543890    0.699780    3.466818
     50          1           0      -13.644159   -0.117899    0.437845
     51          1           0      -13.371159    0.898029    2.120438
     52          1           0      -12.989114    1.969817    0.735084
     53          1           0       12.788411    2.113797   -0.090843
     54          1           0       12.997184    1.832672    1.708283
     55          1           0      -12.724025   -2.227767   -1.874328
     56          1           0       13.490422   -0.458116    1.165251
     57          1           0       -9.338515   -1.130795    0.129612
     58          1           0       13.471822   -1.157105   -0.978786
     59          1           0       13.139434    0.531634   -1.844883
     60          1           0        9.136407    1.755539    1.789696
     61          1           0        9.747200    2.760570    0.158957
     62          1           0       10.672137    3.095013    1.859970
     63          1           0       11.761997   -0.477990    2.681277
     64          1           0       10.129728   -0.087000    2.678084
     65          1           0       11.493012    1.146361    3.237332
     66          1           0       -9.877999   -0.295575   -2.648864
     67          1           0      -11.195671    0.993955   -2.835819
     68          1           0      -11.731599   -0.655896   -3.432089
     69          1           0      -14.381104   -2.618264   -0.156480
     70          1           0        8.497484    0.135761    0.608680
     71          1           0       -8.565066    2.049912   -0.150309
     72          1           0       11.470896   -2.523731   -1.963349
     73          1           0       10.086896   -1.519863   -2.261166
     74          1           0       11.750830   -1.107112   -2.915900
     75          1           0       15.202954    1.575119    1.031422
     76          1           0        9.270651   -2.598460   -0.300864
     77          1           0       -5.651832   -1.190929    0.537315
     78          1           0       -7.155951   -1.106978    1.062792
     79          1           0       -6.959690   -1.481085   -0.605711
     80          1           0       -6.520343    2.541833   -0.507160
     81          1           0        6.408615   -3.799999    1.059209
     82          1           0        6.507875   -3.967820   -0.715250
     83          1           0        8.089675   -4.047070    0.057567
     84          1           0        6.432585   -0.063951   -0.333216
     85          1           0       -4.371683    0.417282   -0.257318
     86          1           0        4.604453   -2.503474    0.072313
     87          1           0       -4.792457    3.358545   -1.076511
     88          1           0        4.113688    0.354570   -0.640930
     89          1           0       -1.282610    3.855689   -2.113468
     90          1           0       -1.240720    4.227836   -0.566737
     91          1           0       -2.617221    4.704191   -1.204505
     92          1           0       -2.290423    0.476862   -0.306566
     93          1           0        1.958035    1.371963   -0.770706
     94          1           0        2.288319   -2.394051    1.084592
     95          1           0        0.945139   -2.241297    0.045747
     96          1           0        2.779700   -2.773370   -0.667916
     97          1           0       -0.001228    2.128447   -1.039999
     98          1           0       -0.326538   -0.621157    0.131278
 ---------------------------------------------------------------------

 SCF Done:  E(RCAM-B3LYP) =  -1706.89151097     A.U. after   15 cycles

 Excitation energies and oscillator strengths:

 Excited State   1:      Singlet-A      2.1122 eV  586.98 nm  f=3.1399  <S**2>=0.000
     155 ->158         0.16267
     156 ->157         0.68786
 This state for optimization and/or second-order correction.
 Total Energy, E(TD-HF/TD-DFT) =  -1706.81388767
 Copying the excited state density for this state as the 1-particle RhoCI density.

 The electronic state is 1-A.
 Alpha  occ. eigenvalues --  -19.23088 -19.22105 -10.30776 -10.30244 -10.28686
 Alpha  occ. eigenvalues --  -10.28412 -10.28351 -10.28293 -10.27762 -10.27727
 Alpha  occ. eigenvalues --  -10.27681 -10.27587 -10.27386 -10.27253 -10.27155
 Alpha  occ. eigenvalues --  -10.27017 -10.26911 -10.26869 -10.26710 -10.26462
 Alpha  occ. eigenvalues --  -10.26375 -10.26159 -10.26141 -10.26107 -10.26097
 Alpha  occ. eigenvalues --  -10.26047 -10.25958 -10.25892 -10.25690 -10.25449
 Alpha  occ. eigenvalues --  -10.25336 -10.25223 -10.25125 -10.24968 -10.24957
 Alpha  occ. eigenvalues --  -10.24912 -10.24896 -10.24636 -10.24631 -10.24332
 Alpha  occ. eigenvalues --  -10.23754 -10.23423  -1.05583  -1.05567  -0.94799
 Alpha  occ. eigenvalues --   -0.93501  -0.92534  -0.91819  -0.91039  -0.90170
 Alpha  occ. eigenvalues --   -0.87883  -0.87439  -0.86449  -0.86054  -0.85364
 Alpha  occ. eigenvalues --   -0.83718  -0.82949  -0.80891  -0.80092  -0.78965
 Alpha  occ. eigenvalues --   -0.77929  -0.76372  -0.76065  -0.75929  -0.75705
 Alpha  occ. eigenvalues --   -0.75376  -0.74189  -0.73435  -0.72812  -0.70558
 Alpha  occ. eigenvalues --   -0.68973  -0.67920  -0.65844  -0.63959  -0.63481
 Alpha  occ. eigenvalues --   -0.63142  -0.63027  -0.62909  -0.61172  -0.60319
 Alpha  occ. eigenvalues --   -0.59861  -0.58406  -0.57889  -0.57319  -0.56670
 Alpha  occ. eigenvalues --   -0.56037  -0.55550  -0.54545  -0.54175  -0.53530
 Alpha  occ. eigenvalues --   -0.53456  -0.52992  -0.52850  -0.51746  -0.50835
 Alpha  occ. eigenvalues --   -0.50292  -0.50096  -0.49972  -0.49476  -0.49036
 Alpha  occ. eigenvalues --   -0.48621  -0.48536  -0.48476  -0.48102  -0.47974
 Alpha  occ. eigenvalues --   -0.47667  -0.47410  -0.46726  -0.46611  -0.45926
 Alpha  occ. eigenvalues --   -0.45724  -0.45619  -0.45361  -0.44751  -0.44737
 Alpha  occ. eigenvalues --   -0.44245  -0.44151  -0.43830  -0.43469  -0.43195
 Alpha  occ. eigenvalues --   -0.42910  -0.42802  -0.42588  -0.42480  -0.42204
 Alpha  occ. eigenvalues --   -0.41881  -0.41722  -0.41326  -0.41100  -0.40683
 Alpha  occ. eigenvalues --   -0.40143  -0.39967  -0.39727  -0.39584  -0.39483
 Alpha  occ. eigenvalues --   -0.39181  -0.38927  -0.38698  -0.38520  -0.38031
 Alpha  occ. eigenvalues --   -0.37504  -0.37254  -0.37185  -0.36999  -0.36341
 Alpha  occ. eigenvalues --   -0.34894  -0.34519  -0.34252  -0.32184  -0.31204
 Alpha  occ. eigenvalues --   -0.30939  -0.29418  -0.28816  -0.26667  -0.23186
 Alpha  occ. eigenvalues --   -0.19357
 Alpha virt. eigenvalues --   -0.05944  -0.01531   0.02380   0.04256   0.04874
 Alpha virt. eigenvalues --    0.06199   0.09065   0.10276   0.11257   0.11848
 Alpha virt. eigenvalues --    0.12351   0.13114   0.13211   0.13687   0.13795

 Mulliken charges:
               1
     1  O   -0.541198
     2  O   -0.555045
     3  C    0.007914
     4  C   -0.126583
     5  C   -0.166268
     6  C    0.060475
     7  C    0.154996
     8  C   -0.023703
     9  C   -0.306600
    10  C   -0.261533
    11  C   -0.177725
    12  C   -0.118709
    13  C    0.172373
    14  C    0.136274
    15  C   -0.117203
    16  C   -0.199772
    17  C   -0.000672
    18  C   -0.267960
    19  C   -0.303444
    20  C   -0.354531
    21  C   -0.089340
    22  C   -0.116772
    23  C   -0.359495
    24  C    0.087581
    25  C   -0.102885
    26  C   -0.364800
    27  C    0.048769
    28  C   -0.122306
    29  C   -0.366473
    30  C   -0.109233
    31  C   -0.051113
    32  C   -0.076569
    33  C   -0.155542
    34  C    0.099131
    35  C   -0.089334
    36  C    0.083045
    37  C   -0.394455
    38  C   -0.112526
    39  C   -0.132958
    40  C   -0.367917
    41  C   -0.071135
    42  C   -0.081239
    43  H    0.088782
    44  H    0.118970
    45  H    0.100378
    46  H    0.104667
    47  H    0.104481
    48  H    0.108279
    49  H    0.081219
    50  H    0.119172
    51  H    0.099611
    52  H    0.049872
    53  H    0.104830
    54  H    0.079863
    55  H    0.059877
    56  H    0.057309
    57  H    0.091613
    58  H    0.132685
    59  H    0.115876
    60  H    0.070791
    61  H    0.074154
    62  H    0.092087
    63  H    0.111056
    64  H    0.105648
    65  H    0.094669
    66  H    0.109252
    67  H    0.080990
    68  H    0.126954
    69  H    0.297753
    70  H    0.088653
    71  H    0.082198
    72  H    0.108951
    73  H    0.122900
    74  H    0.102461
    75  H    0.268884
    76  H    0.059373
    77  H    0.117576
    78  H    0.130821
    79  H    0.125235
    80  H    0.073031
    81  H    0.123711
    82  H    0.123769
    83  H    0.102939
    84  H    0.088070
    85  H    0.074700
    86  H    0.076030
    87  H    0.071434
    88  H    0.066457
    89  H    0.141273
    90  H    0.122658
    91  H    0.128528
    92  H    0.078255
    93  H    0.083714
    94  H    0.126312
    95  H    0.098752
    96  H    0.108036
    97  H    0.066801
    98  H    0.092116
 Sum of Mulliken charges =  -0.00000

 Dipole moment (field-independent basis, Debye):
    X=              0.6483    Y=             -1.2071    Z=             -0.3555  Tot=              1.4156
 Quadrupole moment (field-independent basis, Debye-Ang):
   XX=           -316.6240   YY=           -239.4295   ZZ=           -261.5122
   XY=             22.2090   XZ=             34.5295   YZ=              0.7008

 Normal termination of Gaussian 16 at Sun Jul 14 01:15:37 2019.
