 Gaussian 16, Revision A.03,
 Gaussian 16:  ES64L-G16RevA.03 25-Dec-2016

 -------------------------------------
 # td=(NStates=1) CAM-B3LYP/6-31G(d,p)
 -------------------------------------

 --
 TD
 --
 Symbolic Z-matrix:
 Charge =  0 Multiplicity = 1

                         Standard orientation:
 ---------------------------------------------------------------------
 Center     Atomic      Atomic             Coordinates (Angstroms)
 Number     Number       Type             X           Y           Z
 ---------------------------------------------------------------------
      1          8           0      -13.926165   -2.211691    0.569925
      2          8           0       14.837479    0.713770    0.470347
      3          6           0      -11.663489   -0.150668    1.386407
      4          6           0      -10.959834    0.273576    0.091213
      5          6           0      -11.883833   -1.627739    1.544597
      6          6           0      -12.513839   -2.310325    0.340183
      7          6           0      -11.547492   -0.478898   -1.111128
      8          6           0       11.021098    0.782855    1.243522
      9          6           0      -10.868613    0.309513    2.572308
     10          6           0      -12.996744    0.660653    1.448079
     11          6           0       12.536071    1.312088    1.035555
     12          6           0      -12.344808   -1.518098   -0.978010
     13          6           0       13.527558    0.221831    0.562630
     14          6           0       10.652926   -0.052388    0.131602
     15          6           0       -9.482642    0.003279    0.008595
     16          6           0       12.996624   -0.204996   -0.808414
     17          6           0       11.533897   -0.433637   -0.894511
     18          6           0       10.188787    2.055183    1.228483
     19          6           0       10.952498    0.052714    2.474691
     20          6           0      -11.437624    0.217255   -2.501147
     21          6           0       -8.575383    0.932050   -0.231424
     22          6           0        9.302093   -0.379867    0.084248
     23          6           0       11.122931   -1.218253   -2.097867
     24          6           0       -7.092048    0.586096   -0.234721
     25          6           0        8.681910   -1.588215   -0.258326
     26          6           0       -6.586707   -0.795591   -0.036102
     27          6           0        7.334038   -2.076404   -0.358902
     28          6           0       -6.214584    1.603629   -0.427384
     29          6           0        7.043203   -3.457500   -0.309184
     30          6           0        6.316249   -1.138296   -0.386669
     31          6           0       -4.864816    1.624395   -0.435175
     32          6           0        4.949282   -1.432768   -0.219217
     33          6           0       -4.066662    2.690978   -0.690644
     34          6           0       -2.616023    2.726228   -0.666978
     35          6           0        3.930394   -0.433596   -0.375918
     36          6           0        2.590353   -0.655754   -0.261309
     37          6           0       -2.075343    4.102378   -0.986147
     38          6           0       -1.792402    1.612754   -0.455593
     39          6           0        1.759602    0.416880   -0.474912
     40          6           0        2.081701   -2.073026    0.006002
     41          6           0       -0.400048    1.669161   -0.522730
     42          6           0        0.292649    0.450546   -0.360361
     43          1           0      -10.926651    1.184736   -0.101707
     44          1           0      -12.428779   -2.001706    2.424185
     45          1           0      -10.703451   -1.816806    1.684437
     46          1           0      -12.167243   -3.240670    0.105864
     47          1           0       -9.757581   -0.218810    2.448257
     48          1           0      -10.607798    1.379579    2.598307
     49          1           0      -11.259634    0.119739    3.593862
     50          1           0      -13.642075    0.268069    0.703705
     51          1           0      -13.427498    0.392661    2.425703
     52          1           0      -12.753755    1.716874    1.387256
     53          1           0       12.329706    1.893280    0.188816
     54          1           0       12.711253    1.884564    1.944703
     55          1           0      -12.467572   -2.231976   -1.954198
     56          1           0       13.617353   -0.806298    1.308626
     57          1           0       -8.992979   -0.979507   -0.161895
     58          1           0       13.443334   -1.187498   -1.194023
     59          1           0       13.343493    0.602155   -1.547954
     60          1           0        9.077287    1.707493    1.473822
     61          1           0       10.148620    2.617351    0.229714
     62          1           0       10.443568    2.809256    1.978758
     63          1           0       11.582497   -0.765706    2.296488
     64          1           0       10.017246   -0.528488    2.610244
     65          1           0       11.171541    0.801831    3.338503
     66          1           0      -10.401933    0.124222   -2.598831
     67          1           0      -11.622404    1.287848   -2.430692
     68          1           0      -12.223938   -0.308878   -3.330596
     69          1           0      -14.268655   -2.177292   -0.408937
     70          1           0        8.643955    0.351459    0.276739
     71          1           0       -8.671789    1.908717   -0.254252
     72          1           0       11.406589   -2.387335   -2.005107
     73          1           0       10.087870   -1.206332   -2.545949
     74          1           0       11.782768   -1.145871   -3.152694
     75          1           0       15.319508    1.045134    1.242137
     76          1           0        9.326710   -2.432536   -0.412949
     77          1           0       -5.384821   -0.999210   -0.179475
     78          1           0       -6.894621   -1.318735    0.882465
     79          1           0       -7.022653   -1.350626   -0.851828
     80          1           0       -6.620819    2.678021   -0.509781
     81          1           0        6.173522   -3.803326    0.478177
     82          1           0        6.581198   -3.989843   -1.450459
     83          1           0        8.065860   -4.062913    0.089369
     84          1           0        6.472149   -0.049147   -0.189246
     85          1           0       -4.336321    0.611925   -0.028698
     86          1           0        4.752339   -2.493629   -0.362276
     87          1           0       -4.414983    3.685007   -0.860356
     88          1           0        4.230249    0.561312   -0.693911
     89          1           0       -1.458729    4.036254   -1.962243
     90          1           0       -1.285145    4.469053   -0.310961
     91          1           0       -2.923609    4.951491   -1.071597
     92          1           0       -2.450366    0.685445   -0.414733
     93          1           0        2.213461    1.395539   -0.659663
     94          1           0        2.779560   -2.583700    0.759508
     95          1           0        0.959364   -2.150836    0.446747
     96          1           0        2.169704   -2.699661   -0.913227
     97          1           0        0.240695    2.612867   -0.713754
     98          1           0       -0.251672   -0.529299   -0.418628
 ---------------------------------------------------------------------

 SCF Done:  E(RCAM-B3LYP) =  -1706.93069193     A.U. after   15 cycles

 Excitation energies and oscillator strengths:

 Excited State   1:      Singlet-A      2.0126 eV  616.03 nm  f=3.0359  <S**2>=0.000
     155 ->158         0.15142
     156 ->157         0.69079
 This state for optimization and/or second-order correction.
 Total Energy, E(TD-HF/TD-DFT) =  -1706.85672880
 Copying the excited state density for this state as the 1-particle RhoCI density.

 The electronic state is 1-A.
 Alpha  occ. eigenvalues --  -19.21254 -19.20495 -10.32427 -10.29852 -10.29515
 Alpha  occ. eigenvalues --  -10.28086 -10.28054 -10.27585 -10.27483 -10.27394
 Alpha  occ. eigenvalues --  -10.27339 -10.27319 -10.27314 -10.27281 -10.27180
 Alpha  occ. eigenvalues --  -10.27041 -10.26867 -10.26843 -10.26739 -10.26634
 Alpha  occ. eigenvalues --  -10.26545 -10.26540 -10.26385 -10.26360 -10.26244
 Alpha  occ. eigenvalues --  -10.26085 -10.26070 -10.26014 -10.25882 -10.25817
 Alpha  occ. eigenvalues --  -10.25760 -10.25732 -10.25731 -10.25602 -10.25424
 Alpha  occ. eigenvalues --  -10.25312 -10.25286 -10.25115 -10.24270 -10.24246
 Alpha  occ. eigenvalues --  -10.23705 -10.22836  -1.08847  -1.08379  -0.95013
 Alpha  occ. eigenvalues --   -0.94921  -0.92486  -0.92029  -0.90881  -0.90256
 Alpha  occ. eigenvalues --   -0.87863  -0.87320  -0.87079  -0.85741  -0.85087
 Alpha  occ. eigenvalues --   -0.83154  -0.81912  -0.80671  -0.79344  -0.77762
 Alpha  occ. eigenvalues --   -0.77261  -0.76752  -0.76446  -0.75706  -0.75584
 Alpha  occ. eigenvalues --   -0.75060  -0.74726  -0.74204  -0.72447  -0.70361
 Alpha  occ. eigenvalues --   -0.69500  -0.68899  -0.66752  -0.65171  -0.63879
 Alpha  occ. eigenvalues --   -0.63467  -0.62854  -0.62069  -0.60293  -0.60134
 Alpha  occ. eigenvalues --   -0.59094  -0.58279  -0.57137  -0.57033  -0.56553
 Alpha  occ. eigenvalues --   -0.56096  -0.55383  -0.54804  -0.54638  -0.54332
 Alpha  occ. eigenvalues --   -0.53977  -0.52942  -0.52794  -0.52003  -0.51467
 Alpha  occ. eigenvalues --   -0.50742  -0.50032  -0.49471  -0.49207  -0.49157
 Alpha  occ. eigenvalues --   -0.48972  -0.48639  -0.48063  -0.47781  -0.47664
 Alpha  occ. eigenvalues --   -0.47493  -0.47117  -0.47082  -0.46662  -0.46282
 Alpha  occ. eigenvalues --   -0.45738  -0.45458  -0.45232  -0.45185  -0.44715
 Alpha  occ. eigenvalues --   -0.44500  -0.43955  -0.43839  -0.43618  -0.43203
 Alpha  occ. eigenvalues --   -0.42845  -0.42573  -0.41962  -0.41855  -0.41601
 Alpha  occ. eigenvalues --   -0.41410  -0.41302  -0.41041  -0.40919  -0.40777
 Alpha  occ. eigenvalues --   -0.40625  -0.40322  -0.40130  -0.40113  -0.39780
 Alpha  occ. eigenvalues --   -0.39500  -0.39387  -0.38830  -0.38203  -0.37922
 Alpha  occ. eigenvalues --   -0.37562  -0.37061  -0.36476  -0.36410  -0.34914
 Alpha  occ. eigenvalues --   -0.34617  -0.33859  -0.33677  -0.32165  -0.31934
 Alpha  occ. eigenvalues --   -0.30972  -0.30476  -0.29002  -0.26677  -0.23258
 Alpha  occ. eigenvalues --   -0.19081
 Alpha virt. eigenvalues --   -0.06334  -0.01602   0.02616   0.04873   0.06447
 Alpha virt. eigenvalues --    0.08575   0.09995   0.10339   0.11952   0.12171
 Alpha virt. eigenvalues --    0.12431   0.12596   0.13066   0.13271   0.13327

 Mulliken charges:
               1
     1  O   -0.552534
     2  O   -0.577236
     3  C   -0.004747
     4  C   -0.050600
     5  C   -0.151380
     6  C    0.167669
     7  C    0.092320
     8  C   -0.044449
     9  C   -0.292178
    10  C   -0.279669
    11  C   -0.192166
    12  C   -0.220831
    13  C    0.222458
    14  C    0.078311
    15  C   -0.118040
    16  C   -0.244363
    17  C    0.104560
    18  C   -0.304916
    19  C   -0.274030
    20  C   -0.335201
    21  C   -0.042379
    22  C   -0.108443
    23  C   -0.375233
    24  C    0.096081
    25  C   -0.116236
    26  C   -0.389539
    27  C    0.144710
    28  C   -0.127585
    29  C   -0.373397
    30  C   -0.107615
    31  C   -0.060188
    32  C   -0.120978
    33  C   -0.116067
    34  C    0.097814
    35  C   -0.122072
    36  C    0.157089
    37  C   -0.386908
    38  C   -0.108235
    39  C   -0.147579
    40  C   -0.375563
    41  C   -0.088029
    42  C   -0.090801
    43  H    0.075928
    44  H    0.118795
    45  H    0.064662
    46  H    0.093083
    47  H    0.068625
    48  H    0.094929
    49  H    0.104643
    50  H    0.115339
    51  H    0.094397
    52  H    0.086047
    53  H    0.111106
    54  H    0.080087
    55  H    0.074695
    56  H    0.036964
    57  H    0.083009
    58  H    0.106369
    59  H    0.120050
    60  H    0.086596
    61  H    0.102661
    62  H    0.099359
    63  H    0.110522
    64  H    0.101769
    65  H    0.083660
    66  H    0.131019
    67  H    0.117872
    68  H    0.094434
    69  H    0.311992
    70  H    0.075012
    71  H    0.069096
    72  H    0.096606
    73  H    0.131234
    74  H    0.077132
    75  H    0.313396
    76  H    0.063052
    77  H    0.096342
    78  H    0.130370
    79  H    0.130456
    80  H    0.071350
    81  H    0.110423
    82  H    0.078453
    83  H    0.090155
    84  H    0.078768
    85  H    0.073637
    86  H    0.086704
    87  H    0.077210
    88  H    0.088288
    89  H    0.118342
    90  H    0.124669
    91  H    0.097350
    92  H    0.082049
    93  H    0.078051
    94  H    0.115269
    95  H    0.095890
    96  H    0.127652
    97  H    0.100300
    98  H    0.092311
 Sum of Mulliken charges =  -0.00000

 Dipole moment (field-independent basis, Debye):
    X=             -0.7723    Y=              0.7689    Z=             -0.7369  Tot=              1.3155
 Quadrupole moment (field-independent basis, Debye-Ang):
   XX=           -296.2198   YY=           -245.9221   ZZ=           -262.9484
   XY=              0.0031   XZ=             36.3534   YZ=              4.3721

 Normal termination of Gaussian 16 at Mon Jul 15 17:17:03 2019.
