 Gaussian 16, Revision A.03,
 Gaussian 16:  ES64L-G16RevA.03 25-Dec-2016

 -------------------------------------
 # td=(NStates=1) CAM-B3LYP/6-31G(d,p)
 -------------------------------------

 --
 TD
 --
 Symbolic Z-matrix:
 Charge =  0 Multiplicity = 1

                         Standard orientation:
 ---------------------------------------------------------------------
 Center     Atomic      Atomic             Coordinates (Angstroms)
 Number     Number       Type             X           Y           Z
 ---------------------------------------------------------------------
      1          8           0      -14.184126   -1.907608    0.627145
      2          8           0       14.806726    1.029844    0.156870
      3          6           0      -11.746610    0.117448    1.245625
      4          6           0      -11.001053    0.292229   -0.076450
      5          6           0      -12.062466   -1.258931    1.502631
      6          6           0      -12.775003   -2.054461    0.381358
      7          6           0      -11.686040   -0.461078   -1.180473
      8          6           0       11.173902    1.029821    0.981453
      9          6           0      -10.942924    0.739107    2.394521
     10          6           0      -13.038220    0.981078    1.107800
     11          6           0       12.452664    1.582588    0.707107
     12          6           0      -12.473184   -1.524308   -1.022818
     13          6           0       13.520100    0.509763    0.398722
     14          6           0       10.761354    0.004100    0.069486
     15          6           0       -9.551932   -0.017766   -0.005229
     16          6           0       13.034063   -0.238369   -0.775204
     17          6           0       11.638601   -0.605284   -0.814172
     18          6           0       10.233893    2.303971    0.842048
     19          6           0       11.036737    0.452871    2.364565
     20          6           0      -11.418926    0.040603   -2.561602
     21          6           0       -8.520445    0.808764   -0.215424
     22          6           0        9.308084   -0.421265    0.007107
     23          6           0       11.246276   -1.478656   -1.921152
     24          6           0       -7.135204    0.519233   -0.129072
     25          6           0        8.795917   -1.662694   -0.225383
     26          6           0       -6.639172   -0.845861    0.226995
     27          6           0        7.391199   -2.108952   -0.087024
     28          6           0       -6.236518    1.543885   -0.508440
     29          6           0        7.231380   -3.615905    0.059085
     30          6           0        6.347776   -1.207111   -0.035006
     31          6           0       -4.842317    1.420284   -0.368072
     32          6           0        4.988244   -1.535026   -0.040091
     33          6           0       -3.959505    2.533770   -0.675535
     34          6           0       -2.593213    2.481664   -0.753842
     35          6           0        4.038488   -0.594912   -0.189971
     36          6           0        2.604503   -0.886774   -0.095171
     37          6           0       -1.802211    3.801341   -0.958237
     38          6           0       -1.762271    1.409950   -0.586160
     39          6           0        1.726182    0.134321   -0.311718
     40          6           0        2.143507   -2.339351    0.087901
     41          6           0       -0.387115    1.298669   -0.604576
     42          6           0        0.372463    0.126979   -0.195078
     43          1           0      -11.178888    1.144758   -0.426386
     44          1           0      -12.560957   -1.660382    2.452249
     45          1           0      -10.995897   -1.761320    1.643328
     46          1           0      -12.655243   -3.110755    0.414354
     47          1           0       -9.991386    0.079664    2.508212
     48          1           0      -10.365389    1.659698    2.080076
     49          1           0      -11.266740    0.649740    3.350629
     50          1           0      -13.692127    0.792344    0.310379
     51          1           0      -13.767766    0.601347    1.929982
     52          1           0      -12.916674    2.100071    1.365268
     53          1           0       12.451996    2.291059   -0.186586
     54          1           0       12.837361    2.125360    1.605939
     55          1           0      -12.807752   -2.095353   -1.835714
     56          1           0       13.434730   -0.236785    1.255681
     57          1           0       -9.307519   -0.873104    0.119049
     58          1           0       13.439120   -1.207344   -0.828089
     59          1           0       13.405162    0.471347   -1.523456
     60          1           0        9.072847    1.948193    0.858782
     61          1           0       10.424892    2.817932   -0.129917
     62          1           0       10.536699    3.112643    1.414701
     63          1           0       11.661910   -0.462433    2.676927
     64          1           0       10.202783   -0.324718    2.469287
     65          1           0       11.015505    1.130476    3.363820
     66          1           0      -10.334713   -0.025311   -2.711407
     67          1           0      -11.749144    0.947968   -2.490688
     68          1           0      -11.978884   -0.394620   -3.309721
     69          1           0      -14.622010   -2.515162   -0.040383
     70          1           0        8.348183    0.256751    0.257615
     71          1           0       -8.831728    1.711489   -0.411854
     72          1           0       11.360339   -2.575539   -1.738173
     73          1           0       10.123647   -1.383986   -1.987992
     74          1           0       11.557672   -0.830974   -2.920073
     75          1           0       15.124317    1.330731    0.957904
     76          1           0        9.560024   -2.545763   -0.384405
     77          1           0       -5.641320   -0.969355    0.018545
     78          1           0       -6.836690   -1.259473    1.470503
     79          1           0       -7.410949   -1.503221   -0.375469
     80          1           0       -6.579811    2.453448   -0.700510
     81          1           0        6.438856   -3.754769    1.046795
     82          1           0        6.597236   -4.202171   -0.677195
     83          1           0        8.126861   -4.214822    0.489311
     84          1           0        6.473196   -0.163722   -0.512430
     85          1           0       -4.233794    0.447508    0.082370
     86          1           0        4.634967   -2.576479    0.092976
     87          1           0       -4.264725    3.545853   -0.909480
     88          1           0        4.435787    0.502057   -0.452993
     89          1           0       -1.070649    3.827599   -1.803920
     90          1           0       -1.182204    3.861852    0.130195
     91          1           0       -2.346885    4.747793   -0.969393
     92          1           0       -2.148200    0.398576   -0.724302
     93          1           0        2.080125    1.205830   -0.465814
     94          1           0        2.679569   -2.811083    0.938001
     95          1           0        1.030983   -2.178018    0.288377
     96          1           0        2.208400   -2.815395   -1.009516
     97          1           0        0.085649    2.309896   -0.598404
     98          1           0       -0.417595   -0.652205    0.017856
 ---------------------------------------------------------------------

 SCF Done:  E(RCAM-B3LYP) =  -1706.86084290     A.U. after   15 cycles

 Excitation energies and oscillator strengths:

 Excited State   1:      Singlet-A      1.8896 eV  656.14 nm  f=2.9205  <S**2>=0.000
     155 ->158         0.12861
     156 ->157         0.70182
     156 <-157        -0.11839
 This state for optimization and/or second-order correction.
 Total Energy, E(TD-HF/TD-DFT) =  -1706.79140134
 Copying the excited state density for this state as the 1-particle RhoCI density.

 The electronic state is 1-A.
 Alpha  occ. eigenvalues --  -19.21461 -19.20319 -10.29886 -10.29800 -10.28667
 Alpha  occ. eigenvalues --  -10.28508 -10.28330 -10.27875 -10.27844 -10.27558
 Alpha  occ. eigenvalues --  -10.27523 -10.27316 -10.27215 -10.26934 -10.26905
 Alpha  occ. eigenvalues --  -10.26778 -10.26767 -10.26761 -10.26603 -10.26534
 Alpha  occ. eigenvalues --  -10.26354 -10.26269 -10.26220 -10.26167 -10.26102
 Alpha  occ. eigenvalues --  -10.26091 -10.25937 -10.25878 -10.25873 -10.25665
 Alpha  occ. eigenvalues --  -10.25631 -10.25253 -10.24797 -10.24650 -10.24602
 Alpha  occ. eigenvalues --  -10.24388 -10.24045 -10.23852 -10.23817 -10.23526
 Alpha  occ. eigenvalues --  -10.23448 -10.22943  -1.11332  -1.07925  -0.95778
 Alpha  occ. eigenvalues --   -0.95202  -0.92247  -0.91769  -0.90989  -0.89904
 Alpha  occ. eigenvalues --   -0.88524  -0.87742  -0.87100  -0.86069  -0.84834
 Alpha  occ. eigenvalues --   -0.83242  -0.81994  -0.80557  -0.79574  -0.78283
 Alpha  occ. eigenvalues --   -0.77568  -0.76930  -0.76061  -0.75604  -0.75440
 Alpha  occ. eigenvalues --   -0.75206  -0.75074  -0.74982  -0.72524  -0.71102
 Alpha  occ. eigenvalues --   -0.68942  -0.68497  -0.66855  -0.65293  -0.64391
 Alpha  occ. eigenvalues --   -0.64039  -0.63378  -0.61608  -0.61283  -0.60240
 Alpha  occ. eigenvalues --   -0.60099  -0.59544  -0.58266  -0.57143  -0.56429
 Alpha  occ. eigenvalues --   -0.56058  -0.55532  -0.55178  -0.54805  -0.54249
 Alpha  occ. eigenvalues --   -0.53985  -0.53315  -0.52802  -0.51832  -0.51445
 Alpha  occ. eigenvalues --   -0.51360  -0.50299  -0.49787  -0.49390  -0.49241
 Alpha  occ. eigenvalues --   -0.48896  -0.48725  -0.48500  -0.48279  -0.48021
 Alpha  occ. eigenvalues --   -0.47826  -0.47236  -0.46866  -0.46043  -0.45614
 Alpha  occ. eigenvalues --   -0.45504  -0.45419  -0.45138  -0.44930  -0.44590
 Alpha  occ. eigenvalues --   -0.44273  -0.43929  -0.43890  -0.43524  -0.43161
 Alpha  occ. eigenvalues --   -0.42701  -0.42563  -0.42444  -0.42369  -0.41752
 Alpha  occ. eigenvalues --   -0.41733  -0.41376  -0.41298  -0.41097  -0.40782
 Alpha  occ. eigenvalues --   -0.40243  -0.39850  -0.39781  -0.39719  -0.39416
 Alpha  occ. eigenvalues --   -0.39078  -0.38542  -0.38393  -0.37768  -0.37720
 Alpha  occ. eigenvalues --   -0.36999  -0.36772  -0.36501  -0.36028  -0.35884
 Alpha  occ. eigenvalues --   -0.35493  -0.34717  -0.33976  -0.32062  -0.31534
 Alpha  occ. eigenvalues --   -0.31158  -0.29348  -0.28964  -0.26845  -0.23567
 Alpha  occ. eigenvalues --   -0.18620
 Alpha virt. eigenvalues --   -0.06798  -0.01341   0.02468   0.06020   0.07397
 Alpha virt. eigenvalues --    0.08737   0.10826   0.11336   0.11575   0.11913
 Alpha virt. eigenvalues --    0.12427   0.12902   0.13183   0.13582   0.14191

 Mulliken charges:
               1
     1  O   -0.551617
     2  O   -0.543107
     3  C    0.035756
     4  C   -0.067272
     5  C   -0.170190
     6  C    0.117817
     7  C    0.047430
     8  C    0.027666
     9  C   -0.305582
    10  C   -0.317249
    11  C   -0.191652
    12  C   -0.113474
    13  C    0.135040
    14  C    0.075703
    15  C   -0.032115
    16  C   -0.195705
    17  C    0.049043
    18  C   -0.300575
    19  C   -0.318185
    20  C   -0.341450
    21  C   -0.062223
    22  C   -0.116637
    23  C   -0.379852
    24  C    0.105442
    25  C   -0.123565
    26  C   -0.337047
    27  C    0.116176
    28  C   -0.092611
    29  C   -0.377092
    30  C   -0.149178
    31  C   -0.099990
    32  C   -0.070050
    33  C   -0.121374
    34  C    0.120964
    35  C   -0.101627
    36  C    0.070673
    37  C   -0.381205
    38  C   -0.136436
    39  C   -0.105221
    40  C   -0.359790
    41  C   -0.103243
    42  C   -0.089497
    43  H    0.073260
    44  H    0.111607
    45  H    0.069268
    46  H    0.079067
    47  H    0.076271
    48  H    0.100598
    49  H    0.114972
    50  H    0.122691
    51  H    0.093876
    52  H    0.085551
    53  H    0.092453
    54  H    0.078470
    55  H    0.069791
    56  H    0.066999
    57  H    0.031822
    58  H    0.108882
    59  H    0.120057
    60  H    0.088829
    61  H    0.096555
    62  H    0.111080
    63  H    0.092515
    64  H    0.109927
    65  H    0.088372
    66  H    0.117102
    67  H    0.124364
    68  H    0.109344
    69  H    0.297840
    70  H    0.083596
    71  H    0.055220
    72  H    0.120654
    73  H    0.130297
    74  H    0.101064
    75  H    0.303191
    76  H    0.071198
    77  H    0.121105
    78  H    0.077781
    79  H    0.108762
    80  H    0.084703
    81  H    0.082067
    82  H    0.132356
    83  H    0.117547
    84  H    0.089783
    85  H    0.095610
    86  H    0.083026
    87  H    0.080583
    88  H    0.073393
    89  H    0.127267
    90  H    0.096866
    91  H    0.105941
    92  H    0.066923
    93  H    0.090370
    94  H    0.127117
    95  H    0.110076
    96  H    0.121707
    97  H    0.074218
    98  H    0.089113
 Sum of Mulliken charges =  -0.00000

 Dipole moment (field-independent basis, Debye):
    X=              0.1319    Y=             -1.3426    Z=             -0.1136  Tot=              1.3538
 Quadrupole moment (field-independent basis, Debye-Ang):
   XX=           -279.8366   YY=           -240.3633   ZZ=           -263.0514
   XY=              9.5845   XZ=             37.9224   YZ=             -0.1232

 Normal termination of Gaussian 16 at Sat Jul 13 10:36:40 2019.
