 Gaussian 16, Revision A.03,
 Gaussian 16:  ES64L-G16RevA.03 25-Dec-2016

 -------------------------------------
 # td=(NStates=1) CAM-B3LYP/6-31G(d,p)
 -------------------------------------

 --
 TD
 --
 Symbolic Z-matrix:
 Charge =  0 Multiplicity = 1

                         Standard orientation:
 ---------------------------------------------------------------------
 Center     Atomic      Atomic             Coordinates (Angstroms)
 Number     Number       Type             X           Y           Z
 ---------------------------------------------------------------------
      1          8           0      -14.057415   -2.032718    0.519459
      2          8           0       14.752879    0.778745    0.299740
      3          6           0      -11.678279   -0.064817    1.412106
      4          6           0      -10.920863    0.300007    0.074445
      5          6           0      -11.923460   -1.509065    1.522406
      6          6           0      -12.708237   -2.100798    0.291460
      7          6           0      -11.700265   -0.345755   -1.130752
      8          6           0       11.083611    1.041463    1.089422
      9          6           0      -10.787054    0.488812    2.562086
     10          6           0      -13.061374    0.777318    1.453217
     11          6           0       12.574050    1.502094    0.921560
     12          6           0      -12.353039   -1.469413   -0.999484
     13          6           0       13.404938    0.320836    0.352694
     14          6           0       10.736571   -0.028787   -0.017946
     15          6           0       -9.525247    0.013387   -0.040926
     16          6           0       12.995198   -0.202315   -0.891668
     17          6           0       11.551841   -0.529935   -0.854924
     18          6           0       10.133164    2.302602    1.050177
     19          6           0       11.016113    0.463505    2.580917
     20          6           0      -11.402160    0.221960   -2.463314
     21          6           0       -8.468345    0.790374   -0.136127
     22          6           0        9.237461   -0.387482    0.076622
     23          6           0       11.165089   -1.422579   -2.071294
     24          6           0       -7.121880    0.477146   -0.199774
     25          6           0        8.692761   -1.709484   -0.013411
     26          6           0       -6.642728   -0.935344    0.087300
     27          6           0        7.385456   -2.127657   -0.007512
     28          6           0       -6.246193    1.560888   -0.511974
     29          6           0        7.097546   -3.597000    0.253633
     30          6           0        6.333791   -1.210702   -0.211171
     31          6           0       -4.850951    1.451718   -0.585658
     32          6           0        4.982504   -1.539749   -0.229368
     33          6           0       -4.055025    2.494397   -0.743037
     34          6           0       -2.612242    2.565813   -0.749231
     35          6           0        4.024990   -0.531793   -0.539171
     36          6           0        2.652265   -0.746950   -0.381144
     37          6           0       -2.029786    3.979951   -0.859003
     38          6           0       -1.817593    1.461958   -0.661501
     39          6           0        1.829323    0.291976   -0.588112
     40          6           0        2.211459   -2.247257   -0.070676
     41          6           0       -0.421839    1.388132   -0.544965
     42          6           0        0.390567    0.336436   -0.433735
     43          1           0      -11.266157    1.414777   -0.226918
     44          1           0      -12.680879   -1.653358    2.369981
     45          1           0      -10.907115   -1.941598    1.870605
     46          1           0      -12.375544   -3.265090    0.163140
     47          1           0       -9.876546   -0.395014    2.560485
     48          1           0      -10.502045    1.516857    2.364511
     49          1           0      -11.362937    0.449126    3.330713
     50          1           0      -13.678835    0.685872    0.533811
     51          1           0      -13.597151    0.310864    2.397882
     52          1           0      -12.895667    1.962475    1.738975
     53          1           0       12.693865    2.415597    0.251420
     54          1           0       13.049305    1.793647    1.758232
     55          1           0      -12.730601   -1.841661   -1.881699
     56          1           0       13.244789   -0.430491    1.253696
     57          1           0       -9.322708   -1.138892    0.060200
     58          1           0       13.691111   -1.201858   -1.070584
     59          1           0       13.463814    0.587504   -1.664345
     60          1           0        9.175443    2.233080    1.044473
     61          1           0       10.597976    2.743694    0.057109
     62          1           0       10.259239    2.913909    1.918081
     63          1           0       11.770931   -0.342537    2.776735
     64          1           0       10.005042    0.187212    2.762538
     65          1           0       11.034101    1.325376    3.257266
     66          1           0      -10.403502    0.263032   -2.729905
     67          1           0      -11.751106    1.340074   -2.462740
     68          1           0      -11.985971   -0.244950   -3.203332
     69          1           0      -14.431030   -1.872894   -0.444401
     70          1           0        8.601940    0.251882    0.328758
     71          1           0       -8.917371    1.918130   -0.100227
     72          1           0       11.481406   -2.525018   -1.917130
     73          1           0       10.105745   -1.352012   -2.366107
     74          1           0       11.689299   -1.092349   -2.941803
     75          1           0       15.254777    0.917463    1.131568
     76          1           0        9.402527   -2.351754   -0.191479
     77          1           0       -5.595361   -0.868749   -0.298217
     78          1           0       -6.548893   -1.533611    1.292215
     79          1           0       -7.329908   -1.557135   -0.576621
     80          1           0       -6.765190    2.371222   -0.787653
     81          1           0        6.747575   -3.703248    1.150014
     82          1           0        6.474698   -4.291358   -0.609841
     83          1           0        7.952176   -4.155418    0.155656
     84          1           0        6.517157   -0.189059   -0.515157
     85          1           0       -4.290773    0.678669   -0.518537
     86          1           0        4.666952   -2.392749    0.196899
     87          1           0       -4.669246    3.354915   -0.691390
     88          1           0        4.305870    0.348598   -0.743964
     89          1           0       -1.352854    4.152582   -1.666608
     90          1           0       -1.336153    4.242280   -0.013159
     91          1           0       -2.584981    4.805973   -0.784163
     92          1           0       -2.367750    0.459652   -0.426026
     93          1           0        2.303761    1.311716   -0.517160
     94          1           0        2.847862   -2.328301    0.845958
     95          1           0        1.121571   -2.407057    0.113376
     96          1           0        2.490352   -3.018945   -0.673027
     97          1           0        0.077690    2.452661   -0.652782
     98          1           0       -0.097239   -0.425299   -0.315893
 ---------------------------------------------------------------------

 SCF Done:  E(RCAM-B3LYP) =  -1706.83184578     A.U. after   15 cycles

 Excitation energies and oscillator strengths:

 Excited State   1:      Singlet-A      2.2599 eV  548.62 nm  f=3.1878  <S**2>=0.000
     155 ->158         0.17708
     156 ->157         0.68295
 This state for optimization and/or second-order correction.
 Total Energy, E(TD-HF/TD-DFT) =  -1706.74879476
 Copying the excited state density for this state as the 1-particle RhoCI density.

 The electronic state is 1-A.
 Alpha  occ. eigenvalues --  -19.22362 -19.20352 -10.31578 -10.30209 -10.28463
 Alpha  occ. eigenvalues --  -10.28244 -10.28076 -10.27806 -10.27436 -10.27055
 Alpha  occ. eigenvalues --  -10.27032 -10.26898 -10.26782 -10.26512 -10.26460
 Alpha  occ. eigenvalues --  -10.26440 -10.26412 -10.26383 -10.26265 -10.26168
 Alpha  occ. eigenvalues --  -10.26070 -10.26031 -10.26019 -10.25883 -10.25737
 Alpha  occ. eigenvalues --  -10.25681 -10.25417 -10.25237 -10.25224 -10.25194
 Alpha  occ. eigenvalues --  -10.25191 -10.25077 -10.24868 -10.24636 -10.24577
 Alpha  occ. eigenvalues --  -10.24432 -10.24417 -10.24278 -10.24245 -10.24020
 Alpha  occ. eigenvalues --  -10.23927 -10.23640  -1.10862  -1.08195  -0.93820
 Alpha  occ. eigenvalues --   -0.93424  -0.92846  -0.92371  -0.91014  -0.90341
 Alpha  occ. eigenvalues --   -0.88291  -0.87655  -0.86620  -0.85982  -0.84666
 Alpha  occ. eigenvalues --   -0.83367  -0.82625  -0.80269  -0.80056  -0.78864
 Alpha  occ. eigenvalues --   -0.77394  -0.76813  -0.76473  -0.76260  -0.76211
 Alpha  occ. eigenvalues --   -0.75939  -0.75369  -0.74378  -0.73833  -0.71247
 Alpha  occ. eigenvalues --   -0.69934  -0.67979  -0.66847  -0.65111  -0.64715
 Alpha  occ. eigenvalues --   -0.64564  -0.64308  -0.62977  -0.62516  -0.61172
 Alpha  occ. eigenvalues --   -0.59339  -0.59106  -0.58456  -0.57548  -0.56897
 Alpha  occ. eigenvalues --   -0.55865  -0.55395  -0.54898  -0.54533  -0.53802
 Alpha  occ. eigenvalues --   -0.53367  -0.53082  -0.52737  -0.51881  -0.51276
 Alpha  occ. eigenvalues --   -0.50962  -0.50527  -0.50034  -0.49878  -0.49456
 Alpha  occ. eigenvalues --   -0.49289  -0.49168  -0.48720  -0.48302  -0.47949
 Alpha  occ. eigenvalues --   -0.47844  -0.47415  -0.46919  -0.46407  -0.46142
 Alpha  occ. eigenvalues --   -0.46042  -0.45879  -0.45563  -0.45066  -0.44855
 Alpha  occ. eigenvalues --   -0.44685  -0.44223  -0.44095  -0.43839  -0.43591
 Alpha  occ. eigenvalues --   -0.43474  -0.43133  -0.42802  -0.42749  -0.42565
 Alpha  occ. eigenvalues --   -0.41899  -0.41686  -0.41406  -0.41334  -0.40459
 Alpha  occ. eigenvalues --   -0.40146  -0.40060  -0.39991  -0.39666  -0.39447
 Alpha  occ. eigenvalues --   -0.39303  -0.38934  -0.38685  -0.38360  -0.37544
 Alpha  occ. eigenvalues --   -0.37249  -0.36923  -0.36790  -0.36175  -0.35684
 Alpha  occ. eigenvalues --   -0.35061  -0.34902  -0.33511  -0.32191  -0.31611
 Alpha  occ. eigenvalues --   -0.30595  -0.30322  -0.30056  -0.27430  -0.23317
 Alpha  occ. eigenvalues --   -0.19916
 Alpha virt. eigenvalues --   -0.05753  -0.01946   0.02884   0.06047   0.06945
 Alpha virt. eigenvalues --    0.09511   0.10206   0.11327   0.11718   0.12007
 Alpha virt. eigenvalues --    0.12298   0.13495   0.13621   0.13892   0.13986

 Mulliken charges:
               1
     1  O   -0.532328
     2  O   -0.588739
     3  C    0.010874
     4  C   -0.135366
     5  C   -0.178701
     6  C    0.186043
     7  C    0.106843
     8  C   -0.035304
     9  C   -0.262365
    10  C   -0.292313
    11  C   -0.164989
    12  C   -0.165867
    13  C    0.178480
    14  C    0.078044
    15  C   -0.074692
    16  C   -0.200802
    17  C    0.049340
    18  C   -0.299726
    19  C   -0.306031
    20  C   -0.353571
    21  C   -0.070665
    22  C   -0.087363
    23  C   -0.360432
    24  C    0.082130
    25  C   -0.095170
    26  C   -0.336191
    27  C    0.078008
    28  C   -0.108376
    29  C   -0.358891
    30  C   -0.122906
    31  C    0.005681
    32  C   -0.070304
    33  C   -0.144899
    34  C    0.119255
    35  C   -0.071555
    36  C    0.117055
    37  C   -0.387286
    38  C   -0.137163
    39  C   -0.161159
    40  C   -0.364572
    41  C   -0.080642
    42  C   -0.029194
    43  H    0.069659
    44  H    0.108579
    45  H    0.086478
    46  H    0.043505
    47  H    0.066782
    48  H    0.105838
    49  H    0.108077
    50  H    0.107911
    51  H    0.092621
    52  H    0.069070
    53  H    0.078603
    54  H    0.086433
    55  H    0.070112
    56  H    0.054563
    57  H    0.070161
    58  H    0.089013
    59  H    0.113251
    60  H    0.111531
    61  H    0.095272
    62  H    0.099259
    63  H    0.100402
    64  H    0.105031
    65  H    0.097593
    66  H    0.137390
    67  H    0.090012
    68  H    0.108723
    69  H    0.313063
    70  H    0.052499
    71  H    0.065401
    72  H    0.101657
    73  H    0.119703
    74  H    0.116560
    75  H    0.310386
    76  H    0.066019
    77  H    0.114675
    78  H    0.084247
    79  H    0.118642
    80  H    0.083793
    81  H    0.141310
    82  H    0.079664
    83  H    0.120228
    84  H    0.083711
    85  H    0.046524
    86  H    0.077106
    87  H    0.071561
    88  H    0.060444
    89  H    0.130183
    90  H    0.110841
    91  H    0.121069
    92  H    0.074677
    93  H    0.078149
    94  H    0.121356
    95  H    0.107201
    96  H    0.136060
    97  H    0.058852
    98  H    0.034364
 Sum of Mulliken charges =  -0.00000

 Dipole moment (field-independent basis, Debye):
    X=              0.3579    Y=              0.1667    Z=              0.1171  Tot=              0.4118
 Quadrupole moment (field-independent basis, Debye-Ang):
   XX=           -274.9950   YY=           -246.9643   ZZ=           -260.6822
   XY=            -12.5721   XZ=             42.3774   YZ=              3.3060

 Normal termination of Gaussian 16 at Mon Jul 15 20:06:31 2019.
