 Gaussian 16, Revision A.03,
 Gaussian 16:  ES64L-G16RevA.03 25-Dec-2016

 -------------------------------------
 # td=(NStates=1) CAM-B3LYP/6-31G(d,p)
 -------------------------------------

 --
 TD
 --
 Symbolic Z-matrix:
 Charge =  0 Multiplicity = 1

                         Standard orientation:
 ---------------------------------------------------------------------
 Center     Atomic      Atomic             Coordinates (Angstroms)
 Number     Number       Type             X           Y           Z
 ---------------------------------------------------------------------
      1          8           0      -14.019069   -2.365085    0.502024
      2          8           0       14.828060    0.805460    0.292547
      3          6           0      -11.891575   -0.057827    1.381275
      4          6           0      -10.971778    0.316715    0.075897
      5          6           0      -11.954697   -1.545375    1.521391
      6          6           0      -12.611806   -2.309920    0.347698
      7          6           0      -11.420943   -0.466072   -1.169354
      8          6           0       11.081016    0.949671    1.146564
      9          6           0      -11.120405    0.626301    2.574287
     10          6           0      -13.258450    0.656584    1.147445
     11          6           0       12.541218    1.462734    0.775800
     12          6           0      -12.133420   -1.596373   -1.008749
     13          6           0       13.587395    0.293037    0.489664
     14          6           0       10.732690   -0.052935   -0.009785
     15          6           0       -9.525344    0.086061    0.255850
     16          6           0       13.133665   -0.405746   -0.733458
     17          6           0       11.585586   -0.570098   -0.889402
     18          6           0       10.113760    2.274762    1.202655
     19          6           0       10.964552    0.299112    2.506157
     20          6           0      -11.151798    0.075215   -2.505582
     21          6           0       -8.528546    0.957306   -0.175221
     22          6           0        9.282564   -0.397775    0.029711
     23          6           0       11.105560   -1.313817   -2.064120
     24          6           0       -7.066530    0.687138   -0.185346
     25          6           0        8.747144   -1.675130   -0.044707
     26          6           0       -6.691184   -0.672357    0.249734
     27          6           0        7.385455   -2.132398   -0.089406
     28          6           0       -6.223246    1.714082   -0.366780
     29          6           0        7.152813   -3.625001    0.014014
     30          6           0        6.292374   -1.217357   -0.040884
     31          6           0       -4.754015    1.595049   -0.468360
     32          6           0        4.967566   -1.526253   -0.112999
     33          6           0       -4.068981    2.756819   -0.680999
     34          6           0       -2.538395    2.710799   -0.757829
     35          6           0        3.959863   -0.553846   -0.321617
     36          6           0        2.567223   -0.761947   -0.442021
     37          6           0       -1.924436    4.019753   -0.992246
     38          6           0       -1.825519    1.501688   -0.637239
     39          6           0        1.715861    0.310053   -0.592854
     40          6           0        2.125537   -2.140963   -0.209773
     41          6           0       -0.415211    1.543463   -0.721215
     42          6           0        0.361800    0.313085   -0.500867
     43          1           0      -11.239675    1.385875    0.114170
     44          1           0      -12.631475   -1.871815    2.164302
     45          1           0      -11.025662   -2.032701    1.656809
     46          1           0      -12.061687   -3.343356    0.319543
     47          1           0      -10.196104    0.224337    2.826580
     48          1           0      -10.944510    1.742291    2.268749
     49          1           0      -11.617337    0.654058    3.514646
     50          1           0      -13.675594    0.264547    0.203821
     51          1           0      -14.059156    0.293413    2.046021
     52          1           0      -13.032619    1.940312    1.094689
     53          1           0       12.446104    2.114493    0.041511
     54          1           0       13.082201    1.978923    1.696751
     55          1           0      -12.380017   -2.222353   -2.043550
     56          1           0       13.478726   -0.311656    1.299300
     57          1           0       -9.118170   -0.919972    0.496555
     58          1           0       13.495488   -1.600897   -1.069697
     59          1           0       13.363249    0.295203   -1.600543
     60          1           0        9.284363    1.867221    1.690386
     61          1           0       10.019964    2.951824    0.249439
     62          1           0       10.546311    3.074211    1.895521
     63          1           0       11.682377   -0.604862    2.619504
     64          1           0        9.872547    0.043155    2.821674
     65          1           0       11.131062    0.962988    3.233875
     66          1           0      -10.141271    0.024774   -2.542012
     67          1           0      -11.400250    1.083328   -2.792670
     68          1           0      -11.646651   -0.639305   -3.242354
     69          1           0      -14.679430   -2.555633   -0.245861
     70          1           0        8.670084    0.322790    0.383559
     71          1           0       -8.581706    2.111012   -0.436379
     72          1           0       11.304798   -2.322653   -1.855089
     73          1           0        9.995807   -1.219964   -2.014942
     74          1           0       11.635136   -0.845493   -2.923113
     75          1           0       15.215497    0.791468    1.145999
     76          1           0        9.514281   -2.494226    0.032612
     77          1           0       -5.638610   -0.971614    0.223072
     78          1           0       -7.093414   -0.769299    1.347491
     79          1           0       -7.477252   -1.556846   -0.144250
     80          1           0       -6.593136    2.750915   -0.518184
     81          1           0        6.988320   -3.870116    1.019722
     82          1           0        5.963310   -3.757289   -0.667125
     83          1           0        8.036748   -4.142169   -0.459300
     84          1           0        6.722239   -0.205761   -0.269114
     85          1           0       -4.291388    0.498973   -0.541181
     86          1           0        4.717550   -2.660101   -0.156966
     87          1           0       -4.681815    3.583976   -0.760737
     88          1           0        4.221895    0.548294   -0.528229
     89          1           0       -1.034874    4.034541   -1.615387
     90          1           0       -1.508768    4.631000   -0.132947
     91          1           0       -2.731929    4.694492   -1.322966
     92          1           0       -2.453370    0.577863   -0.527390
     93          1           0        2.302552    1.053837   -1.052648
     94          1           0        2.510738   -2.610174    0.675818
     95          1           0        0.961932   -2.015380    0.155483
     96          1           0        2.095187   -2.977925   -1.029819
     97          1           0        0.284606    2.337760   -0.958991
     98          1           0       -0.043315   -0.608735   -0.126701
 ---------------------------------------------------------------------

 SCF Done:  E(RCAM-B3LYP) =  -1706.91697864     A.U. after   15 cycles

 Excitation energies and oscillator strengths:

 Excited State   1:      Singlet-A      1.9439 eV  637.81 nm  f=2.8508  <S**2>=0.000
     155 ->158        -0.13798
     156 ->157         0.69752
     156 <-157        -0.11120
 This state for optimization and/or second-order correction.
 Total Energy, E(TD-HF/TD-DFT) =  -1706.84554146
 Copying the excited state density for this state as the 1-particle RhoCI density.

 The electronic state is 1-A.
 Alpha  occ. eigenvalues --  -19.22131 -19.21670 -10.32536 -10.29689 -10.28425
 Alpha  occ. eigenvalues --  -10.27983 -10.27921 -10.27725 -10.27698 -10.27389
 Alpha  occ. eigenvalues --  -10.27359 -10.27351 -10.27307 -10.27273 -10.26986
 Alpha  occ. eigenvalues --  -10.26969 -10.26962 -10.26961 -10.26801 -10.26783
 Alpha  occ. eigenvalues --  -10.26693 -10.26654 -10.26606 -10.26606 -10.26399
 Alpha  occ. eigenvalues --  -10.26348 -10.26227 -10.26114 -10.26089 -10.25884
 Alpha  occ. eigenvalues --  -10.25728 -10.25672 -10.25446 -10.25007 -10.24947
 Alpha  occ. eigenvalues --  -10.24906 -10.24812 -10.24455 -10.24100 -10.23874
 Alpha  occ. eigenvalues --  -10.23702 -10.23387  -1.12942  -1.08462  -0.92993
 Alpha  occ. eigenvalues --   -0.92580  -0.92158  -0.91548  -0.90177  -0.89623
 Alpha  occ. eigenvalues --   -0.86880  -0.86560  -0.86347  -0.85145  -0.84163
 Alpha  occ. eigenvalues --   -0.83094  -0.82037  -0.80333  -0.79847  -0.78614
 Alpha  occ. eigenvalues --   -0.76320  -0.76263  -0.75733  -0.75380  -0.75129
 Alpha  occ. eigenvalues --   -0.74618  -0.74523  -0.73701  -0.72488  -0.69805
 Alpha  occ. eigenvalues --   -0.68720  -0.67800  -0.66442  -0.65463  -0.63488
 Alpha  occ. eigenvalues --   -0.62547  -0.62351  -0.62071  -0.61747  -0.60885
 Alpha  occ. eigenvalues --   -0.59176  -0.58778  -0.58234  -0.57300  -0.56387
 Alpha  occ. eigenvalues --   -0.55362  -0.54425  -0.54307  -0.53886  -0.53255
 Alpha  occ. eigenvalues --   -0.52903  -0.52622  -0.52083  -0.51437  -0.50762
 Alpha  occ. eigenvalues --   -0.50671  -0.50201  -0.50001  -0.49533  -0.49276
 Alpha  occ. eigenvalues --   -0.49166  -0.48458  -0.48058  -0.47840  -0.47703
 Alpha  occ. eigenvalues --   -0.47276  -0.47053  -0.46842  -0.46454  -0.46175
 Alpha  occ. eigenvalues --   -0.45942  -0.45595  -0.45422  -0.45055  -0.44702
 Alpha  occ. eigenvalues --   -0.44651  -0.43996  -0.43734  -0.43356  -0.43240
 Alpha  occ. eigenvalues --   -0.42708  -0.42534  -0.42396  -0.42144  -0.41763
 Alpha  occ. eigenvalues --   -0.41388  -0.41209  -0.40917  -0.40718  -0.40447
 Alpha  occ. eigenvalues --   -0.40335  -0.40091  -0.39539  -0.39341  -0.38969
 Alpha  occ. eigenvalues --   -0.38844  -0.38293  -0.38230  -0.38026  -0.37976
 Alpha  occ. eigenvalues --   -0.37726  -0.37366  -0.37051  -0.35641  -0.35494
 Alpha  occ. eigenvalues --   -0.34304  -0.33619  -0.32738  -0.32658  -0.31281
 Alpha  occ. eigenvalues --   -0.31009  -0.29373  -0.28665  -0.26442  -0.23725
 Alpha  occ. eigenvalues --   -0.18436
 Alpha virt. eigenvalues --   -0.06315  -0.00998   0.02255   0.05728   0.07395
 Alpha virt. eigenvalues --    0.08700   0.10744   0.10848   0.11365   0.11538
 Alpha virt. eigenvalues --    0.11958   0.12340   0.12953   0.13173   0.13450

 Mulliken charges:
               1
     1  O   -0.572318
     2  O   -0.519798
     3  C    0.015447
     4  C   -0.139480
     5  C   -0.161225
     6  C    0.163250
     7  C    0.129098
     8  C   -0.025830
     9  C   -0.300540
    10  C   -0.268513
    11  C   -0.175672
    12  C   -0.170841
    13  C    0.156058
    14  C    0.080303
    15  C   -0.090739
    16  C   -0.194851
    17  C    0.023869
    18  C   -0.318984
    19  C   -0.298638
    20  C   -0.350209
    21  C   -0.096310
    22  C   -0.138106
    23  C   -0.350153
    24  C    0.160181
    25  C   -0.111353
    26  C   -0.389561
    27  C    0.069819
    28  C   -0.162525
    29  C   -0.339412
    30  C   -0.091452
    31  C   -0.046375
    32  C   -0.100948
    33  C   -0.125682
    34  C    0.090174
    35  C   -0.124562
    36  C    0.118682
    37  C   -0.384589
    38  C   -0.093684
    39  C   -0.101028
    40  C   -0.380450
    41  C   -0.101960
    42  C   -0.089279
    43  H    0.093317
    44  H    0.117967
    45  H    0.098977
    46  H    0.071793
    47  H    0.108761
    48  H    0.079081
    49  H    0.101152
    50  H    0.120617
    51  H    0.082217
    52  H    0.059685
    53  H    0.108045
    54  H    0.048354
    55  H    0.045267
    56  H    0.085575
    57  H    0.080976
    58  H    0.065289
    59  H    0.112136
    60  H    0.112536
    61  H    0.102320
    62  H    0.096113
    63  H    0.092415
    64  H    0.093170
    65  H    0.116408
    66  H    0.133029
    67  H    0.118363
    68  H    0.097528
    69  H    0.326258
    70  H    0.079176
    71  H    0.069247
    72  H    0.116698
    73  H    0.125337
    74  H    0.105661
    75  H    0.304977
    76  H    0.075505
    77  H    0.110218
    78  H    0.123062
    79  H    0.095827
    80  H    0.085286
    81  H    0.144938
    82  H    0.059561
    83  H    0.111003
    84  H    0.083527
    85  H    0.089605
    86  H    0.085039
    87  H    0.090480
    88  H    0.071435
    89  H    0.122601
    90  H    0.119303
    91  H    0.111340
    92  H    0.086417
    93  H    0.079139
    94  H    0.128314
    95  H    0.067722
    96  H    0.117813
    97  H    0.099573
    98  H    0.082038
 Sum of Mulliken charges =  -0.00000

 Dipole moment (field-independent basis, Debye):
    X=             -0.6870    Y=             -0.1807    Z=              0.7049  Tot=              1.0007
 Quadrupole moment (field-independent basis, Debye-Ang):
   XX=           -256.6957   YY=           -245.2014   ZZ=           -263.5659
   XY=              1.0674   XZ=             40.5904   YZ=             -1.0596

 Normal termination of Gaussian 16 at Tue Jul 16 05:30:55 2019.
