 Gaussian 16, Revision A.03,
 Gaussian 16:  ES64L-G16RevA.03 25-Dec-2016

 -------------------------------------
 # td=(NStates=1) CAM-B3LYP/6-31G(d,p)
 -------------------------------------

 --
 TD
 --
 Symbolic Z-matrix:
 Charge =  0 Multiplicity = 1

                         Standard orientation:
 ---------------------------------------------------------------------
 Center     Atomic      Atomic             Coordinates (Angstroms)
 Number     Number       Type             X           Y           Z
 ---------------------------------------------------------------------
      1          8           0      -14.067035   -2.116428    0.726823
      2          8           0       14.755703    0.799830    0.403811
      3          6           0      -11.643108    0.029975    1.357804
      4          6           0      -10.863717    0.269997    0.002177
      5          6           0      -11.898325   -1.368904    1.554105
      6          6           0      -12.647818   -2.194086    0.403107
      7          6           0      -11.595359   -0.407233   -1.158399
      8          6           0       10.973560    0.856673    1.287652
      9          6           0      -10.768175    0.516786    2.600941
     10          6           0      -13.017298    0.748186    1.372786
     11          6           0       12.514189    1.403016    1.128187
     12          6           0      -12.372108   -1.501108   -0.910682
     13          6           0       13.425179    0.288807    0.491926
     14          6           0       10.736198   -0.088969    0.089705
     15          6           0       -9.497200   -0.158150   -0.021960
     16          6           0       12.937654   -0.026382   -0.868967
     17          6           0       11.497853   -0.337775   -0.931106
     18          6           0       10.105719    2.117276    1.498984
     19          6           0       10.872067   -0.072016    2.584039
     20          6           0      -11.505838    0.211054   -2.504838
     21          6           0       -8.397730    0.607918   -0.218020
     22          6           0        9.295939   -0.408347    0.068966
     23          6           0       11.022271   -1.035375   -2.200067
     24          6           0       -7.017389    0.436065   -0.253565
     25          6           0        8.812044   -1.670610   -0.343263
     26          6           0       -6.472123   -0.893669    0.103011
     27          6           0        7.457916   -2.107973   -0.226849
     28          6           0       -6.240654    1.548407   -0.579318
     29          6           0        7.132400   -3.521320   -0.079114
     30          6           0        6.311980   -1.172219   -0.463026
     31          6           0       -4.798877    1.575833   -0.582172
     32          6           0        5.021358   -1.504194   -0.496131
     33          6           0       -4.023842    2.744959   -0.753736
     34          6           0       -2.598159    2.723891   -0.710980
     35          6           0        4.017537   -0.621152   -0.457335
     36          6           0        2.560724   -0.781669   -0.278662
     37          6           0       -1.984216    4.098584   -0.852506
     38          6           0       -1.843598    1.522301   -0.567259
     39          6           0        1.794837    0.399590   -0.419681
     40          6           0        2.133939   -2.142669   -0.162687
     41          6           0       -0.399854    1.545475   -0.541985
     42          6           0        0.349544    0.434713   -0.365491
     43          1           0      -11.031533    1.215999   -0.282762
     44          1           0      -12.493163   -1.423083    2.663476
     45          1           0      -10.988548   -2.079347    2.016923
     46          1           0      -12.139403   -3.167817    0.357584
     47          1           0      -10.013218   -0.075298    2.583538
     48          1           0      -10.408836    1.590926    2.588148
     49          1           0      -11.522027    0.324789    3.573913
     50          1           0      -13.481064    0.382468    0.472685
     51          1           0      -13.639878    0.441533    2.254543
     52          1           0      -12.652177    1.792673    1.298529
     53          1           0       12.368259    2.305425    0.439438
     54          1           0       12.931992    1.632821    2.215453
     55          1           0      -12.789659   -2.191947   -1.502114
     56          1           0       13.344866   -0.544020    1.062162
     57          1           0       -9.310712   -1.100058    0.009153
     58          1           0       13.402559   -0.889671   -1.548561
     59          1           0       13.141721    0.846591   -1.480532
     60          1           0        9.152846    1.988368    1.693776
     61          1           0       10.066201    2.620793    0.587810
     62          1           0       10.813558    2.618210    2.054860
     63          1           0       11.572409   -0.845731    2.589528
     64          1           0        9.897513   -0.825231    2.663257
     65          1           0       10.895269    0.567705    3.556351
     66          1           0      -10.366527    0.247675   -2.699541
     67          1           0      -11.798217    1.274562   -2.680248
     68          1           0      -11.917278   -0.462664   -3.335653
     69          1           0      -14.514536   -2.293438   -0.051199
     70          1           0        8.505799    0.261446    0.596008
     71          1           0       -8.845786    1.767392   -0.574712
     72          1           0       11.086213   -2.200992   -2.074727
     73          1           0        9.895349   -0.886304   -2.567433
     74          1           0       11.668318   -0.863725   -3.114485
     75          1           0       15.344102    1.100760    1.185725
     76          1           0        9.299899   -2.618472   -0.443735
     77          1           0       -5.453669   -1.001574    0.027858
     78          1           0       -6.959191   -1.148011    1.047477
     79          1           0       -6.797732   -1.656525   -0.535521
     80          1           0       -6.770503    2.322730   -0.857287
     81          1           0        6.722059   -3.685260    0.884906
     82          1           0        6.593539   -4.083866   -0.953382
     83          1           0        7.820399   -4.188606    0.127524
     84          1           0        6.560564   -0.247570   -0.630825
     85          1           0       -4.276752    0.672650   -0.395172
     86          1           0        4.852465   -2.606386   -0.320701
     87          1           0       -4.584174    3.751510   -1.014063
     88          1           0        4.363016    0.385632   -0.404702
     89          1           0       -1.142372    3.899734   -1.694408
     90          1           0       -1.590222    4.386491    0.201097
     91          1           0       -2.719102    4.779431   -1.331372
     92          1           0       -2.366095    0.780847   -0.474708
     93          1           0        2.294389    1.189319   -0.665075
     94          1           0        2.769858   -2.773157    0.585773
     95          1           0        1.013409   -2.318079   -0.130348
     96          1           0        2.413103   -2.766848   -1.174237
     97          1           0        0.044816    2.614260   -0.852569
     98          1           0       -0.096560   -0.680391   -0.166047
 ---------------------------------------------------------------------

 SCF Done:  E(RCAM-B3LYP) =  -1706.82912887     A.U. after   15 cycles

 Excitation energies and oscillator strengths:

 Excited State   1:      Singlet-A      2.0796 eV  596.20 nm  f=3.0030  <S**2>=0.000
     155 ->158        -0.17708
     156 ->157         0.67998
 This state for optimization and/or second-order correction.
 Total Energy, E(TD-HF/TD-DFT) =  -1706.75270555
 Copying the excited state density for this state as the 1-particle RhoCI density.

 The electronic state is 1-A.
 Alpha  occ. eigenvalues --  -19.21362 -19.20490 -10.31168 -10.30371 -10.28235
 Alpha  occ. eigenvalues --  -10.27823 -10.27552 -10.27491 -10.27377 -10.27341
 Alpha  occ. eigenvalues --  -10.27324 -10.27294 -10.27284 -10.27254 -10.27197
 Alpha  occ. eigenvalues --  -10.27115 -10.27044 -10.26929 -10.26877 -10.26802
 Alpha  occ. eigenvalues --  -10.26735 -10.26268 -10.26242 -10.26190 -10.25803
 Alpha  occ. eigenvalues --  -10.25706 -10.25608 -10.25518 -10.25429 -10.25352
 Alpha  occ. eigenvalues --  -10.25022 -10.24982 -10.24665 -10.24624 -10.24611
 Alpha  occ. eigenvalues --  -10.24593 -10.24560 -10.24299 -10.24288 -10.23948
 Alpha  occ. eigenvalues --  -10.23269 -10.22891  -1.09876  -1.07069  -0.94378
 Alpha  occ. eigenvalues --   -0.93577  -0.92025  -0.91735  -0.90715  -0.89668
 Alpha  occ. eigenvalues --   -0.87108  -0.87093  -0.86828  -0.85674  -0.84691
 Alpha  occ. eigenvalues --   -0.83690  -0.82505  -0.80833  -0.79925  -0.78721
 Alpha  occ. eigenvalues --   -0.77839  -0.77626  -0.76068  -0.75691  -0.75286
 Alpha  occ. eigenvalues --   -0.75046  -0.74170  -0.74135  -0.73133  -0.70392
 Alpha  occ. eigenvalues --   -0.69763  -0.68218  -0.66643  -0.65568  -0.64211
 Alpha  occ. eigenvalues --   -0.63765  -0.63196  -0.61832  -0.60907  -0.60678
 Alpha  occ. eigenvalues --   -0.59618  -0.59257  -0.58729  -0.57977  -0.56855
 Alpha  occ. eigenvalues --   -0.56374  -0.55374  -0.54696  -0.54002  -0.53969
 Alpha  occ. eigenvalues --   -0.53755  -0.53434  -0.52737  -0.52186  -0.51068
 Alpha  occ. eigenvalues --   -0.50821  -0.50114  -0.49931  -0.49434  -0.49277
 Alpha  occ. eigenvalues --   -0.49199  -0.48844  -0.48327  -0.47942  -0.47706
 Alpha  occ. eigenvalues --   -0.47320  -0.47120  -0.47033  -0.46692  -0.46396
 Alpha  occ. eigenvalues --   -0.46131  -0.45618  -0.45404  -0.45312  -0.45020
 Alpha  occ. eigenvalues --   -0.44369  -0.44330  -0.44018  -0.43951  -0.43623
 Alpha  occ. eigenvalues --   -0.43394  -0.43096  -0.42378  -0.42062  -0.41941
 Alpha  occ. eigenvalues --   -0.41663  -0.41215  -0.40931  -0.40616  -0.40444
 Alpha  occ. eigenvalues --   -0.40111  -0.40050  -0.39455  -0.38974  -0.38872
 Alpha  occ. eigenvalues --   -0.38820  -0.38513  -0.38445  -0.38044  -0.37900
 Alpha  occ. eigenvalues --   -0.37569  -0.37368  -0.35894  -0.35674  -0.34917
 Alpha  occ. eigenvalues --   -0.34153  -0.33744  -0.33468  -0.33046  -0.31502
 Alpha  occ. eigenvalues --   -0.31122  -0.29335  -0.28894  -0.26649  -0.22400
 Alpha  occ. eigenvalues --   -0.18953
 Alpha virt. eigenvalues --   -0.05606  -0.01980   0.02596   0.05281   0.06903
 Alpha virt. eigenvalues --    0.08645   0.11188   0.11331   0.11583   0.12083
 Alpha virt. eigenvalues --    0.12624   0.12741   0.13034   0.13735   0.13994

 Mulliken charges:
               1
     1  O   -0.524508
     2  O   -0.603471
     3  C   -0.000171
     4  C   -0.109555
     5  C   -0.158472
     6  C    0.120019
     7  C    0.091627
     8  C   -0.029280
     9  C   -0.275636
    10  C   -0.274149
    11  C   -0.220728
    12  C   -0.137087
    13  C    0.211297
    14  C    0.073390
    15  C   -0.054786
    16  C   -0.225831
    17  C    0.088373
    18  C   -0.296310
    19  C   -0.299829
    20  C   -0.366643
    21  C   -0.099529
    22  C   -0.139473
    23  C   -0.368056
    24  C    0.121647
    25  C   -0.089064
    26  C   -0.376730
    27  C    0.035545
    28  C   -0.091395
    29  C   -0.385641
    30  C   -0.092476
    31  C   -0.081747
    32  C   -0.045883
    33  C   -0.124889
    34  C    0.051273
    35  C   -0.142587
    36  C    0.143313
    37  C   -0.361515
    38  C   -0.015682
    39  C   -0.090096
    40  C   -0.390359
    41  C   -0.098107
    42  C   -0.088466
    43  H    0.084015
    44  H    0.071015
    45  H    0.050221
    46  H    0.097823
    47  H    0.115303
    48  H    0.091871
    49  H    0.069399
    50  H    0.111086
    51  H    0.107882
    52  H    0.087211
    53  H    0.102273
    54  H    0.074123
    55  H    0.073694
    56  H    0.093639
    57  H    0.067097
    58  H    0.093202
    59  H    0.124777
    60  H    0.112152
    61  H    0.108078
    62  H    0.121300
    63  H    0.111328
    64  H    0.080832
    65  H    0.085057
    66  H    0.109952
    67  H    0.124765
    68  H    0.111449
    69  H    0.294426
    70  H    0.095955
    71  H    0.033514
    72  H    0.105441
    73  H    0.119878
    74  H    0.100301
    75  H    0.316065
    76  H    0.085239
    77  H    0.114504
    78  H    0.125493
    79  H    0.128180
    80  H    0.067349
    81  H    0.129374
    82  H    0.113185
    83  H    0.109671
    84  H    0.056729
    85  H    0.086130
    86  H    0.070598
    87  H    0.085117
    88  H    0.071994
    89  H    0.104037
    90  H    0.132077
    91  H    0.113132
    92  H    0.027714
    93  H    0.067590
    94  H    0.119413
    95  H    0.104641
    96  H    0.107611
    97  H    0.084340
    98  H    0.072424
 Sum of Mulliken charges =  -0.00000

 Dipole moment (field-independent basis, Debye):
    X=              1.7557    Y=             -0.9876    Z=             -0.9195  Tot=              2.2144
 Quadrupole moment (field-independent basis, Debye-Ang):
   XX=           -271.0717   YY=           -241.7979   ZZ=           -262.7740
   XY=              1.0693   XZ=             46.3949   YZ=              2.1538

 Normal termination of Gaussian 16 at Mon Jul 15 06:46:30 2019.
