 Gaussian 16, Revision A.03,
 Gaussian 16:  ES64L-G16RevA.03 25-Dec-2016

 -------------------------------------
 # td=(NStates=1) CAM-B3LYP/6-31G(d,p)
 -------------------------------------

 --
 TD
 --
 Symbolic Z-matrix:
 Charge =  0 Multiplicity = 1

                         Standard orientation:
 ---------------------------------------------------------------------
 Center     Atomic      Atomic             Coordinates (Angstroms)
 Number     Number       Type             X           Y           Z
 ---------------------------------------------------------------------
      1          8           0      -14.132733   -1.888758    0.767107
      2          8           0       14.946470    0.694871    0.528377
      3          6           0      -11.826969    0.185881    1.293022
      4          6           0      -11.029201    0.317574    0.043179
      5          6           0      -12.007327   -1.348001    1.581336
      6          6           0      -12.711027   -2.128908    0.491601
      7          6           0      -11.699889   -0.522271   -1.095496
      8          6           0       11.190682    1.021126    1.205003
      9          6           0      -11.059100    0.853483    2.485855
     10          6           0      -13.220163    0.959717    1.169201
     11          6           0       12.652905    1.507934    0.924451
     12          6           0      -12.342862   -1.639246   -0.841424
     13          6           0       13.550539    0.286443    0.520175
     14          6           0       10.779970    0.042410    0.099778
     15          6           0       -9.528721   -0.121752    0.160400
     16          6           0       12.959396   -0.166943   -0.880580
     17          6           0       11.521473   -0.496637   -0.861089
     18          6           0       10.340877    2.205646    0.962876
     19          6           0       11.003358    0.407148    2.463725
     20          6           0      -11.371376   -0.156486   -2.504439
     21          6           0       -8.513018    0.807553   -0.255979
     22          6           0        9.287232   -0.290478    0.016989
     23          6           0       11.218760   -1.301245   -2.182279
     24          6           0       -7.136102    0.451934   -0.266091
     25          6           0        8.802024   -1.548732   -0.073413
     26          6           0       -6.723506   -0.907305    0.092237
     27          6           0        7.490540   -2.129279   -0.165477
     28          6           0       -6.205749    1.399444   -0.558974
     29          6           0        7.115780   -3.563368    0.010174
     30          6           0        6.441663   -1.133574   -0.192644
     31          6           0       -4.868508    1.340730   -0.498629
     32          6           0        5.054522   -1.403630   -0.190902
     33          6           0       -4.124456    2.467562   -0.804047
     34          6           0       -2.667692    2.486105   -0.866802
     35          6           0        3.985573   -0.580374   -0.320494
     36          6           0        2.696770   -0.758209   -0.248890
     37          6           0       -1.954518    3.794704   -1.149064
     38          6           0       -1.858787    1.378320   -0.633529
     39          6           0        1.762415    0.267708   -0.351167
     40          6           0        2.159389   -2.106901    0.114343
     41          6           0       -0.470008    1.431259   -0.537203
     42          6           0        0.326252    0.228963   -0.449345
     43          1           0      -10.899667    1.326695   -0.561938
     44          1           0      -12.615630   -1.397801    2.408834
     45          1           0      -11.155925   -1.809729    1.824365
     46          1           0      -12.239229   -3.182367    0.555104
     47          1           0       -9.984706    0.534317    2.659666
     48          1           0      -10.933027    1.886579    2.176319
     49          1           0      -11.635680    0.780508    3.440051
     50          1           0      -13.906825    0.473310    0.394810
     51          1           0      -13.445633    0.846597    2.178865
     52          1           0      -12.934913    2.029094    0.830245
     53          1           0       12.777952    2.203017    0.188412
     54          1           0       13.127500    1.876398    1.712019
     55          1           0      -12.773951   -2.279697   -1.616718
     56          1           0       13.216262   -0.515784    1.204638
     57          1           0       -9.360292   -1.266030    0.351571
     58          1           0       13.667431   -0.968122   -0.916027
     59          1           0       13.013590    0.535521   -1.576258
     60          1           0        9.206883    1.753613    1.047164
     61          1           0       10.456098    2.674545   -0.076893
     62          1           0       10.444896    2.980618    1.785146
     63          1           0       11.852839   -0.500944    2.647642
     64          1           0       10.075592   -0.256060    2.423788
     65          1           0       10.963206    1.136343    3.154115
     66          1           0      -10.285468   -0.071963   -2.861002
     67          1           0      -11.904520    0.830395   -2.617082
     68          1           0      -11.939553   -0.861338   -3.130269
     69          1           0      -14.461351   -1.984151   -0.180793
     70          1           0        8.543374    0.580161   -0.194249
     71          1           0       -8.887311    1.906261   -0.669229
     72          1           0       11.724570   -2.328756   -2.156551
     73          1           0       10.158018   -1.483605   -2.448583
     74          1           0       11.628096   -0.611888   -3.107674
     75          1           0       15.231325    0.583219    1.426848
     76          1           0        9.766976   -2.252755   -0.055363
     77          1           0       -5.538417   -0.962120   -0.215927
     78          1           0       -6.763098   -1.130007    1.266514
     79          1           0       -7.234759   -1.666546   -0.325239
     80          1           0       -6.579616    2.440485   -0.938134
     81          1           0        6.416762   -3.692890    0.897802
     82          1           0        6.853124   -3.916082   -1.041036
     83          1           0        8.182792   -4.008956    0.272730
     84          1           0        6.882452   -0.178135   -0.386784
     85          1           0       -4.454918    0.347191    0.046335
     86          1           0        4.721190   -2.423405   -0.061891
     87          1           0       -4.688494    3.258335   -1.260209
     88          1           0        4.277254    0.505966   -0.472966
     89          1           0       -0.965059    3.809562   -1.820619
     90          1           0       -1.829842    4.100587   -0.018378
     91          1           0       -2.644306    4.660727   -1.567107
     92          1           0       -2.103544    0.301156   -0.421522
     93          1           0        2.185467    1.184413   -0.587669
     94          1           0        2.454828   -2.207183    1.188844
     95          1           0        1.177545   -2.035352    0.196150
     96          1           0        2.648362   -2.847382   -0.702691
     97          1           0        0.001373    2.311446   -0.690266
     98          1           0       -0.126765   -0.696743   -0.201112
 ---------------------------------------------------------------------

 SCF Done:  E(RCAM-B3LYP) =  -1706.92093051     A.U. after   16 cycles

 Excitation energies and oscillator strengths:

 Excited State   1:      Singlet-A      1.9162 eV  647.03 nm  f=3.1945  <S**2>=0.000
     155 ->158         0.13990
     156 ->157         0.69685
     156 <-157        -0.10550
 This state for optimization and/or second-order correction.
 Total Energy, E(TD-HF/TD-DFT) =  -1706.85051138
 Copying the excited state density for this state as the 1-particle RhoCI density.

 The electronic state is 1-A.
 Alpha  occ. eigenvalues --  -19.22214 -19.21683 -10.30595 -10.30195 -10.28561
 Alpha  occ. eigenvalues --  -10.28519 -10.28471 -10.28375 -10.27730 -10.27419
 Alpha  occ. eigenvalues --  -10.27398 -10.27344 -10.27200 -10.27184 -10.27107
 Alpha  occ. eigenvalues --  -10.26991 -10.26906 -10.26751 -10.26719 -10.26719
 Alpha  occ. eigenvalues --  -10.26511 -10.26457 -10.26382 -10.26154 -10.26090
 Alpha  occ. eigenvalues --  -10.26052 -10.26035 -10.25946 -10.25925 -10.25881
 Alpha  occ. eigenvalues --  -10.25778 -10.25769 -10.25575 -10.25154 -10.24911
 Alpha  occ. eigenvalues --  -10.24898 -10.24728 -10.24372 -10.24243 -10.23178
 Alpha  occ. eigenvalues --  -10.22726 -10.22193  -1.08995  -1.08562  -0.94597
 Alpha  occ. eigenvalues --   -0.93500  -0.92992  -0.92706  -0.90851  -0.90126
 Alpha  occ. eigenvalues --   -0.88066  -0.87248  -0.86915  -0.85375  -0.84318
 Alpha  occ. eigenvalues --   -0.83409  -0.82255  -0.80255  -0.79915  -0.78169
 Alpha  occ. eigenvalues --   -0.76792  -0.76624  -0.76308  -0.76235  -0.75471
 Alpha  occ. eigenvalues --   -0.75213  -0.74906  -0.74237  -0.72498  -0.70360
 Alpha  occ. eigenvalues --   -0.68789  -0.67307  -0.66584  -0.65281  -0.63480
 Alpha  occ. eigenvalues --   -0.63277  -0.62891  -0.62039  -0.60743  -0.59422
 Alpha  occ. eigenvalues --   -0.59190  -0.58671  -0.58047  -0.57283  -0.56462
 Alpha  occ. eigenvalues --   -0.55579  -0.54938  -0.54348  -0.54177  -0.53639
 Alpha  occ. eigenvalues --   -0.53179  -0.52974  -0.52633  -0.52404  -0.51457
 Alpha  occ. eigenvalues --   -0.51181  -0.49996  -0.49812  -0.49647  -0.49266
 Alpha  occ. eigenvalues --   -0.49118  -0.48866  -0.48655  -0.48406  -0.48107
 Alpha  occ. eigenvalues --   -0.47904  -0.47302  -0.46735  -0.46298  -0.46095
 Alpha  occ. eigenvalues --   -0.45805  -0.45550  -0.45445  -0.45144  -0.44665
 Alpha  occ. eigenvalues --   -0.44615  -0.44089  -0.43792  -0.43683  -0.43323
 Alpha  occ. eigenvalues --   -0.43288  -0.42953  -0.42401  -0.42355  -0.42087
 Alpha  occ. eigenvalues --   -0.41783  -0.41338  -0.41180  -0.41006  -0.40744
 Alpha  occ. eigenvalues --   -0.40383  -0.40296  -0.40225  -0.39875  -0.39807
 Alpha  occ. eigenvalues --   -0.39568  -0.38648  -0.38595  -0.38127  -0.37888
 Alpha  occ. eigenvalues --   -0.37420  -0.36971  -0.36123  -0.35704  -0.35334
 Alpha  occ. eigenvalues --   -0.35202  -0.34418  -0.33828  -0.32274  -0.31703
 Alpha  occ. eigenvalues --   -0.30402  -0.30216  -0.29519  -0.27142  -0.23551
 Alpha  occ. eigenvalues --   -0.18782
 Alpha virt. eigenvalues --   -0.06812  -0.01827   0.02714   0.05762   0.07349
 Alpha virt. eigenvalues --    0.08340   0.10047   0.11135   0.12021   0.12260
 Alpha virt. eigenvalues --    0.12742   0.13221   0.13299   0.13755   0.14078

 Mulliken charges:
               1
     1  O   -0.536311
     2  O   -0.558950
     3  C   -0.002511
     4  C   -0.108091
     5  C   -0.168224
     6  C    0.133611
     7  C    0.120702
     8  C    0.013951
     9  C   -0.314647
    10  C   -0.271410
    11  C   -0.151151
    12  C   -0.168761
    13  C    0.103552
    14  C    0.011413
    15  C   -0.094903
    16  C   -0.201162
    17  C    0.037827
    18  C   -0.292710
    19  C   -0.280851
    20  C   -0.360924
    21  C   -0.119740
    22  C   -0.135491
    23  C   -0.334156
    24  C    0.126388
    25  C   -0.103976
    26  C   -0.362675
    27  C    0.070211
    28  C   -0.104978
    29  C   -0.360808
    30  C   -0.086649
    31  C   -0.040166
    32  C   -0.109222
    33  C   -0.143897
    34  C    0.063388
    35  C   -0.095448
    36  C    0.119827
    37  C   -0.369277
    38  C   -0.091112
    39  C   -0.130409
    40  C   -0.346508
    41  C   -0.065782
    42  C   -0.110082
    43  H    0.067808
    44  H    0.113234
    45  H    0.092533
    46  H    0.075711
    47  H    0.102108
    48  H    0.101852
    49  H    0.093926
    50  H    0.107138
    51  H    0.110951
    52  H    0.079714
    53  H    0.102663
    54  H    0.073243
    55  H    0.073658
    56  H    0.080610
    57  H    0.095293
    58  H    0.109170
    59  H    0.121654
    60  H    0.076201
    61  H    0.106116
    62  H    0.091175
    63  H    0.068209
    64  H    0.114514
    65  H    0.106621
    66  H    0.125377
    67  H    0.108096
    68  H    0.107320
    69  H    0.301807
    70  H    0.095611
    71  H    0.085472
    72  H    0.114783
    73  H    0.118638
    74  H    0.091584
    75  H    0.311588
    76  H    0.066180
    77  H    0.083058
    78  H    0.105725
    79  H    0.131807
    80  H    0.069602
    81  H    0.137219
    82  H    0.133069
    83  H    0.096348
    84  H    0.070758
    85  H    0.093770
    86  H    0.071903
    87  H    0.090787
    88  H    0.060651
    89  H    0.120583
    90  H    0.129005
    91  H    0.100031
    92  H    0.077909
    93  H    0.069010
    94  H    0.120449
    95  H    0.104352
    96  H    0.104318
    97  H    0.076870
    98  H    0.082322
 Sum of Mulliken charges =  -0.00000

 Dipole moment (field-independent basis, Debye):
    X=             -0.3594    Y=             -0.6093    Z=             -0.6093  Tot=              0.9336
 Quadrupole moment (field-independent basis, Debye-Ang):
   XX=           -298.3023   YY=           -248.2395   ZZ=           -260.2709
   XY=             -4.9246   XZ=             39.9880   YZ=             -0.9407

 Normal termination of Gaussian 16 at Tue Jul 16 04:41:22 2019.
