 Gaussian 16, Revision A.03,
 Gaussian 16:  ES64L-G16RevA.03 25-Dec-2016

 -------------------------------------
 # td=(NStates=1) CAM-B3LYP/6-31G(d,p)
 -------------------------------------

 --
 TD
 --
 Symbolic Z-matrix:
 Charge =  0 Multiplicity = 1

                         Standard orientation:
 ---------------------------------------------------------------------
 Center     Atomic      Atomic             Coordinates (Angstroms)
 Number     Number       Type             X           Y           Z
 ---------------------------------------------------------------------
      1          8           0      -14.148689   -1.757797    0.657797
      2          8           0       14.776220    0.945939    0.378778
      3          6           0      -11.722923    0.022152    1.310545
      4          6           0      -11.032275    0.441533   -0.081769
      5          6           0      -11.935522   -1.493227    1.456979
      6          6           0      -12.783472   -2.081827    0.307555
      7          6           0      -11.670969   -0.454138   -1.255804
      8          6           0       10.983494    0.982502    1.135497
      9          6           0      -10.732635    0.522475    2.415825
     10          6           0      -13.049444    0.867938    1.395976
     11          6           0       12.507246    1.573310    0.927116
     12          6           0      -12.376538   -1.557244   -1.090213
     13          6           0       13.486073    0.512373    0.511939
     14          6           0       10.609821    0.065181   -0.025665
     15          6           0       -9.518155    0.063601   -0.033979
     16          6           0       13.019966   -0.135390   -0.833641
     17          6           0       11.543541   -0.347288   -0.961577
     18          6           0       10.083825    2.148348    1.157083
     19          6           0       10.941613    0.240188    2.365436
     20          6           0      -11.333249    0.076753   -2.684596
     21          6           0       -8.536006    0.963489   -0.265930
     22          6           0        9.161774   -0.404297    0.088924
     23          6           0       11.254550   -1.170398   -2.164629
     24          6           0       -7.133605    0.591948   -0.125569
     25          6           0        8.859911   -1.704307   -0.277558
     26          6           0       -6.856475   -0.835378    0.287266
     27          6           0        7.406710   -2.177288   -0.201709
     28          6           0       -6.123101    1.555899   -0.351609
     29          6           0        7.147626   -3.718435   -0.058345
     30          6           0        6.380887   -1.283470   -0.271514
     31          6           0       -4.730204    1.402557   -0.360622
     32          6           0        5.072369   -1.636708   -0.133875
     33          6           0       -3.929604    2.573613   -0.664662
     34          6           0       -2.517817    2.584000   -0.718964
     35          6           0        3.935408   -0.742745   -0.358192
     36          6           0        2.576508   -0.900994   -0.135598
     37          6           0       -1.723844    3.860057   -1.109779
     38          6           0       -1.753067    1.453258   -0.498625
     39          6           0        1.715985    0.194428   -0.500356
     40          6           0        2.112397   -2.291330    0.276811
     41          6           0       -0.343450    1.324568   -0.542207
     42          6           0        0.313688    0.152152   -0.245379
     43          1           0      -11.079822    1.343953   -0.217087
     44          1           0      -12.565898   -1.594995    2.359588
     45          1           0      -10.878701   -2.093341    1.730163
     46          1           0      -12.589874   -3.076998    0.309472
     47          1           0       -9.824062    0.034182    2.476142
     48          1           0      -10.698241    1.631053    2.457209
     49          1           0      -11.177070    0.427437    3.423547
     50          1           0      -13.761943    0.855293    0.444964
     51          1           0      -13.682060    0.527210    2.159814
     52          1           0      -12.486917    1.908711    1.494148
     53          1           0       12.321941    2.475477    0.150490
     54          1           0       12.957265    2.037825    1.887666
     55          1           0      -12.760185   -2.042817   -1.979220
     56          1           0       13.557385   -0.249369    1.353587
     57          1           0       -9.350464   -1.058803    0.272966
     58          1           0       13.534703   -0.841877   -1.268971
     59          1           0       13.169092    0.598424   -1.736205
     60          1           0        9.187458    1.849692    1.810683
     61          1           0        9.827522    2.605660    0.235932
     62          1           0       10.420701    3.098579    1.695041
     63          1           0       11.290894   -0.967950    2.303584
     64          1           0        9.908736   -0.187378    2.668235
     65          1           0       11.322848    0.664180    3.267327
     66          1           0      -10.277399    0.215197   -2.567834
     67          1           0      -11.741925    1.153545   -2.653013
     68          1           0      -11.723896   -0.664790   -3.470728
     69          1           0      -14.563509   -2.310423   -0.085809
     70          1           0        8.375359    0.090600    0.739470
     71          1           0       -8.717095    2.065921   -0.388945
     72          1           0       11.671344   -2.266484   -2.260623
     73          1           0       10.271204   -1.274553   -2.304599
     74          1           0       11.750594   -0.684517   -3.041750
     75          1           0       15.011618    1.781347    0.995236
     76          1           0        9.479735   -2.492101   -0.801154
     77          1           0       -5.697785   -1.163236    0.210033
     78          1           0       -7.164196   -1.013043    1.355018
     79          1           0       -7.361614   -1.704357   -0.384629
     80          1           0       -6.549455    2.691352   -0.781568
     81          1           0        6.588508   -3.736714    0.808461
     82          1           0        6.739899   -4.451904   -0.715624
     83          1           0        8.212403   -4.187502    0.209839
     84          1           0        6.844649   -0.111378   -0.442945
     85          1           0       -4.210440    0.460899   -0.181256
     86          1           0        4.711426   -2.731614    0.411764
     87          1           0       -4.525143    3.320753   -1.017796
     88          1           0        4.277432    0.242943   -0.727447
     89          1           0       -1.086588    3.888190   -2.019508
     90          1           0       -0.974526    4.171661   -0.369852
     91          1           0       -2.519935    4.642260   -1.367233
     92          1           0       -2.364213    0.563730   -0.256828
     93          1           0        2.158982    1.034018   -0.885277
     94          1           0        2.585369   -2.525473    1.214048
     95          1           0        1.000789   -2.456826    0.334715
     96          1           0        2.277281   -2.992708   -0.547923
     97          1           0        0.291458    2.253857   -0.643732
     98          1           0       -0.300098   -0.685097   -0.061712
 ---------------------------------------------------------------------

 SCF Done:  E(RCAM-B3LYP) =  -1706.92744607     A.U. after   15 cycles

 Excitation energies and oscillator strengths:

 Excited State   1:      Singlet-A      1.9445 eV  637.62 nm  f=3.0366  <S**2>=0.000
     155 ->158         0.14510
     156 ->157         0.69513
     156 <-157        -0.10058
 This state for optimization and/or second-order correction.
 Total Energy, E(TD-HF/TD-DFT) =  -1706.85598769
 Copying the excited state density for this state as the 1-particle RhoCI density.

 The electronic state is 1-A.
 Alpha  occ. eigenvalues --  -19.22073 -19.21078 -10.30550 -10.30122 -10.28285
 Alpha  occ. eigenvalues --  -10.28091 -10.28019 -10.27987 -10.27579 -10.27466
 Alpha  occ. eigenvalues --  -10.27441 -10.27357 -10.27311 -10.27232 -10.27209
 Alpha  occ. eigenvalues --  -10.27178 -10.27075 -10.27062 -10.26924 -10.26845
 Alpha  occ. eigenvalues --  -10.26637 -10.26633 -10.26531 -10.26523 -10.26444
 Alpha  occ. eigenvalues --  -10.26396 -10.26379 -10.26283 -10.26282 -10.26125
 Alpha  occ. eigenvalues --  -10.25976 -10.25818 -10.25811 -10.25577 -10.25553
 Alpha  occ. eigenvalues --  -10.25467 -10.24911 -10.24845 -10.24725 -10.24666
 Alpha  occ. eigenvalues --  -10.24496 -10.23569  -1.09095  -1.08877  -0.93444
 Alpha  occ. eigenvalues --   -0.92203  -0.91738  -0.90831  -0.89868  -0.89160
 Alpha  occ. eigenvalues --   -0.87858  -0.86793  -0.85876  -0.84646  -0.83932
 Alpha  occ. eigenvalues --   -0.82251  -0.81127  -0.79621  -0.79352  -0.77978
 Alpha  occ. eigenvalues --   -0.76303  -0.76087  -0.75744  -0.75618  -0.75430
 Alpha  occ. eigenvalues --   -0.75273  -0.74957  -0.74377  -0.72385  -0.69822
 Alpha  occ. eigenvalues --   -0.68611  -0.68171  -0.66508  -0.65083  -0.64061
 Alpha  occ. eigenvalues --   -0.63312  -0.62388  -0.61419  -0.60472  -0.58970
 Alpha  occ. eigenvalues --   -0.58168  -0.57409  -0.56943  -0.56535  -0.56097
 Alpha  occ. eigenvalues --   -0.55762  -0.55089  -0.54754  -0.53807  -0.53569
 Alpha  occ. eigenvalues --   -0.53097  -0.52361  -0.52213  -0.51533  -0.51131
 Alpha  occ. eigenvalues --   -0.50417  -0.50115  -0.50018  -0.49476  -0.49313
 Alpha  occ. eigenvalues --   -0.48733  -0.48220  -0.47998  -0.47641  -0.47517
 Alpha  occ. eigenvalues --   -0.47205  -0.46920  -0.46873  -0.46707  -0.46029
 Alpha  occ. eigenvalues --   -0.45853  -0.45592  -0.45502  -0.45245  -0.45054
 Alpha  occ. eigenvalues --   -0.44276  -0.43827  -0.43632  -0.43214  -0.43143
 Alpha  occ. eigenvalues --   -0.42839  -0.42739  -0.42366  -0.42148  -0.41536
 Alpha  occ. eigenvalues --   -0.41316  -0.41095  -0.40939  -0.40343  -0.40294
 Alpha  occ. eigenvalues --   -0.40169  -0.40090  -0.39814  -0.39611  -0.39548
 Alpha  occ. eigenvalues --   -0.39179  -0.38672  -0.38319  -0.37766  -0.37498
 Alpha  occ. eigenvalues --   -0.37148  -0.37047  -0.36063  -0.35762  -0.35557
 Alpha  occ. eigenvalues --   -0.34452  -0.33735  -0.33386  -0.32574  -0.31697
 Alpha  occ. eigenvalues --   -0.31024  -0.29922  -0.28946  -0.26157  -0.23159
 Alpha  occ. eigenvalues --   -0.18707
 Alpha virt. eigenvalues --   -0.06392  -0.01377   0.02812   0.05676   0.07627
 Alpha virt. eigenvalues --    0.09209   0.10385   0.10554   0.10974   0.11358
 Alpha virt. eigenvalues --    0.11551   0.12576   0.13181   0.13515   0.13827

 Mulliken charges:
               1
     1  O   -0.533651
     2  O   -0.572877
     3  C    0.018810
     4  C   -0.058171
     5  C   -0.190037
     6  C    0.123156
     7  C    0.108353
     8  C    0.014569
     9  C   -0.309208
    10  C   -0.276635
    11  C   -0.214916
    12  C   -0.164451
    13  C    0.231632
    14  C    0.044757
    15  C   -0.103429
    16  C   -0.210856
    17  C    0.065329
    18  C   -0.314597
    19  C   -0.302937
    20  C   -0.345428
    21  C   -0.095429
    22  C   -0.146773
    23  C   -0.368078
    24  C    0.117655
    25  C   -0.091664
    26  C   -0.373722
    27  C    0.042648
    28  C   -0.136485
    29  C   -0.368266
    30  C   -0.081893
    31  C   -0.056043
    32  C   -0.118107
    33  C   -0.127633
    34  C    0.102489
    35  C   -0.125213
    36  C    0.101034
    37  C   -0.381398
    38  C   -0.115478
    39  C   -0.123149
    40  C   -0.375599
    41  C   -0.079036
    42  C   -0.064172
    43  H    0.056653
    44  H    0.116809
    45  H    0.061463
    46  H    0.093416
    47  H    0.113679
    48  H    0.092691
    49  H    0.088363
    50  H    0.102322
    51  H    0.116335
    52  H    0.071393
    53  H    0.080722
    54  H    0.067810
    55  H    0.070318
    56  H    0.075224
    57  H    0.095908
    58  H    0.117968
    59  H    0.093965
    60  H    0.092198
    61  H    0.119869
    62  H    0.091125
    63  H    0.082703
    64  H    0.093096
    65  H    0.109932
    66  H    0.130158
    67  H    0.106475
    68  H    0.103705
    69  H    0.305408
    70  H    0.117348
    71  H    0.089063
    72  H    0.097286
    73  H    0.125958
    74  H    0.101097
    75  H    0.307364
    76  H    0.104071
    77  H    0.088164
    78  H    0.126827
    79  H    0.107752
    80  H    0.060903
    81  H    0.134913
    82  H    0.130687
    83  H    0.081031
    84  H    0.082672
    85  H    0.094090
    86  H    0.068891
    87  H    0.081479
    88  H    0.074728
    89  H    0.120685
    90  H    0.125188
    91  H    0.096293
    92  H    0.062600
    93  H    0.088492
    94  H    0.128400
    95  H    0.100141
    96  H    0.132759
    97  H    0.082947
    98  H    0.093360
 Sum of Mulliken charges =  -0.00000

 Dipole moment (field-independent basis, Debye):
    X=             -0.4013    Y=             -0.7392    Z=             -0.1218  Tot=              0.8498
 Quadrupole moment (field-independent basis, Debye-Ang):
   XX=           -281.5019   YY=           -240.2262   ZZ=           -262.8096
   XY=             24.5684   XZ=             25.9520   YZ=              1.7340

 Normal termination of Gaussian 16 at Tue Jul 16 00:54:50 2019.
