 Gaussian 16, Revision A.03,
 Gaussian 16:  ES64L-G16RevA.03 25-Dec-2016

 -------------------------------------
 # td=(NStates=1) CAM-B3LYP/6-31G(d,p)
 -------------------------------------

 --
 TD
 --
 Symbolic Z-matrix:
 Charge =  0 Multiplicity = 1

                         Standard orientation:
 ---------------------------------------------------------------------
 Center     Atomic      Atomic             Coordinates (Angstroms)
 Number     Number       Type             X           Y           Z
 ---------------------------------------------------------------------
      1          8           0      -14.132592   -1.935996    0.634231
      2          8           0       14.782104    0.882220   -0.094155
      3          6           0      -11.664254    0.050230    1.274539
      4          6           0      -10.983700    0.267251   -0.043213
      5          6           0      -11.923741   -1.375687    1.514278
      6          6           0      -12.695418   -2.057462    0.312945
      7          6           0      -11.636346   -0.381520   -1.242688
      8          6           0       11.119466    1.049877    1.107413
      9          6           0      -10.911430    0.534525    2.510231
     10          6           0      -12.962518    0.855064    1.331020
     11          6           0       12.481062    1.487739    0.776466
     12          6           0      -12.355559   -1.529046   -1.038337
     13          6           0       13.473474    0.419953    0.340350
     14          6           0       10.590700   -0.133370    0.110587
     15          6           0       -9.533216   -0.026799    0.030155
     16          6           0       12.937314   -0.289043   -0.878366
     17          6           0       11.389580   -0.620697   -0.809261
     18          6           0       10.196759    2.235447    1.021711
     19          6           0       11.066121    0.348566    2.468730
     20          6           0      -11.293529    0.058073   -2.580679
     21          6           0       -8.476695    0.828359   -0.284120
     22          6           0        9.235800   -0.392475    0.097595
     23          6           0       10.995174   -1.497504   -1.909367
     24          6           0       -7.089486    0.459689   -0.236856
     25          6           0        8.729767   -1.644586   -0.108208
     26          6           0       -6.659641   -0.976568    0.023858
     27          6           0        7.353169   -2.095046   -0.048845
     28          6           0       -6.220018    1.471778   -0.459570
     29          6           0        7.068661   -3.654927   -0.070145
     30          6           0        6.403010   -1.108061   -0.098917
     31          6           0       -4.798337    1.497951   -0.481915
     32          6           0        4.977517   -1.483366   -0.120267
     33          6           0       -3.945123    2.589441   -0.687896
     34          6           0       -2.618891    2.644638   -0.708441
     35          6           0        3.993187   -0.565772   -0.152570
     36          6           0        2.609125   -0.755354   -0.051513
     37          6           0       -1.902350    3.909453   -0.909795
     38          6           0       -1.764904    1.516982   -0.601025
     39          6           0        1.793013    0.348566   -0.382645
     40          6           0        2.121940   -2.200811    0.174557
     41          6           0       -0.344998    1.491046   -0.448280
     42          6           0        0.406707    0.361983   -0.327255
     43          1           0      -10.952572    1.293932   -0.239465
     44          1           0      -12.383631   -1.705616    2.400806
     45          1           0      -10.749065   -1.788778    1.656674
     46          1           0      -12.367880   -3.208042    0.176285
     47          1           0      -10.030374   -0.149357    2.641989
     48          1           0      -10.563355    1.623749    2.510437
     49          1           0      -11.421101    0.512939    3.539139
     50          1           0      -13.849927    0.476107    0.793231
     51          1           0      -13.264161    0.661302    2.315747
     52          1           0      -12.925725    1.964014    1.365919
     53          1           0       12.515707    2.203788    0.113269
     54          1           0       12.870355    2.023836    1.720608
     55          1           0      -12.651594   -2.040861   -1.974235
     56          1           0       13.572951   -0.401817    1.201511
     57          1           0       -9.142083   -1.090742   -0.135717
     58          1           0       13.463633   -1.183446   -0.943684
     59          1           0       13.100093    0.645089   -1.638756
     60          1           0        9.222160    2.002769    1.498475
     61          1           0        9.867574    2.420007   -0.032330
     62          1           0       10.635523    3.132976    1.475035
     63          1           0       11.390831   -0.652482    2.637162
     64          1           0        9.833962    0.083579    2.920239
     65          1           0       11.407027    0.992573    3.327406
     66          1           0      -10.116938   -0.071382   -2.640560
     67          1           0      -11.594944    1.009187   -2.949912
     68          1           0      -11.782930   -0.703572   -3.258254
     69          1           0      -14.532694   -2.520597   -0.038805
     70          1           0        8.568542    0.268076    0.000554
     71          1           0       -8.604851    1.759088   -0.601203
     72          1           0       11.179436   -2.621370   -1.614632
     73          1           0       10.078010   -1.420270   -2.086312
     74          1           0       11.633239   -1.318357   -2.913465
     75          1           0       15.077594    1.595082    0.682556
     76          1           0        9.316501   -2.401724   -0.205885
     77          1           0       -5.555357   -0.917122    0.033460
     78          1           0       -7.038280   -1.449206    0.942388
     79          1           0       -7.094517   -1.725772   -0.870193
     80          1           0       -6.705174    2.640839   -0.637116
     81          1           0        6.668713   -4.141093    1.101787
     82          1           0        6.471001   -4.204278   -0.658776
     83          1           0        8.277086   -3.994207   -0.201614
     84          1           0        6.617363   -0.133154   -0.467064
     85          1           0       -4.271090    0.553022   -0.184752
     86          1           0        4.846724   -2.445666   -0.214776
     87          1           0       -4.372601    3.620565   -0.815572
     88          1           0        4.399351    0.651438   -0.244945
     89          1           0       -1.344566    4.018103   -1.853595
     90          1           0       -1.293807    4.096369   -0.161519
     91          1           0       -2.588809    4.678708   -1.283542
     92          1           0       -2.264926    0.417942   -0.304340
     93          1           0        2.422989    1.148916   -0.724178
     94          1           0        2.301990   -2.362520    1.227350
     95          1           0        1.062383   -2.228035    0.047028
     96          1           0        2.681240   -2.978484   -0.489112
     97          1           0        0.092953    2.556968   -0.686371
     98          1           0       -0.276452   -0.593898   -0.064561
 ---------------------------------------------------------------------

 SCF Done:  E(RCAM-B3LYP) =  -1706.85672452     A.U. after   15 cycles

 Excitation energies and oscillator strengths:

 Excited State   1:      Singlet-A      2.0311 eV  610.44 nm  f=3.0029  <S**2>=0.000
     155 ->158         0.14490
     156 ->157         0.69506
 This state for optimization and/or second-order correction.
 Total Energy, E(TD-HF/TD-DFT) =  -1706.78208444
 Copying the excited state density for this state as the 1-particle RhoCI density.

 The electronic state is 1-A.
 Alpha  occ. eigenvalues --  -19.22689 -19.21569 -10.32039 -10.30801 -10.29463
 Alpha  occ. eigenvalues --  -10.28068 -10.28008 -10.27827 -10.27665 -10.27630
 Alpha  occ. eigenvalues --  -10.27404 -10.27390 -10.27311 -10.27238 -10.27100
 Alpha  occ. eigenvalues --  -10.27064 -10.26695 -10.26575 -10.26472 -10.26381
 Alpha  occ. eigenvalues --  -10.26375 -10.26253 -10.26166 -10.25988 -10.25983
 Alpha  occ. eigenvalues --  -10.25762 -10.25760 -10.25759 -10.25523 -10.25353
 Alpha  occ. eigenvalues --  -10.25352 -10.25158 -10.25119 -10.25078 -10.25059
 Alpha  occ. eigenvalues --  -10.24756 -10.24600 -10.24575 -10.24393 -10.24224
 Alpha  occ. eigenvalues --  -10.23973 -10.21937  -1.08038  -1.07068  -0.94523
 Alpha  occ. eigenvalues --   -0.94487  -0.92673  -0.91908  -0.90899  -0.90539
 Alpha  occ. eigenvalues --   -0.88408  -0.87795  -0.87089  -0.85339  -0.84731
 Alpha  occ. eigenvalues --   -0.82900  -0.82216  -0.80291  -0.80155  -0.78534
 Alpha  occ. eigenvalues --   -0.76934  -0.76907  -0.76833  -0.76295  -0.76019
 Alpha  occ. eigenvalues --   -0.75491  -0.75268  -0.74020  -0.73209  -0.71224
 Alpha  occ. eigenvalues --   -0.69836  -0.67387  -0.66700  -0.65010  -0.63742
 Alpha  occ. eigenvalues --   -0.63656  -0.63067  -0.61694  -0.60972  -0.59500
 Alpha  occ. eigenvalues --   -0.59216  -0.58654  -0.57760  -0.57389  -0.56302
 Alpha  occ. eigenvalues --   -0.56023  -0.55678  -0.55458  -0.54221  -0.54039
 Alpha  occ. eigenvalues --   -0.52925  -0.52681  -0.52597  -0.52129  -0.51798
 Alpha  occ. eigenvalues --   -0.51473  -0.50968  -0.50411  -0.49819  -0.49385
 Alpha  occ. eigenvalues --   -0.48823  -0.48649  -0.48366  -0.47907  -0.47845
 Alpha  occ. eigenvalues --   -0.47222  -0.47140  -0.46778  -0.46540  -0.46225
 Alpha  occ. eigenvalues --   -0.45907  -0.45774  -0.45413  -0.45116  -0.44486
 Alpha  occ. eigenvalues --   -0.44349  -0.44203  -0.44001  -0.43585  -0.43514
 Alpha  occ. eigenvalues --   -0.43192  -0.42933  -0.42589  -0.42212  -0.41620
 Alpha  occ. eigenvalues --   -0.41253  -0.41180  -0.40940  -0.40707  -0.40026
 Alpha  occ. eigenvalues --   -0.39897  -0.39672  -0.39546  -0.39413  -0.39315
 Alpha  occ. eigenvalues --   -0.39261  -0.39110  -0.38824  -0.38110  -0.37974
 Alpha  occ. eigenvalues --   -0.37500  -0.37055  -0.36833  -0.35907  -0.35810
 Alpha  occ. eigenvalues --   -0.35211  -0.34717  -0.34048  -0.32499  -0.32394
 Alpha  occ. eigenvalues --   -0.31420  -0.29640  -0.28814  -0.26993  -0.23582
 Alpha  occ. eigenvalues --   -0.19263
 Alpha virt. eigenvalues --   -0.06436  -0.01360   0.02539   0.05227   0.07074
 Alpha virt. eigenvalues --    0.08614   0.10162   0.10747   0.10875   0.11268
 Alpha virt. eigenvalues --    0.12049   0.12272   0.12472   0.13142   0.13251

 Mulliken charges:
               1
     1  O   -0.536381
     2  O   -0.559425
     3  C    0.018308
     4  C   -0.110991
     5  C   -0.151888
     6  C    0.101739
     7  C    0.135867
     8  C    0.024110
     9  C   -0.304008
    10  C   -0.311832
    11  C   -0.183744
    12  C   -0.122541
    13  C    0.154903
    14  C    0.044356
    15  C   -0.100624
    16  C   -0.196621
    17  C    0.040153
    18  C   -0.321864
    19  C   -0.290567
    20  C   -0.362670
    21  C   -0.077562
    22  C   -0.053329
    23  C   -0.340762
    24  C    0.126982
    25  C   -0.104517
    26  C   -0.360682
    27  C    0.084271
    28  C   -0.122883
    29  C   -0.335475
    30  C   -0.129223
    31  C   -0.089788
    32  C   -0.065684
    33  C   -0.119603
    34  C    0.114587
    35  C   -0.116547
    36  C    0.096921
    37  C   -0.388328
    38  C   -0.117719
    39  C   -0.112166
    40  C   -0.361390
    41  C   -0.077287
    42  C   -0.093298
    43  H    0.093561
    44  H    0.120437
    45  H    0.061705
    46  H    0.064580
    47  H    0.092281
    48  H    0.090809
    49  H    0.098075
    50  H    0.123380
    51  H    0.101699
    52  H    0.085181
    53  H    0.108566
    54  H    0.068378
    55  H    0.071058
    56  H    0.057570
    57  H    0.075226
    58  H    0.121111
    59  H    0.104419
    60  H    0.110575
    61  H    0.107837
    62  H    0.104883
    63  H    0.128571
    64  H    0.046781
    65  H    0.092178
    66  H    0.110284
    67  H    0.125767
    68  H    0.099875
    69  H    0.306347
    70  H    0.063814
    71  H    0.067811
    72  H    0.096364
    73  H    0.126795
    74  H    0.090966
    75  H    0.301985
    76  H    0.050380
    77  H    0.107755
    78  H    0.132664
    79  H    0.096181
    80  H    0.062436
    81  H    0.073857
    82  H    0.145738
    83  H    0.082480
    84  H    0.095944
    85  H    0.082586
    86  H    0.067770
    87  H    0.073395
    88  H    0.051296
    89  H    0.123679
    90  H    0.141980
    91  H    0.102144
    92  H    0.047834
    93  H    0.091528
    94  H    0.134350
    95  H    0.113850
    96  H    0.115810
    97  H    0.079143
    98  H    0.085530
 Sum of Mulliken charges =  -0.00000

 Dipole moment (field-independent basis, Debye):
    X=              0.8798    Y=             -0.2966    Z=             -0.6265  Tot=              1.1201
 Quadrupole moment (field-independent basis, Debye-Ang):
   XX=           -296.1984   YY=           -238.3717   ZZ=           -263.5275
   XY=             18.4222   XZ=             32.4262   YZ=              1.8930

 Normal termination of Gaussian 16 at Sat Jul 13 14:09:45 2019.
