 Gaussian 16, Revision A.03,
 Gaussian 16:  ES64L-G16RevA.03 25-Dec-2016

 -------------------------------------
 # td=(NStates=1) CAM-B3LYP/6-31G(d,p)
 -------------------------------------

 --
 TD
 --
 Symbolic Z-matrix:
 Charge =  0 Multiplicity = 1

                         Standard orientation:
 ---------------------------------------------------------------------
 Center     Atomic      Atomic             Coordinates (Angstroms)
 Number     Number       Type             X           Y           Z
 ---------------------------------------------------------------------
      1          8           0      -13.973735   -1.991966    0.502024
      2          8           0       14.730218    0.989965    0.079961
      3          6           0      -11.866611    0.135757    1.323686
      4          6           0      -10.915766    0.331847   -0.087882
      5          6           0      -12.017374   -1.363253    1.480513
      6          6           0      -12.661410   -2.181403    0.309819
      7          6           0      -11.555276   -0.468843   -1.202955
      8          6           0       11.033910    1.047563    0.979543
      9          6           0      -11.135479    0.825181    2.474120
     10          6           0      -13.227912    0.971472    1.156802
     11          6           0       12.380985    1.616531    0.687732
     12          6           0      -12.164651   -1.691503   -1.050684
     13          6           0       13.429139    0.533717    0.383893
     14          6           0       10.624637   -0.122577   -0.103266
     15          6           0       -9.498886    0.004128    0.114253
     16          6           0       13.044833   -0.199500   -0.852595
     17          6           0       11.579530   -0.548862   -0.893075
     18          6           0        9.936383    2.260156    0.914517
     19          6           0       11.033695    0.447764    2.394367
     20          6           0      -11.103050   -0.049841   -2.529321
     21          6           0       -8.566890    0.846956   -0.162793
     22          6           0        9.190494   -0.391192    0.008366
     23          6           0       11.192809   -1.579982   -2.009331
     24          6           0       -7.116631    0.555814   -0.185390
     25          6           0        8.761799   -1.732012   -0.071446
     26          6           0       -6.735486   -0.921819    0.072961
     27          6           0        7.405043   -2.302737    0.072816
     28          6           0       -6.173070    1.438061   -0.548094
     29          6           0        7.132484   -3.668610    0.290934
     30          6           0        6.417025   -1.376352   -0.028839
     31          6           0       -4.778809    1.398092   -0.469092
     32          6           0        4.971246   -1.711111    0.027446
     33          6           0       -3.913093    2.474297   -0.589598
     34          6           0       -2.476302    2.576626   -0.754115
     35          6           0        4.090361   -0.589868   -0.089422
     36          6           0        2.651225   -0.697940   -0.122236
     37          6           0       -1.916398    3.899021   -0.917844
     38          6           0       -1.733060    1.344018   -0.719751
     39          6           0        1.884279    0.396586   -0.255606
     40          6           0        2.051154   -2.115094    0.129846
     41          6           0       -0.340790    1.383829   -0.537410
     42          6           0        0.428057    0.266060   -0.210230
     43          1           0      -11.033678    1.508923   -0.210410
     44          1           0      -12.724820   -1.660442    2.106019
     45          1           0      -11.087173   -1.996849    1.741615
     46          1           0      -12.257725   -3.280329    0.533830
     47          1           0      -10.145163    0.262741    2.537308
     48          1           0      -10.848450    1.914377    2.298633
     49          1           0      -11.851063    0.549702    3.408761
     50          1           0      -13.756430    0.559810    0.345802
     51          1           0      -13.800225    0.960149    2.061727
     52          1           0      -13.118580    1.919487    0.806755
     53          1           0       12.391360    2.443776   -0.089369
     54          1           0       12.774888    2.393383    1.579005
     55          1           0      -12.542003   -1.971467   -2.043472
     56          1           0       13.708753   -0.068989    1.325691
     57          1           0       -9.299721   -1.127140    0.397646
     58          1           0       13.539047   -1.027251   -1.146829
     59          1           0       13.193294    0.553785   -1.762548
     60          1           0        9.031616    2.021068    1.219269
     61          1           0       10.009572    2.756647   -0.189681
     62          1           0       10.218579    3.156184    1.496036
     63          1           0       11.884573   -0.408832    2.511019
     64          1           0       10.084418   -0.278458    2.355127
     65          1           0       11.021397    1.295524    3.304147
     66          1           0      -10.179898    0.173816   -2.665973
     67          1           0      -11.855858    0.612072   -2.799009
     68          1           0      -11.440257   -0.830548   -3.040904
     69          1           0      -14.610190   -2.066084   -0.320850
     70          1           0        8.620364    0.354938    0.321438
     71          1           0       -8.975190    1.816353   -0.682738
     72          1           0       11.536661   -2.532092   -1.706655
     73          1           0       10.172357   -1.575299   -2.232019
     74          1           0       11.839334   -1.209084   -2.966660
     75          1           0       15.062309    1.554322    0.727203
     76          1           0        9.594584   -2.482997    0.106949
     77          1           0       -5.642700   -1.154786   -0.133269
     78          1           0       -7.085655   -1.016733    1.151360
     79          1           0       -7.166105   -1.524058   -0.691553
     80          1           0       -6.527819    2.629981   -0.456206
     81          1           0        6.835912   -3.805368    1.380725
     82          1           0        6.501068   -4.154877   -0.468625
     83          1           0        8.193959   -4.232490    0.307765
     84          1           0        6.636290   -0.319952   -0.250605
     85          1           0       -4.350339    0.325080   -0.327835
     86          1           0        4.490825   -2.656828    0.240489
     87          1           0       -4.443048    3.452600   -0.856034
     88          1           0        4.408708    0.459274   -0.198342
     89          1           0       -1.109263    3.909388   -1.729471
     90          1           0       -1.567985    4.364499    0.015534
     91          1           0       -2.803774    4.651603   -1.496028
     92          1           0       -2.246107    0.575720   -0.569779
     93          1           0        2.348049    1.431664   -0.237717
     94          1           0        2.316635   -2.290688    1.231203
     95          1           0        1.073689   -2.225542   -0.081334
     96          1           0        2.697774   -2.714133   -0.693726
     97          1           0        0.231714    2.469592   -0.703041
     98          1           0       -0.053240   -0.695014   -0.000071
 ---------------------------------------------------------------------

 SCF Done:  E(RCAM-B3LYP) =  -1706.88600151     A.U. after   14 cycles

 Excitation energies and oscillator strengths:

 Excited State   1:      Singlet-A      2.3028 eV  538.40 nm  f=2.8977  <S**2>=0.000
     155 ->158        -0.16970
     156 ->157         0.68256
 This state for optimization and/or second-order correction.
 Total Energy, E(TD-HF/TD-DFT) =  -1706.80137399
 Copying the excited state density for this state as the 1-particle RhoCI density.

 The electronic state is 1-A.
 Alpha  occ. eigenvalues --  -19.22486 -19.19630 -10.31786 -10.30688 -10.27925
 Alpha  occ. eigenvalues --  -10.27883 -10.27869 -10.27693 -10.27634 -10.27411
 Alpha  occ. eigenvalues --  -10.27340 -10.27150 -10.27033 -10.26916 -10.26867
 Alpha  occ. eigenvalues --  -10.26858 -10.26836 -10.26739 -10.26721 -10.26706
 Alpha  occ. eigenvalues --  -10.26521 -10.26498 -10.26461 -10.26452 -10.26413
 Alpha  occ. eigenvalues --  -10.26381 -10.26363 -10.26231 -10.25983 -10.25769
 Alpha  occ. eigenvalues --  -10.25727 -10.25603 -10.25372 -10.25372 -10.25205
 Alpha  occ. eigenvalues --  -10.25088 -10.25071 -10.24970 -10.24577 -10.23916
 Alpha  occ. eigenvalues --  -10.22450 -10.21878  -1.11530  -1.09876  -0.93124
 Alpha  occ. eigenvalues --   -0.92696  -0.91824  -0.91259  -0.90550  -0.89951
 Alpha  occ. eigenvalues --   -0.87508  -0.86696  -0.85879  -0.85424  -0.84726
 Alpha  occ. eigenvalues --   -0.82512  -0.81660  -0.81020  -0.79588  -0.78055
 Alpha  occ. eigenvalues --   -0.77068  -0.76097  -0.75924  -0.75704  -0.75554
 Alpha  occ. eigenvalues --   -0.74856  -0.74467  -0.73849  -0.72751  -0.70080
 Alpha  occ. eigenvalues --   -0.68987  -0.67593  -0.66568  -0.65365  -0.62703
 Alpha  occ. eigenvalues --   -0.62101  -0.61939  -0.61610  -0.59947  -0.59506
 Alpha  occ. eigenvalues --   -0.59153  -0.58650  -0.57814  -0.57316  -0.56803
 Alpha  occ. eigenvalues --   -0.55651  -0.55243  -0.54912  -0.54184  -0.53597
 Alpha  occ. eigenvalues --   -0.53242  -0.53005  -0.52241  -0.51506  -0.50677
 Alpha  occ. eigenvalues --   -0.50454  -0.50164  -0.50022  -0.49847  -0.49786
 Alpha  occ. eigenvalues --   -0.49210  -0.49068  -0.49000  -0.48497  -0.48446
 Alpha  occ. eigenvalues --   -0.47841  -0.47181  -0.46847  -0.46481  -0.46381
 Alpha  occ. eigenvalues --   -0.45623  -0.45105  -0.44820  -0.44541  -0.44464
 Alpha  occ. eigenvalues --   -0.44284  -0.44086  -0.43974  -0.43559  -0.43298
 Alpha  occ. eigenvalues --   -0.42890  -0.42485  -0.42368  -0.42073  -0.41734
 Alpha  occ. eigenvalues --   -0.41648  -0.41456  -0.41082  -0.40878  -0.40126
 Alpha  occ. eigenvalues --   -0.39974  -0.39734  -0.39451  -0.39176  -0.39008
 Alpha  occ. eigenvalues --   -0.38874  -0.38659  -0.37981  -0.37623  -0.37376
 Alpha  occ. eigenvalues --   -0.37070  -0.36925  -0.36251  -0.35735  -0.35264
 Alpha  occ. eigenvalues --   -0.34894  -0.33312  -0.32389  -0.31867  -0.31394
 Alpha  occ. eigenvalues --   -0.31121  -0.29381  -0.29194  -0.26963  -0.23379
 Alpha  occ. eigenvalues --   -0.19781
 Alpha virt. eigenvalues --   -0.05192  -0.01115   0.02993   0.05259   0.06733
 Alpha virt. eigenvalues --    0.10063   0.10832   0.11305   0.11401   0.12287
 Alpha virt. eigenvalues --    0.12344   0.12830   0.13061   0.13289   0.13786

 Mulliken charges:
               1
     1  O   -0.529728
     2  O   -0.564374
     3  C    0.023884
     4  C   -0.172926
     5  C   -0.176150
     6  C    0.163316
     7  C    0.075631
     8  C    0.002456
     9  C   -0.278427
    10  C   -0.301164
    11  C   -0.190592
    12  C   -0.146473
    13  C    0.181443
    14  C    0.062099
    15  C   -0.044380
    16  C   -0.181124
    17  C    0.005085
    18  C   -0.318993
    19  C   -0.278620
    20  C   -0.317448
    21  C   -0.089457
    22  C   -0.082174
    23  C   -0.350512
    24  C    0.080328
    25  C   -0.131556
    26  C   -0.358432
    27  C    0.114444
    28  C   -0.136211
    29  C   -0.388672
    30  C   -0.106557
    31  C   -0.057696
    32  C   -0.121592
    33  C   -0.131318
    34  C    0.099467
    35  C   -0.105513
    36  C    0.086960
    37  C   -0.376557
    38  C   -0.052199
    39  C   -0.125193
    40  C   -0.347553
    41  C   -0.083752
    42  C   -0.105916
    43  H    0.072585
    44  H    0.119947
    45  H    0.074937
    46  H    0.051356
    47  H    0.089606
    48  H    0.100098
    49  H    0.081172
    50  H    0.099414
    51  H    0.104015
    52  H    0.099424
    53  H    0.095441
    54  H    0.045840
    55  H    0.063387
    56  H    0.077675
    57  H    0.095592
    58  H    0.119078
    59  H    0.112356
    60  H    0.116226
    61  H    0.085985
    62  H    0.097028
    63  H    0.087054
    64  H    0.089259
    65  H    0.082723
    66  H    0.126084
    67  H    0.118388
    68  H    0.103043
    69  H    0.316459
    70  H    0.083080
    71  H    0.085184
    72  H    0.119362
    73  H    0.130064
    74  H    0.072272
    75  H    0.291310
    76  H    0.082506
    77  H    0.099718
    78  H    0.126996
    79  H    0.131716
    80  H    0.056088
    81  H    0.129353
    82  H    0.132621
    83  H    0.087699
    84  H    0.090056
    85  H    0.074230
    86  H    0.103705
    87  H    0.070300
    88  H    0.080461
    89  H    0.124215
    90  H    0.140470
    91  H    0.076658
    92  H    0.050562
    93  H    0.086479
    94  H    0.126824
    95  H    0.112769
    96  H    0.102374
    97  H    0.073663
    98  H    0.091240
 Sum of Mulliken charges =  -0.00000

 Dipole moment (field-independent basis, Debye):
    X=             -2.7713    Y=             -0.2033    Z=             -0.3354  Tot=              2.7989
 Quadrupole moment (field-independent basis, Debye-Ang):
   XX=           -263.4980   YY=           -245.4187   ZZ=           -266.1451
   XY=              8.5685   XZ=             39.2361   YZ=              1.8705

 Normal termination of Gaussian 16 at Sun Jul 14 17:45:11 2019.
