 Gaussian 16, Revision A.03,
 Gaussian 16:  ES64L-G16RevA.03 25-Dec-2016

 -------------------------------------
 # td=(NStates=1) CAM-B3LYP/6-31G(d,p)
 -------------------------------------

 --
 TD
 --
 Symbolic Z-matrix:
 Charge =  0 Multiplicity = 1

                         Standard orientation:
 ---------------------------------------------------------------------
 Center     Atomic      Atomic             Coordinates (Angstroms)
 Number     Number       Type             X           Y           Z
 ---------------------------------------------------------------------
      1          8           0      -14.303044   -1.880815    0.189350
      2          8           0       14.797502    1.031722   -0.287604
      3          6           0      -11.730777    0.079283    1.258890
      4          6           0      -10.938745    0.413219    0.028288
      5          6           0      -12.143664   -1.357991    1.295462
      6          6           0      -12.789940   -1.965859    0.114602
      7          6           0      -11.566323   -0.199052   -1.257420
      8          6           0       11.083244    1.170300    0.917324
      9          6           0      -11.044539    0.511670    2.482840
     10          6           0      -13.061180    0.846156    1.321078
     11          6           0       12.514503    1.674972    0.548707
     12          6           0      -12.257585   -1.371220   -1.214391
     13          6           0       13.510639    0.577524    0.105868
     14          6           0       10.622162    0.029466   -0.093259
     15          6           0       -9.514877   -0.069934    0.090105
     16          6           0       12.967618   -0.186142   -1.010381
     17          6           0       11.417717   -0.602297   -1.011784
     18          6           0       10.090864    2.305534    0.836466
     19          6           0       11.046804    0.592103    2.360975
     20          6           0      -11.152057    0.318041   -2.677361
     21          6           0       -8.499523    0.747023   -0.172422
     22          6           0        9.238846   -0.338719    0.091362
     23          6           0       11.083934   -1.662404   -2.026892
     24          6           0       -7.097169    0.400910   -0.189393
     25          6           0        8.849454   -1.682965    0.046964
     26          6           0       -6.765623   -1.007979   -0.235400
     27          6           0        7.455551   -2.085317    0.197059
     28          6           0       -6.122350    1.416418   -0.309051
     29          6           0        7.274927   -3.647761    0.449777
     30          6           0        6.333068   -1.251650    0.052324
     31          6           0       -4.727887    1.397929   -0.426486
     32          6           0        5.003345   -1.793747    0.044877
     33          6           0       -3.905610    2.529545   -0.573340
     34          6           0       -2.497586    2.596446   -0.431736
     35          6           0        3.996416   -0.803752    0.029961
     36          6           0        2.612361   -0.983017    0.251541
     37          6           0       -1.874506    3.861125   -0.893283
     38          6           0       -1.732933    1.443435   -0.266963
     39          6           0        1.706325    0.140808   -0.051825
     40          6           0        2.012573   -2.387895    0.256715
     41          6           0       -0.397801    1.321204   -0.426445
     42          6           0        0.365889    0.188171   -0.048140
     43          1           0      -10.832840    1.529416   -0.158671
     44          1           0      -12.809483   -1.495370    2.203109
     45          1           0      -11.163220   -1.958865    1.418581
     46          1           0      -12.520849   -2.995835   -0.107193
     47          1           0      -10.013242    0.120231    2.745167
     48          1           0      -10.624044    1.510120    2.348714
     49          1           0      -11.700133    0.465367    3.331227
     50          1           0      -13.704501    0.545501    0.305804
     51          1           0      -13.577739    0.588227    2.404250
     52          1           0      -13.029908    1.801994    1.372958
     53          1           0       12.354435    2.224208   -0.459847
     54          1           0       13.044587    2.391135    1.372785
     55          1           0      -12.747154   -1.626882   -2.107386
     56          1           0       13.698129   -0.160038    0.964237
     57          1           0       -9.418811   -1.193258    0.227562
     58          1           0       13.388422   -1.174002   -1.187675
     59          1           0       13.306896    0.604736   -1.800713
     60          1           0        9.214755    1.974212    1.573440
     61          1           0        9.702072    2.412676   -0.294852
     62          1           0       10.572873    3.371533    1.302693
     63          1           0       11.740829   -0.252871    2.383205
     64          1           0        9.992712    0.230169    2.803521
     65          1           0       11.248937    1.420857    3.051059
     66          1           0      -10.064236    0.178904   -3.021220
     67          1           0      -11.296107    1.553879   -2.635610
     68          1           0      -11.740551   -0.340227   -3.408039
     69          1           0      -14.582810   -2.195073   -0.565514
     70          1           0        8.500264    0.406454    0.388317
     71          1           0       -8.745283    1.798735   -0.364971
     72          1           0       11.855235   -2.578030   -1.900126
     73          1           0       10.006895   -1.983101   -2.294224
     74          1           0       11.767306   -1.244428   -2.840705
     75          1           0       14.964167    1.570154    0.533125
     76          1           0        9.729463   -2.418049   -0.182350
     77          1           0       -5.563272   -1.429013   -0.395107
     78          1           0       -6.920182   -1.599937    0.861138
     79          1           0       -7.504399   -1.481151   -0.988405
     80          1           0       -6.660015    2.535768   -0.341899
     81          1           0        7.087075   -3.684020    1.484770
     82          1           0        6.332541   -3.894778   -0.303726
     83          1           0        8.383454   -4.226877    0.182098
     84          1           0        6.532977   -0.208084   -0.125602
     85          1           0       -4.104878    0.473756   -0.030506
     86          1           0        4.791899   -2.749486    0.515912
     87          1           0       -4.424710    3.591434   -0.627312
     88          1           0        4.258187    0.311940   -0.164550
     89          1           0       -1.137818    3.584213   -1.859182
     90          1           0       -1.426858    4.283144   -0.124880
     91          1           0       -2.446804    4.560148   -1.418401
     92          1           0       -2.129413    0.492776   -0.007082
     93          1           0        2.280429    1.051887   -0.160702
     94          1           0        2.373862   -2.925199    1.172003
     95          1           0        0.922457   -2.395007    0.087284
     96          1           0        2.591494   -2.935315   -0.602946
     97          1           0        0.297707    2.132609   -0.653269
     98          1           0       -0.199847   -0.760020    0.094477
 ---------------------------------------------------------------------

 SCF Done:  E(RCAM-B3LYP) =  -1706.90402075     A.U. after   17 cycles

 Excitation energies and oscillator strengths:

 Excited State   1:      Singlet-A      1.7120 eV  724.19 nm  f=2.9285  <S**2>=0.000
     155 ->158         0.12681
     156 ->157         0.70531
     156 <-157        -0.13524
 This state for optimization and/or second-order correction.
 Total Energy, E(TD-HF/TD-DFT) =  -1706.84110453
 Copying the excited state density for this state as the 1-particle RhoCI density.

 The electronic state is 1-A.
 Alpha  occ. eigenvalues --  -19.22328 -19.19848 -10.31160 -10.30842 -10.28774
 Alpha  occ. eigenvalues --  -10.28588 -10.28262 -10.28256 -10.28104 -10.28091
 Alpha  occ. eigenvalues --  -10.28053 -10.28024 -10.27953 -10.27885 -10.27883
 Alpha  occ. eigenvalues --  -10.27784 -10.27552 -10.27550 -10.27499 -10.27414
 Alpha  occ. eigenvalues --  -10.27317 -10.27148 -10.26946 -10.26818 -10.26751
 Alpha  occ. eigenvalues --  -10.26655 -10.26541 -10.26510 -10.26296 -10.26255
 Alpha  occ. eigenvalues --  -10.26073 -10.26031 -10.25994 -10.25962 -10.25958
 Alpha  occ. eigenvalues --  -10.25840 -10.25730 -10.25600 -10.25189 -10.25168
 Alpha  occ. eigenvalues --  -10.24130 -10.23707  -1.10549  -1.09034  -0.94748
 Alpha  occ. eigenvalues --   -0.93121  -0.92520  -0.91208  -0.90711  -0.89313
 Alpha  occ. eigenvalues --   -0.87391  -0.87074  -0.86851  -0.85766  -0.84931
 Alpha  occ. eigenvalues --   -0.83341  -0.82176  -0.80722  -0.80026  -0.78998
 Alpha  occ. eigenvalues --   -0.76063  -0.75554  -0.75353  -0.75337  -0.74979
 Alpha  occ. eigenvalues --   -0.74913  -0.74556  -0.74478  -0.72117  -0.70155
 Alpha  occ. eigenvalues --   -0.68570  -0.67754  -0.66174  -0.63769  -0.63266
 Alpha  occ. eigenvalues --   -0.62977  -0.62783  -0.62340  -0.60497  -0.59489
 Alpha  occ. eigenvalues --   -0.58990  -0.58757  -0.58062  -0.57151  -0.56729
 Alpha  occ. eigenvalues --   -0.55359  -0.54907  -0.54683  -0.54125  -0.53654
 Alpha  occ. eigenvalues --   -0.53182  -0.52520  -0.52414  -0.51679  -0.51315
 Alpha  occ. eigenvalues --   -0.50944  -0.50354  -0.50137  -0.49010  -0.48797
 Alpha  occ. eigenvalues --   -0.48652  -0.48574  -0.48144  -0.47834  -0.47471
 Alpha  occ. eigenvalues --   -0.47253  -0.47180  -0.47050  -0.46842  -0.46334
 Alpha  occ. eigenvalues --   -0.45553  -0.45491  -0.45021  -0.44624  -0.44413
 Alpha  occ. eigenvalues --   -0.44272  -0.43795  -0.43502  -0.43257  -0.43155
 Alpha  occ. eigenvalues --   -0.42487  -0.42245  -0.42219  -0.41950  -0.41937
 Alpha  occ. eigenvalues --   -0.41288  -0.41095  -0.40844  -0.40724  -0.40168
 Alpha  occ. eigenvalues --   -0.40129  -0.39830  -0.39721  -0.39420  -0.39376
 Alpha  occ. eigenvalues --   -0.39101  -0.39076  -0.38638  -0.38487  -0.37977
 Alpha  occ. eigenvalues --   -0.37605  -0.37584  -0.36989  -0.36829  -0.36138
 Alpha  occ. eigenvalues --   -0.35000  -0.34740  -0.34074  -0.32482  -0.32197
 Alpha  occ. eigenvalues --   -0.31877  -0.29843  -0.29191  -0.26582  -0.23440
 Alpha  occ. eigenvalues --   -0.18323
 Alpha virt. eigenvalues --   -0.07693  -0.01176   0.01873   0.04894   0.06602
 Alpha virt. eigenvalues --    0.08821   0.10530   0.10948   0.11164   0.11867
 Alpha virt. eigenvalues --    0.11964   0.12172   0.12458   0.12803   0.13436

 Mulliken charges:
               1
     1  O   -0.537179
     2  O   -0.540416
     3  C    0.026494
     4  C   -0.146859
     5  C   -0.166844
     6  C    0.131185
     7  C    0.112913
     8  C    0.014845
     9  C   -0.304380
    10  C   -0.268380
    11  C   -0.193320
    12  C   -0.161092
    13  C    0.154235
    14  C    0.027738
    15  C   -0.058226
    16  C   -0.224695
    17  C    0.065464
    18  C   -0.290209
    19  C   -0.295659
    20  C   -0.338587
    21  C   -0.111018
    22  C   -0.101639
    23  C   -0.383588
    24  C    0.158769
    25  C   -0.130228
    26  C   -0.368688
    27  C    0.035495
    28  C   -0.135544
    29  C   -0.348414
    30  C   -0.086836
    31  C   -0.077229
    32  C   -0.119948
    33  C   -0.115411
    34  C    0.071680
    35  C   -0.109154
    36  C    0.082547
    37  C   -0.355930
    38  C   -0.091623
    39  C   -0.118508
    40  C   -0.368436
    41  C   -0.083786
    42  C   -0.079395
    43  H    0.083062
    44  H    0.113302
    45  H    0.083068
    46  H    0.100490
    47  H    0.092383
    48  H    0.101092
    49  H    0.100382
    50  H    0.100477
    51  H    0.067154
    52  H    0.102412
    53  H    0.098807
    54  H    0.066026
    55  H    0.075920
    56  H    0.064648
    57  H    0.093398
    58  H    0.105569
    59  H    0.110824
    60  H    0.095741
    61  H    0.102501
    62  H    0.079348
    63  H    0.110871
    64  H    0.092416
    65  H    0.101474
    66  H    0.121660
    67  H    0.086097
    68  H    0.105566
    69  H    0.286576
    70  H    0.089386
    71  H    0.082387
    72  H    0.102716
    73  H    0.142279
    74  H    0.122741
    75  H    0.308088
    76  H    0.101626
    77  H    0.088115
    78  H    0.089357
    79  H    0.118903
    80  H    0.060897
    81  H    0.143769
    82  H    0.107788
    83  H    0.082952
    84  H    0.085158
    85  H    0.084507
    86  H    0.108091
    87  H    0.077506
    88  H    0.080085
    89  H    0.093569
    90  H    0.135894
    91  H    0.122546
    92  H    0.079973
    93  H    0.076698
    94  H    0.116033
    95  H    0.114782
    96  H    0.116477
    97  H    0.081117
    98  H    0.075155
 Sum of Mulliken charges =  -0.00000

 Dipole moment (field-independent basis, Debye):
    X=              1.3419    Y=              0.0668    Z=              0.0813  Tot=              1.3460
 Quadrupole moment (field-independent basis, Debye-Ang):
   XX=           -301.9672   YY=           -246.0531   ZZ=           -263.3177
   XY=              5.8820   XZ=             36.7994   YZ=              4.4374

 Normal termination of Gaussian 16 at Mon Jul 15 15:42:50 2019.
