 Gaussian 16, Revision A.03,
 Gaussian 16:  ES64L-G16RevA.03 25-Dec-2016

 -------------------------------------
 # td=(NStates=1) CAM-B3LYP/6-31G(d,p)
 -------------------------------------

 --
 TD
 --
 Symbolic Z-matrix:
 Charge =  0 Multiplicity = 1

                         Standard orientation:
 ---------------------------------------------------------------------
 Center     Atomic      Atomic             Coordinates (Angstroms)
 Number     Number       Type             X           Y           Z
 ---------------------------------------------------------------------
      1          8           0      -14.073224   -2.167148    0.526495
      2          8           0       14.764339    0.769055   -0.142600
      3          6           0      -11.682734    0.118653    1.185483
      4          6           0      -10.988871    0.134111   -0.149150
      5          6           0      -11.907016   -1.406139    1.449723
      6          6           0      -12.651700   -2.165540    0.326170
      7          6           0      -11.482020   -0.617090   -1.309496
      8          6           0       11.200552    0.812678    1.123274
      9          6           0      -10.863668    0.606818    2.363314
     10          6           0      -13.013467    0.776715    1.097779
     11          6           0       12.658912    1.249197    0.798177
     12          6           0      -12.290414   -1.611917   -1.143268
     13          6           0       13.510390    0.257830    0.089260
     14          6           0       10.696317   -0.035944   -0.051134
     15          6           0       -9.470223   -0.128423    0.011635
     16          6           0       12.982925   -0.317111   -1.182781
     17          6           0       11.418745   -0.453330   -1.050865
     18          6           0       10.312105    2.013025    1.424737
     19          6           0       11.245401   -0.073154    2.456670
     20          6           0      -11.246535    0.028696   -2.705360
     21          6           0       -8.480448    0.649861   -0.148444
     22          6           0        9.236982   -0.432044    0.181408
     23          6           0       10.940636   -1.188692   -2.295348
     24          6           0       -7.095149    0.425806   -0.059708
     25          6           0        8.735782   -1.623310   -0.210468
     26          6           0       -6.571367   -0.934039    0.317501
     27          6           0        7.341553   -1.958200   -0.150121
     28          6           0       -6.228438    1.448949   -0.450235
     29          6           0        7.111441   -3.455771   -0.205138
     30          6           0        6.299322   -1.064927   -0.039644
     31          6           0       -4.792186    1.486671   -0.426910
     32          6           0        4.948602   -1.373372    0.107203
     33          6           0       -4.025154    2.613456   -0.514600
     34          6           0       -2.672289    2.744259   -0.595081
     35          6           0        3.972216   -0.411263    0.049322
     36          6           0        2.527998   -0.635163    0.085582
     37          6           0       -2.070401    4.087632   -0.962880
     38          6           0       -1.845768    1.699906   -0.396326
     39          6           0        1.639833    0.509856   -0.086227
     40          6           0        2.092088   -2.043895    0.315186
     41          6           0       -0.500694    1.682634   -0.381380
     42          6           0        0.253593    0.589508   -0.150335
     43          1           0      -10.977974    1.360356   -0.492119
     44          1           0      -12.411729   -1.600154    2.492202
     45          1           0      -10.972791   -1.924566    1.640937
     46          1           0      -12.232679   -3.218048    0.238126
     47          1           0       -9.979450   -0.008762    2.347215
     48          1           0      -10.831853    1.823491    2.119394
     49          1           0      -11.516185    0.589891    3.278715
     50          1           0      -13.781233    0.114461    0.452222
     51          1           0      -13.643843    0.842954    2.183063
     52          1           0      -12.904399    1.904458    0.675736
     53          1           0       12.347944    2.233305    0.279466
     54          1           0       13.221188    1.605828    1.661046
     55          1           0      -12.643707   -2.154687   -2.172868
     56          1           0       13.268221   -0.645252    0.935863
     57          1           0       -9.429772   -1.190486    0.007314
     58          1           0       13.600739   -1.110977   -1.304909
     59          1           0       13.036670    0.358745   -1.838592
     60          1           0        9.308150    1.668266    2.037866
     61          1           0        9.964131    2.342706    0.507198
     62          1           0       11.016142    2.749967    2.038634
     63          1           0       11.931410   -0.985020    2.420189
     64          1           0       10.433732   -0.366661    2.473192
     65          1           0       11.331172    0.448912    3.388960
     66          1           0      -10.161038   -0.184688   -2.964099
     67          1           0      -11.364670    1.079922   -2.704137
     68          1           0      -11.727536   -0.488142   -3.360303
     69          1           0      -14.506691   -2.219161   -0.291641
     70          1           0        8.671644    0.432696    0.652965
     71          1           0       -8.581870    1.778710   -0.451089
     72          1           0       11.460222   -2.258454   -2.304323
     73          1           0        9.877042   -1.386240   -2.503992
     74          1           0       11.408912   -0.764547   -3.191417
     75          1           0       15.114841    1.146465    0.680847
     76          1           0        9.532777   -2.172871   -0.719377
     77          1           0       -5.584295   -1.087294    0.489780
     78          1           0       -7.058009   -1.203524    1.267444
     79          1           0       -6.731702   -1.678381   -0.495769
     80          1           0       -6.874350    2.479750   -0.548102
     81          1           0        7.179063   -3.810464    0.828840
     82          1           0        6.201119   -3.660581   -0.660073
     83          1           0        8.047216   -4.095787   -0.530419
     84          1           0        6.583646   -0.027369   -0.222655
     85          1           0       -4.457390    0.499498   -0.279804
     86          1           0        4.768080   -2.448714    0.598935
     87          1           0       -4.629487    3.518174   -0.900821
     88          1           0        4.276179    0.728779   -0.142921
     89          1           0       -1.305704    3.993713   -1.834899
     90          1           0       -1.593433    4.553893   -0.159661
     91          1           0       -2.984937    4.797824   -1.347126
     92          1           0       -2.365724    0.558659    0.078540
     93          1           0        2.188994    1.461730   -0.371233
     94          1           0        2.600895   -2.320989    1.211615
     95          1           0        0.773248   -2.231654    0.490814
     96          1           0        2.192123   -2.794606   -0.448351
     97          1           0        0.226037    2.502601   -0.419524
     98          1           0       -0.319120   -0.394560   -0.193184
 ---------------------------------------------------------------------

 SCF Done:  E(RCAM-B3LYP) =  -1706.85489842     A.U. after   15 cycles

 Excitation energies and oscillator strengths:

 Excited State   1:      Singlet-A      2.1390 eV  579.63 nm  f=3.0804  <S**2>=0.000
     155 ->158         0.14402
     156 ->157         0.69431
 This state for optimization and/or second-order correction.
 Total Energy, E(TD-HF/TD-DFT) =  -1706.77629138
 Copying the excited state density for this state as the 1-particle RhoCI density.

 The electronic state is 1-A.
 Alpha  occ. eigenvalues --  -19.22351 -19.21211 -10.32363 -10.30921 -10.29040
 Alpha  occ. eigenvalues --  -10.27913 -10.27469 -10.27467 -10.27408 -10.27365
 Alpha  occ. eigenvalues --  -10.27343 -10.27324 -10.27293 -10.27248 -10.27233
 Alpha  occ. eigenvalues --  -10.27034 -10.26943 -10.26711 -10.26634 -10.26544
 Alpha  occ. eigenvalues --  -10.26445 -10.26395 -10.26314 -10.26290 -10.26283
 Alpha  occ. eigenvalues --  -10.26229 -10.26185 -10.26171 -10.25776 -10.25773
 Alpha  occ. eigenvalues --  -10.25724 -10.25709 -10.25605 -10.25577 -10.25519
 Alpha  occ. eigenvalues --  -10.25424 -10.24985 -10.24906 -10.24670 -10.24361
 Alpha  occ. eigenvalues --  -10.23194 -10.21975  -1.11693  -1.09832  -0.94459
 Alpha  occ. eigenvalues --   -0.93794  -0.93022  -0.91639  -0.91194  -0.89970
 Alpha  occ. eigenvalues --   -0.88025  -0.87547  -0.87539  -0.85658  -0.84939
 Alpha  occ. eigenvalues --   -0.83042  -0.82163  -0.80730  -0.80063  -0.78656
 Alpha  occ. eigenvalues --   -0.78031  -0.77445  -0.76764  -0.76587  -0.76254
 Alpha  occ. eigenvalues --   -0.75525  -0.74963  -0.74267  -0.72980  -0.70847
 Alpha  occ. eigenvalues --   -0.68959  -0.67574  -0.66626  -0.65496  -0.64031
 Alpha  occ. eigenvalues --   -0.62968  -0.62543  -0.61562  -0.60698  -0.59519
 Alpha  occ. eigenvalues --   -0.59251  -0.58968  -0.58376  -0.58142  -0.56120
 Alpha  occ. eigenvalues --   -0.55564  -0.55164  -0.55031  -0.54493  -0.54028
 Alpha  occ. eigenvalues --   -0.53195  -0.52833  -0.52205  -0.51730  -0.51344
 Alpha  occ. eigenvalues --   -0.50945  -0.50586  -0.49975  -0.49541  -0.49489
 Alpha  occ. eigenvalues --   -0.49429  -0.49263  -0.48923  -0.48787  -0.48279
 Alpha  occ. eigenvalues --   -0.48060  -0.47393  -0.47049  -0.46620  -0.46344
 Alpha  occ. eigenvalues --   -0.46106  -0.45725  -0.45660  -0.45216  -0.44954
 Alpha  occ. eigenvalues --   -0.44755  -0.44401  -0.43706  -0.43114  -0.42848
 Alpha  occ. eigenvalues --   -0.42824  -0.42569  -0.42155  -0.41906  -0.41684
 Alpha  occ. eigenvalues --   -0.41652  -0.41426  -0.41126  -0.40803  -0.40474
 Alpha  occ. eigenvalues --   -0.40324  -0.40189  -0.39694  -0.39605  -0.39513
 Alpha  occ. eigenvalues --   -0.39352  -0.38566  -0.38444  -0.38031  -0.38011
 Alpha  occ. eigenvalues --   -0.37561  -0.36739  -0.36504  -0.35772  -0.35446
 Alpha  occ. eigenvalues --   -0.35315  -0.34679  -0.33634  -0.32471  -0.31908
 Alpha  occ. eigenvalues --   -0.31497  -0.30047  -0.29627  -0.27578  -0.24222
 Alpha  occ. eigenvalues --   -0.19603
 Alpha virt. eigenvalues --   -0.06266  -0.01095   0.02828   0.06177   0.07397
 Alpha virt. eigenvalues --    0.09050   0.10478   0.11197   0.11634   0.11865
 Alpha virt. eigenvalues --    0.12043   0.12594   0.12789   0.12892   0.13544

 Mulliken charges:
               1
     1  O   -0.535404
     2  O   -0.544823
     3  C    0.032470
     4  C   -0.133006
     5  C   -0.194967
     6  C    0.152345
     7  C    0.149821
     8  C   -0.030156
     9  C   -0.266507
    10  C   -0.273462
    11  C   -0.180647
    12  C   -0.205246
    13  C    0.175234
    14  C    0.055863
    15  C   -0.129557
    16  C   -0.166971
    17  C    0.000888
    18  C   -0.313639
    19  C   -0.271721
    20  C   -0.329001
    21  C   -0.047906
    22  C   -0.084252
    23  C   -0.370751
    24  C    0.125694
    25  C   -0.129644
    26  C   -0.372816
    27  C    0.077929
    28  C   -0.152500
    29  C   -0.378198
    30  C   -0.103248
    31  C   -0.048014
    32  C   -0.095200
    33  C   -0.136199
    34  C    0.124038
    35  C   -0.120736
    36  C    0.107081
    37  C   -0.363919
    38  C   -0.114320
    39  C   -0.149776
    40  C   -0.357955
    41  C   -0.059073
    42  C   -0.066066
    43  H    0.044211
    44  H    0.100302
    45  H    0.095740
    46  H    0.086213
    47  H    0.111489
    48  H    0.071030
    49  H    0.104689
    50  H    0.109203
    51  H    0.068337
    52  H    0.071846
    53  H    0.069072
    54  H    0.070779
    55  H    0.067110
    56  H    0.024622
    57  H    0.090496
    58  H    0.126875
    59  H    0.126782
    60  H    0.087225
    61  H    0.123905
    62  H    0.100974
    63  H    0.088648
    64  H    0.104549
    65  H    0.091449
    66  H    0.108275
    67  H    0.126322
    68  H    0.111649
    69  H    0.307247
    70  H    0.081214
    71  H    0.068927
    72  H    0.094704
    73  H    0.125330
    74  H    0.112775
    75  H    0.309924
    76  H    0.103344
    77  H    0.117541
    78  H    0.116293
    79  H    0.117969
    80  H    0.059365
    81  H    0.128623
    82  H    0.124324
    83  H    0.103154
    84  H    0.080805
    85  H    0.080245
    86  H    0.092671
    87  H    0.077970
    88  H    0.082477
    89  H    0.116283
    90  H    0.140052
    91  H    0.087101
    92  H    0.055733
    93  H    0.075016
    94  H    0.131443
    95  H    0.059049
    96  H    0.138619
    97  H    0.083153
    98  H    0.071170
 Sum of Mulliken charges =  -0.00000

 Dipole moment (field-independent basis, Debye):
    X=              1.6492    Y=             -0.8187    Z=             -0.7186  Tot=              1.9765
 Quadrupole moment (field-independent basis, Debye-Ang):
   XX=           -279.7914   YY=           -247.8767   ZZ=           -261.6635
   XY=              5.2900   XZ=             36.2274   YZ=              3.0748

 Normal termination of Gaussian 16 at Fri Jul 12 20:45:46 2019.
