 Gaussian 16, Revision A.03,
 Gaussian 16:  ES64L-G16RevA.03 25-Dec-2016

 -------------------------------------
 # td=(NStates=1) CAM-B3LYP/6-31G(d,p)
 -------------------------------------

 --
 TD
 --
 Symbolic Z-matrix:
 Charge =  0 Multiplicity = 1

                         Standard orientation:
 ---------------------------------------------------------------------
 Center     Atomic      Atomic             Coordinates (Angstroms)
 Number     Number       Type             X           Y           Z
 ---------------------------------------------------------------------
      1          8           0      -14.090388   -2.008269    0.568436
      2          8           0       14.856722    0.820792    0.239199
      3          6           0      -11.726149   -0.006454    1.347403
      4          6           0      -11.010253    0.316959    0.055961
      5          6           0      -11.894022   -1.476019    1.446230
      6          6           0      -12.636881   -2.166262    0.235609
      7          6           0      -11.580240   -0.469536   -1.234208
      8          6           0       11.126856    1.048914    1.063193
      9          6           0      -10.888548    0.538645    2.543759
     10          6           0      -13.108572    0.829757    1.285752
     11          6           0       12.567171    1.386864    0.861558
     12          6           0      -12.297005   -1.519578   -0.991432
     13          6           0       13.496847    0.308746    0.357941
     14          6           0       10.678283   -0.053581    0.007910
     15          6           0       -9.466616   -0.071348    0.065320
     16          6           0       13.055759   -0.193483   -1.024527
     17          6           0       11.529659   -0.461214   -1.032239
     18          6           0       10.230549    2.240913    1.007576
     19          6           0       10.931060    0.345018    2.426547
     20          6           0      -11.280869    0.091678   -2.532519
     21          6           0       -8.486206    0.880987   -0.214569
     22          6           0        9.288074   -0.507662    0.137807
     23          6           0       10.999685   -1.288858   -2.050095
     24          6           0       -7.024492    0.619137   -0.288424
     25          6           0        8.697961   -1.724756   -0.222724
     26          6           0       -6.630936   -0.806741    0.039085
     27          6           0        7.364931   -2.084418    0.008895
     28          6           0       -6.204217    1.610690   -0.552949
     29          6           0        7.137355   -3.524086    0.200152
     30          6           0        6.299013   -1.201647   -0.135159
     31          6           0       -4.832679    1.595873   -0.537510
     32          6           0        4.947549   -1.555048   -0.063195
     33          6           0       -3.931851    2.686437   -0.793462
     34          6           0       -2.548832    2.685868   -0.698650
     35          6           0        3.894015   -0.639950   -0.260410
     36          6           0        2.541218   -0.907813   -0.226708
     37          6           0       -1.905439    3.987705   -0.698439
     38          6           0       -1.777197    1.485716   -0.573584
     39          6           0        1.658238    0.178763   -0.347216
     40          6           0        1.957977   -2.299630    0.066476
     41          6           0       -0.404046    1.486601   -0.389543
     42          6           0        0.267183    0.274508   -0.342444
     43          1           0      -10.944296    1.255665   -0.183990
     44          1           0      -12.334810   -1.885735    2.536421
     45          1           0      -10.946061   -1.826542    1.594373
     46          1           0      -12.266726   -3.523238    0.154323
     47          1           0       -9.889118   -0.042493    2.748009
     48          1           0      -10.520195    1.495164    2.468936
     49          1           0      -11.451572    0.384365    3.481807
     50          1           0      -13.562196    0.578927    0.275264
     51          1           0      -13.693336    0.527451    2.165484
     52          1           0      -12.919843    1.975356    1.428011
     53          1           0       12.525101    2.295232    0.183717
     54          1           0       13.138323    1.908497    1.770602
     55          1           0      -12.845369   -2.204568   -1.786762
     56          1           0       13.685443   -0.428032    1.192768
     57          1           0       -9.178502   -1.034297    0.250022
     58          1           0       13.474159   -1.224073   -1.360926
     59          1           0       13.444560    0.557730   -1.788744
     60          1           0        9.225350    2.161212    1.260429
     61          1           0       10.179290    2.722919   -0.100039
     62          1           0       10.533124    3.268781    1.499254
     63          1           0       11.526078   -0.483728    2.717411
     64          1           0        9.925437   -0.121870    2.577681
     65          1           0       10.899081    1.132785    3.373000
     66          1           0      -10.143489    0.287553   -2.573274
     67          1           0      -11.834160    1.177402   -2.637065
     68          1           0      -11.383690   -0.611032   -3.524710
     69          1           0      -14.610683   -2.045681   -0.266397
     70          1           0        8.596979    0.236988    0.691461
     71          1           0       -8.720444    1.995291   -0.366832
     72          1           0       11.127608   -2.494072   -1.894182
     73          1           0        9.924342   -1.006539   -2.373167
     74          1           0       11.713710   -1.056803   -2.903964
     75          1           0       15.192478    0.857151    1.029410
     76          1           0        9.219201   -2.679938   -0.601325
     77          1           0       -5.484383   -1.280011   -0.187564
     78          1           0       -6.922136   -1.068198    0.975481
     79          1           0       -7.252036   -1.391384   -0.559398
     80          1           0       -6.594414    2.571272   -0.949833
     81          1           0        6.692595   -3.780103    1.241375
     82          1           0        6.178171   -3.649484   -0.377016
     83          1           0        7.940219   -4.121698    0.073118
     84          1           0        6.320937   -0.075581   -0.084388
     85          1           0       -4.245401    0.617679   -0.566024
     86          1           0        4.828694   -2.673695   -0.039068
     87          1           0       -4.223445    3.594037   -0.993025
     88          1           0        4.364486    0.363155   -0.560867
     89          1           0       -1.053681    4.048135   -1.495337
     90          1           0       -1.316025    4.146664    0.403055
     91          1           0       -2.600152    4.681298   -1.036357
     92          1           0       -2.362786    0.394611   -0.729568
     93          1           0        2.174190    1.217211   -0.108610
     94          1           0        2.551838   -2.538484    0.957030
     95          1           0        0.903199   -2.272235    0.030723
     96          1           0        2.539774   -2.895346   -0.705199
     97          1           0        0.264448    2.284809   -0.475127
     98          1           0       -0.126533   -0.672819    0.005517
 ---------------------------------------------------------------------

 SCF Done:  E(RCAM-B3LYP) =  -1706.88919751     A.U. after   16 cycles

 Excitation energies and oscillator strengths:

 Excited State   1:      Singlet-A      1.7766 eV  697.88 nm  f=3.0033  <S**2>=0.000
     155 ->158        -0.14119
     156 ->157         0.69941
     156 <-157        -0.11739
 This state for optimization and/or second-order correction.
 Total Energy, E(TD-HF/TD-DFT) =  -1706.82390972
 Copying the excited state density for this state as the 1-particle RhoCI density.

 The electronic state is 1-A.
 Alpha  occ. eigenvalues --  -19.21729 -19.19601 -10.33667 -10.31564 -10.28333
 Alpha  occ. eigenvalues --  -10.28262 -10.27554 -10.27549 -10.27502 -10.27496
 Alpha  occ. eigenvalues --  -10.27407 -10.27352 -10.27248 -10.27229 -10.27144
 Alpha  occ. eigenvalues --  -10.26962 -10.26903 -10.26832 -10.26829 -10.26715
 Alpha  occ. eigenvalues --  -10.26693 -10.26642 -10.26557 -10.26510 -10.26416
 Alpha  occ. eigenvalues --  -10.26334 -10.26206 -10.26122 -10.26036 -10.25999
 Alpha  occ. eigenvalues --  -10.25980 -10.25897 -10.25860 -10.25662 -10.25649
 Alpha  occ. eigenvalues --  -10.25598 -10.25532 -10.25494 -10.25246 -10.25108
 Alpha  occ. eigenvalues --  -10.24984 -10.24503  -1.10685  -1.07270  -0.94071
 Alpha  occ. eigenvalues --   -0.93571  -0.92500  -0.92169  -0.91262  -0.90518
 Alpha  occ. eigenvalues --   -0.87793  -0.87506  -0.87412  -0.85326  -0.84907
 Alpha  occ. eigenvalues --   -0.83432  -0.82631  -0.80460  -0.80005  -0.78705
 Alpha  occ. eigenvalues --   -0.77301  -0.76506  -0.76014  -0.75837  -0.75472
 Alpha  occ. eigenvalues --   -0.75463  -0.75220  -0.74313  -0.72213  -0.70606
 Alpha  occ. eigenvalues --   -0.69562  -0.68327  -0.67091  -0.65440  -0.63591
 Alpha  occ. eigenvalues --   -0.63243  -0.62662  -0.61857  -0.60632  -0.60570
 Alpha  occ. eigenvalues --   -0.59590  -0.58869  -0.58690  -0.56807  -0.55975
 Alpha  occ. eigenvalues --   -0.55299  -0.54641  -0.54329  -0.54217  -0.54013
 Alpha  occ. eigenvalues --   -0.53324  -0.52956  -0.51975  -0.51119  -0.50762
 Alpha  occ. eigenvalues --   -0.50277  -0.49899  -0.49859  -0.49413  -0.49244
 Alpha  occ. eigenvalues --   -0.48897  -0.48744  -0.48521  -0.48235  -0.47852
 Alpha  occ. eigenvalues --   -0.47376  -0.46998  -0.46920  -0.46641  -0.46132
 Alpha  occ. eigenvalues --   -0.45847  -0.45543  -0.45258  -0.45154  -0.44890
 Alpha  occ. eigenvalues --   -0.44651  -0.44099  -0.44034  -0.43692  -0.43190
 Alpha  occ. eigenvalues --   -0.43055  -0.42999  -0.42684  -0.42590  -0.42277
 Alpha  occ. eigenvalues --   -0.42039  -0.41812  -0.41643  -0.41460  -0.40514
 Alpha  occ. eigenvalues --   -0.40332  -0.40224  -0.40069  -0.39744  -0.39326
 Alpha  occ. eigenvalues --   -0.39116  -0.38982  -0.38777  -0.37877  -0.37670
 Alpha  occ. eigenvalues --   -0.37329  -0.36601  -0.36517  -0.35478  -0.35235
 Alpha  occ. eigenvalues --   -0.34994  -0.34580  -0.33701  -0.32620  -0.32466
 Alpha  occ. eigenvalues --   -0.31465  -0.30196  -0.28928  -0.26808  -0.23147
 Alpha  occ. eigenvalues --   -0.18166
 Alpha virt. eigenvalues --   -0.06911  -0.01659   0.02382   0.04813   0.06308
 Alpha virt. eigenvalues --    0.08423   0.10493   0.11086   0.11467   0.12042
 Alpha virt. eigenvalues --    0.12618   0.12749   0.13079   0.13455   0.13837

 Mulliken charges:
               1
     1  O   -0.543664
     2  O   -0.546634
     3  C    0.026003
     4  C   -0.091520
     5  C   -0.161039
     6  C    0.153295
     7  C    0.137066
     8  C    0.034443
     9  C   -0.308121
    10  C   -0.283721
    11  C   -0.187395
    12  C   -0.118572
    13  C    0.152327
    14  C    0.075764
    15  C   -0.109818
    16  C   -0.214261
    17  C    0.068795
    18  C   -0.320572
    19  C   -0.304683
    20  C   -0.365889
    21  C   -0.110155
    22  C   -0.137075
    23  C   -0.371738
    24  C    0.126662
    25  C   -0.107444
    26  C   -0.372583
    27  C    0.080745
    28  C   -0.130147
    29  C   -0.373506
    30  C   -0.104818
    31  C   -0.067185
    32  C   -0.093647
    33  C   -0.101730
    34  C    0.099045
    35  C   -0.121499
    36  C    0.078932
    37  C   -0.365236
    38  C   -0.111948
    39  C   -0.141232
    40  C   -0.351954
    41  C   -0.085887
    42  C   -0.074898
    43  H    0.082402
    44  H    0.078132
    45  H    0.105429
    46  H    0.022500
    47  H    0.079929
    48  H    0.113737
    49  H    0.101007
    50  H    0.100907
    51  H    0.111460
    52  H    0.076309
    53  H    0.099749
    54  H    0.070703
    55  H    0.065462
    56  H    0.083486
    57  H    0.088809
    58  H    0.105308
    59  H    0.129407
    60  H    0.119239
    61  H    0.083290
    62  H    0.096721
    63  H    0.109384
    64  H    0.103129
    65  H    0.065456
    66  H    0.121528
    67  H    0.103773
    68  H    0.103915
    69  H    0.302849
    70  H    0.091250
    71  H    0.081909
    72  H    0.094443
    73  H    0.130429
    74  H    0.094424
    75  H    0.284775
    76  H    0.087477
    77  H    0.086651
    78  H    0.136857
    79  H    0.130800
    80  H    0.082501
    81  H    0.116376
    82  H    0.122137
    83  H    0.114702
    84  H    0.075731
    85  H    0.071538
    86  H    0.061604
    87  H    0.051562
    88  H    0.088337
    89  H    0.110103
    90  H    0.106670
    91  H    0.113722
    92  H    0.076684
    93  H    0.063703
    94  H    0.137181
    95  H    0.116465
    96  H    0.119539
    97  H    0.094815
    98  H    0.079087
 Sum of Mulliken charges =  -0.00000

 Dipole moment (field-independent basis, Debye):
    X=              0.4641    Y=             -0.5101    Z=             -0.2966  Tot=              0.7508
 Quadrupole moment (field-independent basis, Debye-Ang):
   XX=           -286.3181   YY=           -247.1862   ZZ=           -263.1516
   XY=            -15.7303   XZ=             38.2640   YZ=              1.4879

 Normal termination of Gaussian 16 at Mon Jul 15 06:11:28 2019.
