 Gaussian 16, Revision A.03,
 Gaussian 16:  ES64L-G16RevA.03 25-Dec-2016

 -------------------------------------
 # td=(NStates=1) CAM-B3LYP/6-31G(d,p)
 -------------------------------------

 --
 TD
 --
 Symbolic Z-matrix:
 Charge =  0 Multiplicity = 1

                         Standard orientation:
 ---------------------------------------------------------------------
 Center     Atomic      Atomic             Coordinates (Angstroms)
 Number     Number       Type             X           Y           Z
 ---------------------------------------------------------------------
      1          8           0      -14.306525   -1.919590    0.242006
      2          8           0       14.859817    1.088874   -0.326084
      3          6           0      -11.829249   -0.004770    1.134624
      4          6           0      -10.907885    0.330412   -0.094388
      5          6           0      -12.203543   -1.451603    1.230167
      6          6           0      -12.921543   -1.980619   -0.029212
      7          6           0      -11.531889   -0.316024   -1.363669
      8          6           0       11.190918    0.917742    0.968548
      9          6           0      -10.987851    0.373808    2.527268
     10          6           0      -13.115293    0.989022    1.042031
     11          6           0       12.695276    1.541731    0.652377
     12          6           0      -12.388377   -1.333825   -1.277847
     13          6           0       13.564823    0.552140    0.093775
     14          6           0       10.722106   -0.106914   -0.037301
     15          6           0       -9.507023   -0.107465    0.149129
     16          6           0       13.047972   -0.157276   -1.083635
     17          6           0       11.611704   -0.561213   -1.011724
     18          6           0       10.245894    2.198726    1.172126
     19          6           0       11.238867    0.260383    2.339736
     20          6           0      -10.986988    0.277607   -2.613543
     21          6           0       -8.442884    0.676439   -0.054772
     22          6           0        9.369252   -0.391778    0.100601
     23          6           0       11.134303   -1.631218   -2.112498
     24          6           0       -7.072229    0.389950   -0.005718
     25          6           0        8.833365   -1.614181    0.064105
     26          6           0       -6.651257   -1.013512    0.324464
     27          6           0        7.434293   -2.049754    0.072529
     28          6           0       -6.237119    1.420496   -0.279477
     29          6           0        7.183353   -3.548836    0.228792
     30          6           0        6.325986   -1.213062   -0.134084
     31          6           0       -4.810450    1.414887   -0.308049
     32          6           0        4.957190   -1.560984    0.034269
     33          6           0       -4.041949    2.542210   -0.570787
     34          6           0       -2.541893    2.601712   -0.559384
     35          6           0        3.932763   -0.656247   -0.018001
     36          6           0        2.506198   -0.819209    0.013608
     37          6           0       -2.005049    3.861805   -0.812026
     38          6           0       -1.797430    1.493521   -0.371750
     39          6           0        1.778729    0.279768   -0.144483
     40          6           0        1.907268   -2.155118    0.312808
     41          6           0       -0.390578    1.403739   -0.337887
     42          6           0        0.404360    0.277354   -0.076269
     43          1           0      -11.002000    1.338910   -0.171268
     44          1           0      -13.011771   -1.642525    2.085624
     45          1           0      -11.308310   -1.849686    1.569127
     46          1           0      -12.642147   -3.246499   -0.255774
     47          1           0      -10.172228   -0.342535    2.658149
     48          1           0      -10.839557    1.595833    2.634188
     49          1           0      -11.704251   -0.032550    3.403734
     50          1           0      -13.795482    0.689544    0.397642
     51          1           0      -13.897761    1.043744    2.030471
     52          1           0      -12.916620    2.009830    0.790081
     53          1           0       12.358615    2.227563   -0.174636
     54          1           0       13.073117    2.237118    1.593872
     55          1           0      -12.938770   -1.958622   -2.106315
     56          1           0       13.641873   -0.188224    1.086670
     57          1           0       -9.403584   -1.153656    0.401350
     58          1           0       13.593537   -1.044823   -1.320624
     59          1           0       12.942893    0.399035   -2.197668
     60          1           0        9.372705    1.862754    1.681837
     61          1           0       10.094202    2.510298    0.262934
     62          1           0       10.808650    3.066710    1.690454
     63          1           0       12.053212   -0.422178    2.189622
     64          1           0       10.246999   -0.157235    2.702268
     65          1           0       11.432298    0.883166    2.980966
     66          1           0       -9.832560    0.519217   -2.719013
     67          1           0      -11.275843    1.281684   -2.669448
     68          1           0      -11.302137   -0.066511   -3.467402
     69          1           0      -14.928827   -1.638772   -0.637110
     70          1           0        8.814245    0.404582    0.366687
     71          1           0       -8.692567    1.715167   -0.383616
     72          1           0       11.359455   -2.656136   -1.903747
     73          1           0        9.922044   -1.477154   -2.284268
     74          1           0       11.586815   -1.314907   -3.107154
     75          1           0       15.442126    1.428253    0.387484
     76          1           0        9.484123   -2.561991    0.081023
     77          1           0       -5.533456   -1.144027    0.225056
     78          1           0       -6.912894   -1.254031    1.624174
     79          1           0       -7.062042   -1.626806   -0.307462
     80          1           0       -6.655945    2.380544   -0.501739
     81          1           0        6.795300   -3.834054    1.247127
     82          1           0        6.419822   -3.934696   -0.304300
     83          1           0        8.153609   -4.052381    0.040115
     84          1           0        6.529552   -0.208712   -0.313516
     85          1           0       -4.284435    0.204013   -0.239216
     86          1           0        4.501383   -2.624937    0.500979
     87          1           0       -4.655272    3.457856   -0.451964
     88          1           0        4.200655    0.558438   -0.134714
     89          1           0       -1.317211    3.760007   -1.893873
     90          1           0       -1.379615    4.356822    0.036464
     91          1           0       -2.729441    4.668676   -0.905652
     92          1           0       -2.458087    0.598815   -0.406142
     93          1           0        2.296909    1.219074   -0.626777
     94          1           0        2.304900   -2.613113    1.298267
     95          1           0        0.820753   -2.145344    0.514251
     96          1           0        1.769973   -3.108446   -0.387080
     97          1           0        0.164137    2.378195   -0.675788
     98          1           0       -0.242270   -0.628639   -0.248423
 ---------------------------------------------------------------------

 SCF Done:  E(RCAM-B3LYP) =  -1706.82937704     A.U. after   14 cycles

 Excitation energies and oscillator strengths:

 Excited State   1:      Singlet-A      2.3231 eV  533.70 nm  f=3.0068  <S**2>=0.000
     155 ->158        -0.16545
     156 ->157         0.68196
 This state for optimization and/or second-order correction.
 Total Energy, E(TD-HF/TD-DFT) =  -1706.74400379
 Copying the excited state density for this state as the 1-particle RhoCI density.

 The electronic state is 1-A.
 Alpha  occ. eigenvalues --  -19.23020 -19.20911 -10.32718 -10.31970 -10.28792
 Alpha  occ. eigenvalues --  -10.27950 -10.27913 -10.27717 -10.27507 -10.27414
 Alpha  occ. eigenvalues --  -10.27248 -10.27232 -10.27221 -10.27216 -10.27197
 Alpha  occ. eigenvalues --  -10.27191 -10.27174 -10.27081 -10.26982 -10.26907
 Alpha  occ. eigenvalues --  -10.26822 -10.26795 -10.26703 -10.26656 -10.26417
 Alpha  occ. eigenvalues --  -10.26321 -10.26288 -10.26257 -10.26214 -10.26102
 Alpha  occ. eigenvalues --  -10.25954 -10.25659 -10.25488 -10.25352 -10.25265
 Alpha  occ. eigenvalues --  -10.24824 -10.24545 -10.24523 -10.24423 -10.24084
 Alpha  occ. eigenvalues --  -10.23884 -10.21897  -1.08056  -1.07582  -0.93750
 Alpha  occ. eigenvalues --   -0.93687  -0.92621  -0.92033  -0.91190  -0.89834
 Alpha  occ. eigenvalues --   -0.87175  -0.86544  -0.86163  -0.85963  -0.84985
 Alpha  occ. eigenvalues --   -0.83154  -0.82251  -0.80377  -0.80191  -0.78293
 Alpha  occ. eigenvalues --   -0.77449  -0.77187  -0.76930  -0.76195  -0.75764
 Alpha  occ. eigenvalues --   -0.75349  -0.75102  -0.73619  -0.73358  -0.70316
 Alpha  occ. eigenvalues --   -0.69387  -0.67778  -0.66600  -0.64785  -0.63926
 Alpha  occ. eigenvalues --   -0.63155  -0.62570  -0.60995  -0.60017  -0.59540
 Alpha  occ. eigenvalues --   -0.58637  -0.58293  -0.58199  -0.57635  -0.56214
 Alpha  occ. eigenvalues --   -0.55709  -0.55308  -0.54512  -0.54217  -0.53743
 Alpha  occ. eigenvalues --   -0.53258  -0.52921  -0.52669  -0.51746  -0.51198
 Alpha  occ. eigenvalues --   -0.50809  -0.49991  -0.49885  -0.49373  -0.49039
 Alpha  occ. eigenvalues --   -0.48769  -0.48429  -0.48027  -0.47760  -0.47600
 Alpha  occ. eigenvalues --   -0.47369  -0.46844  -0.46355  -0.46267  -0.45854
 Alpha  occ. eigenvalues --   -0.45781  -0.45587  -0.45277  -0.45056  -0.44682
 Alpha  occ. eigenvalues --   -0.44641  -0.44472  -0.43648  -0.43464  -0.43226
 Alpha  occ. eigenvalues --   -0.42986  -0.42880  -0.42476  -0.42033  -0.41749
 Alpha  occ. eigenvalues --   -0.41629  -0.41419  -0.41204  -0.40801  -0.40692
 Alpha  occ. eigenvalues --   -0.40183  -0.39776  -0.39459  -0.39248  -0.39015
 Alpha  occ. eigenvalues --   -0.38776  -0.38620  -0.38436  -0.38080  -0.37796
 Alpha  occ. eigenvalues --   -0.37132  -0.36683  -0.36368  -0.36173  -0.35470
 Alpha  occ. eigenvalues --   -0.34870  -0.34260  -0.33540  -0.32200  -0.31934
 Alpha  occ. eigenvalues --   -0.31794  -0.29637  -0.28709  -0.26551  -0.23660
 Alpha  occ. eigenvalues --   -0.20059
 Alpha virt. eigenvalues --   -0.05407  -0.01300   0.02249   0.05152   0.06500
 Alpha virt. eigenvalues --    0.08954   0.09544   0.09942   0.10904   0.10971
 Alpha virt. eigenvalues --    0.11728   0.11808   0.12336   0.12472   0.12840

 Mulliken charges:
               1
     1  O   -0.548905
     2  O   -0.578531
     3  C    0.006748
     4  C   -0.123750
     5  C   -0.171770
     6  C    0.192620
     7  C    0.126783
     8  C   -0.092728
     9  C   -0.301066
    10  C   -0.303369
    11  C   -0.187001
    12  C   -0.158498
    13  C    0.200356
    14  C    0.096683
    15  C   -0.077536
    16  C   -0.193052
    17  C    0.018562
    18  C   -0.311568
    19  C   -0.253834
    20  C   -0.362075
    21  C   -0.094125
    22  C   -0.102562
    23  C   -0.356573
    24  C    0.138148
    25  C   -0.103416
    26  C   -0.338005
    27  C    0.084814
    28  C   -0.138226
    29  C   -0.369626
    30  C   -0.119898
    31  C   -0.046566
    32  C   -0.090975
    33  C   -0.158500
    34  C    0.140576
    35  C   -0.119707
    36  C    0.164980
    37  C   -0.386171
    38  C   -0.091136
    39  C   -0.121537
    40  C   -0.396144
    41  C   -0.107269
    42  C   -0.099447
    43  H    0.095245
    44  H    0.107785
    45  H    0.096969
    46  H    0.027264
    47  H    0.108088
    48  H    0.090955
    49  H    0.080744
    50  H    0.114169
    51  H    0.063156
    52  H    0.093115
    53  H    0.095131
    54  H    0.074938
    55  H    0.077184
    56  H    0.053364
    57  H    0.089344
    58  H    0.130762
    59  H    0.103479
    60  H    0.107600
    61  H    0.118433
    62  H    0.092128
    63  H    0.089013
    64  H    0.090971
    65  H    0.101535
    66  H    0.108505
    67  H    0.120252
    68  H    0.117863
    69  H    0.309809
    70  H    0.085309
    71  H    0.069453
    72  H    0.127320
    73  H    0.107674
    74  H    0.095163
    75  H    0.305412
    76  H    0.077092
    77  H    0.101954
    78  H    0.079304
    79  H    0.138828
    80  H    0.082540
    81  H    0.111217
    82  H    0.132976
    83  H    0.100157
    84  H    0.080456
    85  H    0.059678
    86  H    0.076639
    87  H    0.093143
    88  H    0.055413
    89  H    0.094445
    90  H    0.116680
    91  H    0.113268
    92  H    0.065160
    93  H    0.095855
    94  H    0.109966
    95  H    0.116273
    96  H    0.112247
    97  H    0.076143
    98  H    0.095731
 Sum of Mulliken charges =  -0.00000

 Dipole moment (field-independent basis, Debye):
    X=             -0.8595    Y=              0.8596    Z=             -0.8742  Tot=              1.4973
 Quadrupole moment (field-independent basis, Debye-Ang):
   XX=           -260.5616   YY=           -247.5732   ZZ=           -264.3078
   XY=             -9.7013   XZ=             45.0911   YZ=              1.7580

 Normal termination of Gaussian 16 at Sat Jul 13 21:26:24 2019.
