 Gaussian 16, Revision A.03,
 Gaussian 16:  ES64L-G16RevA.03 25-Dec-2016

 -------------------------------------
 # td=(NStates=1) CAM-B3LYP/6-31G(d,p)
 -------------------------------------

 --
 TD
 --
 Symbolic Z-matrix:
 Charge =  0 Multiplicity = 1

                         Standard orientation:
 ---------------------------------------------------------------------
 Center     Atomic      Atomic             Coordinates (Angstroms)
 Number     Number       Type             X           Y           Z
 ---------------------------------------------------------------------
      1          8           0      -14.267368   -1.864350    0.512211
      2          8           0       14.737331    0.978413    0.029164
      3          6           0      -11.773518    0.078594    1.303577
      4          6           0      -11.065094    0.340052   -0.066756
      5          6           0      -12.035575   -1.472768    1.491219
      6          6           0      -12.851703   -2.080889    0.257238
      7          6           0      -11.691133   -0.390863   -1.355619
      8          6           0       11.237743    0.938205    1.092489
      9          6           0      -10.947071    0.531443    2.459468
     10          6           0      -13.092093    0.874472    1.282627
     11          6           0       12.537251    1.510834    0.724084
     12          6           0      -12.415638   -1.506573   -0.999724
     13          6           0       13.515190    0.494804    0.238475
     14          6           0       10.728370   -0.008692    0.009618
     15          6           0       -9.575069    0.100108   -0.031182
     16          6           0       13.064398   -0.165740   -1.079225
     17          6           0       11.509717   -0.447967   -1.075855
     18          6           0       10.186813    2.165888    1.316014
     19          6           0       11.254281    0.334811    2.534682
     20          6           0      -11.337456    0.123116   -2.730763
     21          6           0       -8.513859    0.973781   -0.160467
     22          6           0        9.301098   -0.401211    0.133802
     23          6           0       11.152369   -1.365338   -2.186038
     24          6           0       -7.175784    0.510944   -0.122321
     25          6           0        8.829481   -1.652694   -0.138832
     26          6           0       -6.813498   -0.972451   -0.054478
     27          6           0        7.423133   -2.130366   -0.070824
     28          6           0       -6.225455    1.516012   -0.142772
     29          6           0        7.246671   -3.556333    0.085585
     30          6           0        6.443138   -1.305222   -0.306879
     31          6           0       -4.787154    1.410493   -0.329417
     32          6           0        5.049605   -1.517520   -0.032660
     33          6           0       -3.987524    2.492345   -0.615113
     34          6           0       -2.578114    2.564496   -0.662166
     35          6           0        3.996819   -0.647000   -0.262886
     36          6           0        2.573535   -0.862960   -0.070933
     37          6           0       -2.017193    3.949705   -0.926811
     38          6           0       -1.723923    1.467672   -0.482307
     39          6           0        1.764700    0.191378   -0.354987
     40          6           0        2.184887   -2.172494    0.663294
     41          6           0       -0.382179    1.363950   -0.666028
     42          6           0        0.375440    0.234841   -0.207504
     43          1           0      -11.043956    1.417366   -0.256704
     44          1           0      -12.658459   -1.604648    2.316396
     45          1           0      -11.113180   -1.990294    1.795294
     46          1           0      -12.530889   -3.244340    0.264420
     47          1           0       -9.821724   -0.045474    2.432184
     48          1           0      -10.768556    1.492011    2.461059
     49          1           0      -11.569221    0.103624    3.388837
     50          1           0      -13.651878    0.467511    0.450711
     51          1           0      -13.628358    0.787394    2.134813
     52          1           0      -12.748559    1.988232    0.932967
     53          1           0       12.493636    2.213894    0.081799
     54          1           0       12.991932    1.909051    1.582794
     55          1           0      -12.982350   -2.215495   -1.845201
     56          1           0       13.619280   -0.435032    0.745813
     57          1           0       -9.196824   -0.946345    0.009655
     58          1           0       13.635052   -1.199094   -1.235083
     59          1           0       13.118574    0.530039   -1.985703
     60          1           0        9.400063    1.901039    1.799380
     61          1           0        9.802604    2.483676    0.246628
     62          1           0       10.907088    2.925032    2.006604
     63          1           0       11.944060   -0.542068    2.986241
     64          1           0       10.184005   -0.317353    2.551263
     65          1           0       11.544625    1.244502    3.102950
     66          1           0      -10.258250   -0.170103   -3.031953
     67          1           0      -11.494761    1.263345   -3.081437
     68          1           0      -11.974328   -0.668117   -3.274816
     69          1           0      -14.669807   -2.268805   -0.230696
     70          1           0        8.655084    0.325791    0.529439
     71          1           0       -8.620635    2.016294   -0.390024
     72          1           0       11.501666   -2.306341   -2.080799
     73          1           0       10.105155   -1.356998   -2.382739
     74          1           0       11.565198   -1.138604   -3.226464
     75          1           0       15.065186    1.455156    0.829109
     76          1           0        9.553610   -2.546214   -0.400168
     77          1           0       -5.582323   -1.302471   -0.190620
     78          1           0       -7.167022   -1.334924    0.884948
     79          1           0       -7.390369   -1.665618   -0.899514
     80          1           0       -6.636599    2.538910   -0.254657
     81          1           0        6.710322   -3.868472    0.969685
     82          1           0        6.558096   -3.910140   -0.524375
     83          1           0        8.331439   -4.032759    0.132952
     84          1           0        6.686160   -0.148370   -0.552121
     85          1           0       -4.396478    0.456615   -0.309402
     86          1           0        4.742799   -2.533663    0.199284
     87          1           0       -4.506389    3.456011   -0.791303
     88          1           0        4.323984    0.320479   -0.488656
     89          1           0       -1.456677    3.881769   -1.851306
     90          1           0       -1.143335    4.339172   -0.284479
     91          1           0       -2.680899    4.682066   -1.140429
     92          1           0       -2.381281    0.672682   -0.268144
     93          1           0        2.261853    1.157542   -0.540513
     94          1           0        2.680089   -2.357124    1.529032
     95          1           0        1.099719   -2.249174    0.987110
     96          1           0        2.386425   -3.058725   -0.045582
     97          1           0        0.375369    2.094549   -0.995007
     98          1           0       -0.243310   -0.644664    0.117776
 ---------------------------------------------------------------------

 SCF Done:  E(RCAM-B3LYP) =  -1706.93487016     A.U. after   15 cycles

 Excitation energies and oscillator strengths:

 Excited State   1:      Singlet-A      2.1725 eV  570.71 nm  f=2.9723  <S**2>=0.000
     155 ->158         0.13602
     156 ->157         0.69499
 This state for optimization and/or second-order correction.
 Total Energy, E(TD-HF/TD-DFT) =  -1706.85503335
 Copying the excited state density for this state as the 1-particle RhoCI density.

 The electronic state is 1-A.
 Alpha  occ. eigenvalues --  -19.22339 -19.20851 -10.32588 -10.29369 -10.28898
 Alpha  occ. eigenvalues --  -10.28549 -10.28538 -10.27676 -10.27665 -10.27619
 Alpha  occ. eigenvalues --  -10.27594 -10.27222 -10.27180 -10.27116 -10.26832
 Alpha  occ. eigenvalues --  -10.26819 -10.26689 -10.26646 -10.26503 -10.26363
 Alpha  occ. eigenvalues --  -10.26360 -10.26331 -10.26277 -10.26268 -10.26130
 Alpha  occ. eigenvalues --  -10.26124 -10.26092 -10.25972 -10.25934 -10.25890
 Alpha  occ. eigenvalues --  -10.25874 -10.25769 -10.25659 -10.25636 -10.25182
 Alpha  occ. eigenvalues --  -10.24851 -10.24803 -10.24628 -10.24540 -10.23864
 Alpha  occ. eigenvalues --  -10.23380 -10.22527  -1.11857  -1.10448  -0.93215
 Alpha  occ. eigenvalues --   -0.92889  -0.92034  -0.91686  -0.90857  -0.90087
 Alpha  occ. eigenvalues --   -0.86957  -0.86746  -0.86540  -0.84917  -0.84364
 Alpha  occ. eigenvalues --   -0.82962  -0.81975  -0.80524  -0.80051  -0.78877
 Alpha  occ. eigenvalues --   -0.77058  -0.76592  -0.76352  -0.76111  -0.75552
 Alpha  occ. eigenvalues --   -0.75090  -0.74734  -0.74134  -0.73400  -0.70542
 Alpha  occ. eigenvalues --   -0.69058  -0.67902  -0.66728  -0.65235  -0.63860
 Alpha  occ. eigenvalues --   -0.62986  -0.62184  -0.61992  -0.61095  -0.59706
 Alpha  occ. eigenvalues --   -0.59321  -0.59028  -0.58683  -0.57913  -0.56715
 Alpha  occ. eigenvalues --   -0.55598  -0.55068  -0.54516  -0.54006  -0.53720
 Alpha  occ. eigenvalues --   -0.53316  -0.53066  -0.52421  -0.52210  -0.51210
 Alpha  occ. eigenvalues --   -0.50800  -0.50266  -0.49976  -0.49285  -0.48980
 Alpha  occ. eigenvalues --   -0.48480  -0.48270  -0.48112  -0.48096  -0.47916
 Alpha  occ. eigenvalues --   -0.47679  -0.47342  -0.47206  -0.46349  -0.46220
 Alpha  occ. eigenvalues --   -0.46073  -0.45892  -0.45663  -0.45195  -0.45032
 Alpha  occ. eigenvalues --   -0.44750  -0.44499  -0.44341  -0.44103  -0.43656
 Alpha  occ. eigenvalues --   -0.43394  -0.43019  -0.42481  -0.42465  -0.42329
 Alpha  occ. eigenvalues --   -0.41902  -0.41641  -0.41362  -0.41092  -0.40809
 Alpha  occ. eigenvalues --   -0.39915  -0.39619  -0.39489  -0.39364  -0.39052
 Alpha  occ. eigenvalues --   -0.38791  -0.38608  -0.38287  -0.38227  -0.37547
 Alpha  occ. eigenvalues --   -0.36993  -0.36949  -0.36174  -0.35973  -0.35455
 Alpha  occ. eigenvalues --   -0.35028  -0.34351  -0.33453  -0.33193  -0.31820
 Alpha  occ. eigenvalues --   -0.31428  -0.30030  -0.28439  -0.26262  -0.23829
 Alpha  occ. eigenvalues --   -0.19328
 Alpha virt. eigenvalues --   -0.05733  -0.00580   0.02492   0.04557   0.06415
 Alpha virt. eigenvalues --    0.08935   0.10520   0.10976   0.11785   0.12033
 Alpha virt. eigenvalues --    0.12625   0.12827   0.13321   0.13597   0.13952

 Mulliken charges:
               1
     1  O   -0.522161
     2  O   -0.545113
     3  C    0.008624
     4  C   -0.133040
     5  C   -0.186042
     6  C    0.105895
     7  C    0.111410
     8  C   -0.039245
     9  C   -0.257357
    10  C   -0.271998
    11  C   -0.160779
    12  C   -0.095288
    13  C    0.192441
    14  C    0.056965
    15  C   -0.104518
    16  C   -0.223031
    17  C    0.039504
    18  C   -0.287331
    19  C   -0.273091
    20  C   -0.359061
    21  C   -0.085600
    22  C   -0.120235
    23  C   -0.371358
    24  C    0.143481
    25  C   -0.119812
    26  C   -0.368156
    27  C    0.127804
    28  C   -0.154817
    29  C   -0.379875
    30  C   -0.124379
    31  C   -0.056519
    32  C   -0.099008
    33  C   -0.136284
    34  C    0.103273
    35  C   -0.111240
    36  C    0.111827
    37  C   -0.384806
    38  C   -0.103113
    39  C   -0.133429
    40  C   -0.371816
    41  C   -0.084428
    42  C   -0.082945
    43  H    0.082666
    44  H    0.114311
    45  H    0.096815
    46  H    0.075662
    47  H    0.065524
    48  H    0.107276
    49  H    0.078718
    50  H    0.124375
    51  H    0.106220
    52  H    0.061386
    53  H    0.109186
    54  H    0.064688
    55  H    0.035003
    56  H    0.070687
    57  H    0.073488
    58  H    0.092999
    59  H    0.102991
    60  H    0.126091
    61  H    0.095265
    62  H    0.074397
    63  H    0.083299
    64  H    0.088937
    65  H    0.096464
    66  H    0.128521
    67  H    0.120487
    68  H    0.112935
    69  H    0.303641
    70  H    0.088558
    71  H    0.082332
    72  H    0.130354
    73  H    0.124615
    74  H    0.094187
    75  H    0.300984
    76  H    0.080375
    77  H    0.088875
    78  H    0.141128
    79  H    0.101497
    80  H    0.073903
    81  H    0.120060
    82  H    0.137007
    83  H    0.098624
    84  H    0.064084
    85  H    0.078098
    86  H    0.063097
    87  H    0.080396
    88  H    0.072147
    89  H    0.123030
    90  H    0.113734
    91  H    0.114480
    92  H    0.070621
    93  H    0.089937
    94  H    0.140812
    95  H    0.103730
    96  H    0.110135
    97  H    0.083857
    98  H    0.081961
 Sum of Mulliken charges =  -0.00000

 Dipole moment (field-independent basis, Debye):
    X=             -0.7692    Y=             -0.9637    Z=             -0.2597  Tot=              1.2601
 Quadrupole moment (field-independent basis, Debye-Ang):
   XX=           -271.8912   YY=           -241.7926   ZZ=           -263.4369
   XY=             11.5368   XZ=             38.6276   YZ=             -0.3000

 Normal termination of Gaussian 16 at Sat Jul 13 10:49:16 2019.
