 Gaussian 16, Revision A.03,
 Gaussian 16:  ES64L-G16RevA.03 25-Dec-2016

 -------------------------------------
 # td=(NStates=1) CAM-B3LYP/6-31G(d,p)
 -------------------------------------

 --
 TD
 --
 Symbolic Z-matrix:
 Charge =  0 Multiplicity = 1

                         Standard orientation:
 ---------------------------------------------------------------------
 Center     Atomic      Atomic             Coordinates (Angstroms)
 Number     Number       Type             X           Y           Z
 ---------------------------------------------------------------------
      1          8           0       14.125750    1.868326    0.896227
      2          8           0      -14.811493   -0.961392    0.246067
      3          6           0       11.784507   -0.305709    1.353464
      4          6           0       11.083912   -0.483621   -0.075990
      5          6           0       12.006360    1.249124    1.640923
      6          6           0       12.733181    2.039229    0.456079
      7          6           0       11.683031    0.407746   -1.158026
      8          6           0      -11.061070   -1.067342    1.066392
      9          6           0       10.952380   -0.887424    2.445024
     10          6           0       13.154084   -0.975009    1.198889
     11          6           0      -12.542374   -1.661447    0.692671
     12          6           0       12.513931    1.417074   -0.927394
     13          6           0      -13.399813   -0.626028    0.426371
     14          6           0      -10.702969    0.074776    0.041169
     15          6           0        9.543707   -0.030299   -0.051775
     16          6           0      -12.968600    0.119196   -0.818913
     17          6           0      -11.583426    0.482493   -0.848406
     18          6           0      -10.121597   -2.326565    1.011163
     19          6           0      -10.969674   -0.550752    2.471850
     20          6           0       11.238549    0.050033   -2.579528
     21          6           0        8.513988   -0.853934   -0.193514
     22          6           0       -9.269242    0.400272    0.187518
     23          6           0      -11.204197    1.289690   -1.969232
     24          6           0        7.151853   -0.414148   -0.179643
     25          6           0       -8.910723    1.736585   -0.091391
     26          6           0        6.754178    0.963930    0.005632
     27          6           0       -7.433790    2.200761   -0.060945
     28          6           0        6.156803   -1.326640   -0.560490
     29          6           0       -7.377395    3.646821    0.175843
     30          6           0       -6.446006    1.298583   -0.209212
     31          6           0        4.791714   -1.300929   -0.733293
     32          6           0       -5.008006    1.665188   -0.047621
     33          6           0        3.929690   -2.334334   -0.890151
     34          6           0        2.474386   -2.380534   -0.867236
     35          6           0       -3.998805    0.674666   -0.231050
     36          6           0       -2.686388    0.886995   -0.128013
     37          6           0        1.863619   -3.660685   -1.014040
     38          6           0        1.797921   -1.175211   -0.646438
     39          6           0       -1.759494   -0.158727   -0.457444
     40          6           0       -2.076117    2.246763    0.120020
     41          6           0        0.451204   -1.198590   -0.614587
     42          6           0       -0.449702   -0.212973   -0.516915
     43          1           0       11.070799   -1.507060   -0.316185
     44          1           0       12.519708    1.245063    2.588943
     45          1           0       11.077064    1.676923    1.616495
     46          1           0       12.457685    3.031017    0.908838
     47          1           0        9.896508   -0.566985    2.460438
     48          1           0       10.673621   -2.083824    2.275462
     49          1           0       11.409062   -0.630391    3.427108
     50          1           0       13.761679   -0.603798    0.405693
     51          1           0       13.856257   -0.610856    1.942349
     52          1           0       13.069312   -1.997922    1.009566
     53          1           0      -12.453519   -2.650213    0.012805
     54          1           0      -12.707040   -2.096455    1.708532
     55          1           0       12.961838    2.012179   -1.830781
     56          1           0      -13.397541    0.106762    1.127252
     57          1           0        9.439043    1.191119    0.102591
     58          1           0      -13.788560    0.877883   -0.966227
     59          1           0      -13.308047   -0.498300   -1.846814
     60          1           0       -9.142903   -1.966778    1.475528
     61          1           0      -10.000776   -2.731047   -0.009698
     62          1           0      -10.464399   -3.312468    1.614545
     63          1           0      -11.532179    0.405983    2.533846
     64          1           0       -9.941991   -0.077586    2.621576
     65          1           0      -11.015313   -1.280033    3.346644
     66          1           0       10.164550   -0.001390   -2.788959
     67          1           0       11.757217   -0.768015   -2.927714
     68          1           0       11.732599    0.803709   -3.373884
     69          1           0       14.685228    2.095875    0.260568
     70          1           0       -8.585532   -0.342148    0.769516
     71          1           0        8.674483   -1.991086   -0.055180
     72          1           0      -11.454051    2.297704   -1.847319
     73          1           0      -10.037517    1.230477   -2.130649
     74          1           0      -11.782027    1.043572   -2.765802
     75          1           0      -15.010767   -1.432665    1.141484
     76          1           0       -9.736521    2.321423   -0.272484
     77          1           0        5.622356    1.053366   -0.096973
     78          1           0        7.173982    1.181072    1.145849
     79          1           0        7.404173    1.688102   -0.582870
     80          1           0        6.599583   -2.287615   -0.603173
     81          1           0       -7.149230    4.131425    1.150196
     82          1           0       -6.830540    3.950697   -0.561266
     83          1           0       -8.333954    4.167027    0.209872
     84          1           0       -6.575917    0.220583   -0.547905
     85          1           0        4.442827   -0.224959   -0.672395
     86          1           0       -4.809031    2.474762    0.262573
     87          1           0        4.457365   -3.440008   -0.749232
     88          1           0       -4.359027   -0.268721   -0.339466
     89          1           0        1.158126   -3.721252   -1.714897
     90          1           0        1.307001   -4.004195   -0.137146
     91          1           0        2.532993   -4.387079   -1.251556
     92          1           0        2.259535   -0.319625   -0.293046
     93          1           0       -2.201550   -1.114484   -0.414329
     94          1           0       -2.269703    2.907194    1.046153
     95          1           0       -0.990952    2.247857    0.146035
     96          1           0       -2.445532    2.955457   -0.708095
     97          1           0        0.005798   -2.095536   -0.909328
     98          1           0       -0.017979    0.925648   -0.266009
 ---------------------------------------------------------------------

 SCF Done:  E(RCAM-B3LYP) =  -1706.87011784     A.U. after   15 cycles

 Excitation energies and oscillator strengths:

 Excited State   1:      Singlet-A      1.9708 eV  629.12 nm  f=3.1400  <S**2>=0.000
     155 ->158         0.12945
     156 ->157         0.70005
     156 <-157        -0.11496
 This state for optimization and/or second-order correction.
 Total Energy, E(TD-HF/TD-DFT) =  -1706.79769365
 Copying the excited state density for this state as the 1-particle RhoCI density.

 The electronic state is 1-A.
 Alpha  occ. eigenvalues --  -19.20899 -19.19175 -10.31649 -10.28220 -10.27978
 Alpha  occ. eigenvalues --  -10.27975 -10.27958 -10.27759 -10.27724 -10.27612
 Alpha  occ. eigenvalues --  -10.27393 -10.27367 -10.27355 -10.27077 -10.26971
 Alpha  occ. eigenvalues --  -10.26882 -10.26737 -10.26651 -10.26593 -10.26561
 Alpha  occ. eigenvalues --  -10.26380 -10.26201 -10.26082 -10.25863 -10.25855
 Alpha  occ. eigenvalues --  -10.25850 -10.25543 -10.25436 -10.25388 -10.25364
 Alpha  occ. eigenvalues --  -10.25340 -10.25223 -10.25206 -10.25121 -10.25094
 Alpha  occ. eigenvalues --  -10.25071 -10.24784 -10.24289 -10.24069 -10.23711
 Alpha  occ. eigenvalues --  -10.23304 -10.21805  -1.09143  -1.07178  -0.94387
 Alpha  occ. eigenvalues --   -0.93385  -0.92974  -0.92131  -0.91387  -0.90190
 Alpha  occ. eigenvalues --   -0.88027  -0.87874  -0.86711  -0.86063  -0.85628
 Alpha  occ. eigenvalues --   -0.83301  -0.82832  -0.81074  -0.80688  -0.80088
 Alpha  occ. eigenvalues --   -0.77148  -0.76810  -0.76562  -0.76483  -0.75749
 Alpha  occ. eigenvalues --   -0.75446  -0.75081  -0.74944  -0.73398  -0.71194
 Alpha  occ. eigenvalues --   -0.68869  -0.67995  -0.67168  -0.64818  -0.63656
 Alpha  occ. eigenvalues --   -0.63149  -0.62812  -0.62350  -0.61599  -0.60363
 Alpha  occ. eigenvalues --   -0.58780  -0.58482  -0.58161  -0.58142  -0.57148
 Alpha  occ. eigenvalues --   -0.56130  -0.55478  -0.55178  -0.54786  -0.54322
 Alpha  occ. eigenvalues --   -0.53595  -0.53067  -0.52784  -0.52668  -0.52358
 Alpha  occ. eigenvalues --   -0.51503  -0.50739  -0.50237  -0.49669  -0.49422
 Alpha  occ. eigenvalues --   -0.49329  -0.49101  -0.48707  -0.48421  -0.47971
 Alpha  occ. eigenvalues --   -0.47682  -0.47620  -0.47257  -0.46757  -0.46581
 Alpha  occ. eigenvalues --   -0.46285  -0.45956  -0.45717  -0.45229  -0.44863
 Alpha  occ. eigenvalues --   -0.44718  -0.44555  -0.44247  -0.44219  -0.43984
 Alpha  occ. eigenvalues --   -0.43674  -0.43272  -0.42984  -0.42348  -0.41966
 Alpha  occ. eigenvalues --   -0.41517  -0.41335  -0.41077  -0.40919  -0.40665
 Alpha  occ. eigenvalues --   -0.40216  -0.40182  -0.39758  -0.39377  -0.38916
 Alpha  occ. eigenvalues --   -0.38697  -0.38606  -0.38161  -0.38099  -0.37676
 Alpha  occ. eigenvalues --   -0.36536  -0.36389  -0.36310  -0.35642  -0.35499
 Alpha  occ. eigenvalues --   -0.34837  -0.34029  -0.33393  -0.32303  -0.31907
 Alpha  occ. eigenvalues --   -0.31304  -0.30185  -0.29550  -0.26345  -0.24180
 Alpha  occ. eigenvalues --   -0.18778
 Alpha virt. eigenvalues --   -0.06757  -0.00874   0.02129   0.04805   0.06751
 Alpha virt. eigenvalues --    0.09457   0.10798   0.11273   0.11903   0.12105
 Alpha virt. eigenvalues --    0.12889   0.13104   0.13264   0.14083   0.14163

 Mulliken charges:
               1
     1  O   -0.546898
     2  O   -0.581969
     3  C    0.033422
     4  C   -0.131326
     5  C   -0.184325
     6  C    0.111313
     7  C    0.136994
     8  C   -0.041519
     9  C   -0.294701
    10  C   -0.295668
    11  C   -0.181820
    12  C   -0.148748
    13  C    0.182595
    14  C    0.056977
    15  C   -0.108204
    16  C   -0.261066
    17  C    0.116033
    18  C   -0.299760
    19  C   -0.305230
    20  C   -0.362950
    21  C   -0.093970
    22  C   -0.100156
    23  C   -0.381416
    24  C    0.131119
    25  C   -0.140508
    26  C   -0.364694
    27  C    0.077618
    28  C   -0.127285
    29  C   -0.370213
    30  C   -0.133640
    31  C   -0.042305
    32  C   -0.039270
    33  C   -0.148748
    34  C    0.100856
    35  C   -0.111717
    36  C    0.136641
    37  C   -0.387422
    38  C   -0.073832
    39  C   -0.129679
    40  C   -0.382403
    41  C   -0.084003
    42  C   -0.060344
    43  H    0.094403
    44  H    0.118584
    45  H    0.087548
    46  H    0.105174
    47  H    0.109290
    48  H    0.061775
    49  H    0.099736
    50  H    0.109032
    51  H    0.104623
    52  H    0.090024
    53  H    0.092775
    54  H    0.076391
    55  H    0.078909
    56  H    0.099370
    57  H    0.080990
    58  H    0.117314
    59  H    0.085133
    60  H    0.087115
    61  H    0.110892
    62  H    0.085050
    63  H    0.102936
    64  H    0.099942
    65  H    0.103617
    66  H    0.135906
    67  H    0.132338
    68  H    0.081611
    69  H    0.281025
    70  H    0.096517
    71  H    0.093682
    72  H    0.118603
    73  H    0.116918
    74  H    0.108430
    75  H    0.299291
    76  H    0.102906
    77  H    0.107062
    78  H    0.093657
    79  H    0.120887
    80  H    0.057650
    81  H    0.117784
    82  H    0.136984
    83  H    0.112146
    84  H    0.092340
    85  H    0.069830
    86  H    0.042068
    87  H    0.064626
    88  H    0.074381
    89  H    0.139593
    90  H    0.127713
    91  H    0.118293
    92  H    0.086260
    93  H    0.068095
    94  H    0.108502
    95  H    0.115189
    96  H    0.112058
    97  H    0.066842
    98  H    0.032411
 Sum of Mulliken charges =  -0.00000

 Dipole moment (field-independent basis, Debye):
    X=              0.8385    Y=              0.4983    Z=              0.3006  Tot=              1.0207
 Quadrupole moment (field-independent basis, Debye-Ang):
   XX=           -292.4076   YY=           -240.4283   ZZ=           -262.9610
   XY=              0.4914   XZ=            -39.2065   YZ=             -0.6183

 Normal termination of Gaussian 16 at Sat Jul 13 16:45:52 2019.
