 Gaussian 16, Revision A.03,
 Gaussian 16:  ES64L-G16RevA.03 25-Dec-2016

 -------------------------------------
 # td=(NStates=1) CAM-B3LYP/6-31G(d,p)
 -------------------------------------

 --
 TD
 --
 Symbolic Z-matrix:
 Charge =  0 Multiplicity = 1

                         Standard orientation:
 ---------------------------------------------------------------------
 Center     Atomic      Atomic             Coordinates (Angstroms)
 Number     Number       Type             X           Y           Z
 ---------------------------------------------------------------------
      1          8           0      -14.321867   -1.807430    0.473491
      2          8           0       14.880821    1.114686    0.035457
      3          6           0      -11.880181    0.237434    1.269429
      4          6           0      -11.084130    0.396819   -0.007398
      5          6           0      -12.049392   -1.339067    1.422738
      6          6           0      -12.872583   -1.907652    0.170360
      7          6           0      -11.704054   -0.343456   -1.284324
      8          6           0       11.177872    1.000727    1.111244
      9          6           0      -11.200101    0.660456    2.510956
     10          6           0      -13.140943    0.973019    1.165509
     11          6           0       12.622230    1.575667    0.801907
     12          6           0      -12.453658   -1.387735   -1.102641
     13          6           0       13.582882    0.549244    0.275446
     14          6           0       10.797958    0.060749    0.042672
     15          6           0       -9.649693   -0.081529    0.104359
     16          6           0       13.023125   -0.064678   -1.001507
     17          6           0       11.644644   -0.431905   -0.913056
     18          6           0       10.193634    2.180673    1.194318
     19          6           0       11.106671    0.346040    2.555769
     20          6           0      -11.323176    0.299971   -2.500507
     21          6           0       -8.568588    0.822127   -0.090392
     22          6           0        9.311648   -0.373999    0.084714
     23          6           0       11.218121   -1.279281   -2.101782
     24          6           0       -7.204606    0.431412   -0.035737
     25          6           0        8.792061   -1.660110   -0.102780
     26          6           0       -6.743693   -0.944288    0.392411
     27          6           0        7.515344   -2.094296    0.052303
     28          6           0       -6.180634    1.450279   -0.224029
     29          6           0        7.245869   -3.597021    0.344006
     30          6           0        6.389875   -1.240485   -0.223791
     31          6           0       -4.833690    1.134275   -0.380022
     32          6           0        5.091049   -1.591629   -0.017984
     33          6           0       -4.041584    2.331113   -0.720007
     34          6           0       -2.623689    2.458325   -0.763870
     35          6           0        4.054467   -0.678101   -0.311718
     36          6           0        2.624602   -1.006021   -0.255763
     37          6           0       -1.938250    3.741605   -1.070051
     38          6           0       -1.796240    1.285396   -0.599013
     39          6           0        1.747093    0.084361   -0.482220
     40          6           0        2.247295   -2.461531    0.054496
     41          6           0       -0.317771    1.291186   -0.634847
     42          6           0        0.416426    0.057251   -0.447625
     43          1           0      -11.009129    1.410374   -0.247224
     44          1           0      -12.538256   -1.614712    2.362666
     45          1           0      -11.101715   -1.918431    1.378251
     46          1           0      -12.664719   -3.046834    0.227548
     47          1           0      -10.331991    0.273356    2.682716
     48          1           0      -10.802306    1.604683    2.553254
     49          1           0      -11.846294    0.463714    3.546509
     50          1           0      -13.561350    0.699242    0.004167
     51          1           0      -13.729788    0.787880    2.012379
     52          1           0      -13.033988    2.034744    1.131576
     53          1           0       12.433058    2.473963    0.107832
     54          1           0       13.179348    2.065444    1.657065
     55          1           0      -12.632205   -2.007102   -2.075577
     56          1           0       13.674095   -0.410264    1.003532
     57          1           0       -9.424762   -1.221952    0.242327
     58          1           0       13.671928   -0.872577   -1.400638
     59          1           0       13.120531    0.609602   -1.835308
     60          1           0        9.312876    1.981459    1.415449
     61          1           0       10.189725    2.691635    0.260004
     62          1           0       10.642571    3.020457    1.915431
     63          1           0       11.816712   -0.313762    2.743742
     64          1           0       10.156834   -0.203590    2.717966
     65          1           0       11.345589    1.132870    3.199517
     66          1           0      -10.239501    0.674380   -2.308493
     67          1           0      -11.781497    1.348809   -2.571172
     68          1           0      -11.513775   -0.370007   -3.320341
     69          1           0      -14.677694   -2.381291   -0.367402
     70          1           0        8.650782    0.543710    0.293913
     71          1           0       -8.868363    1.707318   -0.313891
     72          1           0       11.698614   -2.329887   -2.024681
     73          1           0       10.159219   -1.181251   -2.027655
     74          1           0       11.592127   -0.648518   -2.869297
     75          1           0       15.246505    1.688033    0.826157
     76          1           0        9.770097   -2.229575   -0.214727
     77          1           0       -5.558282   -1.135176    0.108290
     78          1           0       -7.004757   -1.276969    1.418756
     79          1           0       -7.191066   -1.665548   -0.300778
     80          1           0       -6.495836    2.502290   -0.390020
     81          1           0        7.143320   -3.725423    1.469196
     82          1           0        6.257240   -4.037707   -0.428268
     83          1           0        7.901870   -4.336259   -0.158033
     84          1           0        6.874359   -0.215535   -0.372454
     85          1           0       -4.482625    0.299871   -0.247809
     86          1           0        5.038318   -2.577795    0.305629
     87          1           0       -4.577707    3.253076   -0.730151
     88          1           0        4.299208    0.326561   -0.539541
     89          1           0       -1.760787    3.721359   -2.176734
     90          1           0       -1.127469    3.898398   -0.286803
     91          1           0       -2.770073    4.437753   -0.629241
     92          1           0       -2.175600    0.214328   -0.557491
     93          1           0        2.211600    1.143348   -0.461217
     94          1           0        2.681787   -2.772894    1.088980
     95          1           0        1.204304   -2.616200    0.102462
     96          1           0        2.660332   -2.886543   -0.622827
     97          1           0        0.319759    2.206184   -0.680390
     98          1           0       -0.000062   -0.989178   -0.378152
 ---------------------------------------------------------------------

 SCF Done:  E(RCAM-B3LYP) =  -1706.85573394     A.U. after   17 cycles

 Excitation energies and oscillator strengths:

 Excited State   1:      Singlet-A      1.6614 eV  746.24 nm  f=3.1840  <S**2>=0.000
     155 ->158         0.13490
     156 ->157         0.70427
     156 <-157        -0.13588
 This state for optimization and/or second-order correction.
 Total Energy, E(TD-HF/TD-DFT) =  -1706.79467703
 Copying the excited state density for this state as the 1-particle RhoCI density.

 The electronic state is 1-A.
 Alpha  occ. eigenvalues --  -19.21563 -19.21232 -10.31396 -10.30666 -10.28249
 Alpha  occ. eigenvalues --  -10.28027 -10.27979 -10.27838 -10.27593 -10.27572
 Alpha  occ. eigenvalues --  -10.27404 -10.27404 -10.27230 -10.27199 -10.27168
 Alpha  occ. eigenvalues --  -10.27153 -10.26986 -10.26857 -10.26718 -10.26631
 Alpha  occ. eigenvalues --  -10.26537 -10.26258 -10.26248 -10.26201 -10.26073
 Alpha  occ. eigenvalues --  -10.26038 -10.26030 -10.26015 -10.25959 -10.25761
 Alpha  occ. eigenvalues --  -10.25707 -10.25558 -10.25551 -10.25185 -10.24950
 Alpha  occ. eigenvalues --  -10.24683 -10.24598 -10.24470 -10.23567 -10.23206
 Alpha  occ. eigenvalues --  -10.22860 -10.22526  -1.07393  -1.05492  -0.94183
 Alpha  occ. eigenvalues --   -0.93778  -0.91814  -0.91290  -0.90457  -0.89367
 Alpha  occ. eigenvalues --   -0.88382  -0.87896  -0.86905  -0.85455  -0.84288
 Alpha  occ. eigenvalues --   -0.82659  -0.82418  -0.80568  -0.79488  -0.78935
 Alpha  occ. eigenvalues --   -0.77247  -0.76922  -0.76300  -0.76096  -0.75910
 Alpha  occ. eigenvalues --   -0.75705  -0.75505  -0.74931  -0.71646  -0.70145
 Alpha  occ. eigenvalues --   -0.68917  -0.67251  -0.66447  -0.65030  -0.64596
 Alpha  occ. eigenvalues --   -0.64195  -0.62497  -0.62202  -0.61370  -0.60520
 Alpha  occ. eigenvalues --   -0.59167  -0.57913  -0.57135  -0.56524  -0.55324
 Alpha  occ. eigenvalues --   -0.55162  -0.54693  -0.54316  -0.54156  -0.54016
 Alpha  occ. eigenvalues --   -0.53005  -0.52926  -0.52319  -0.51837  -0.51397
 Alpha  occ. eigenvalues --   -0.51230  -0.51175  -0.50717  -0.50006  -0.49743
 Alpha  occ. eigenvalues --   -0.49224  -0.48750  -0.48640  -0.48559  -0.48393
 Alpha  occ. eigenvalues --   -0.47935  -0.47862  -0.46976  -0.46902  -0.46668
 Alpha  occ. eigenvalues --   -0.46037  -0.45975  -0.45384  -0.45230  -0.45136
 Alpha  occ. eigenvalues --   -0.44695  -0.44619  -0.43943  -0.43408  -0.43173
 Alpha  occ. eigenvalues --   -0.42811  -0.42483  -0.42263  -0.41964  -0.41740
 Alpha  occ. eigenvalues --   -0.41405  -0.41297  -0.41139  -0.40955  -0.40892
 Alpha  occ. eigenvalues --   -0.40382  -0.40156  -0.40056  -0.39789  -0.39273
 Alpha  occ. eigenvalues --   -0.39200  -0.38886  -0.38672  -0.38182  -0.38153
 Alpha  occ. eigenvalues --   -0.37545  -0.36787  -0.36602  -0.36120  -0.35210
 Alpha  occ. eigenvalues --   -0.34746  -0.34061  -0.33625  -0.32221  -0.31592
 Alpha  occ. eigenvalues --   -0.31364  -0.29525  -0.28645  -0.26345  -0.22443
 Alpha  occ. eigenvalues --   -0.17731
 Alpha virt. eigenvalues --   -0.07361  -0.02032   0.02424   0.05496   0.07116
 Alpha virt. eigenvalues --    0.08384   0.10784   0.10972   0.11496   0.12188
 Alpha virt. eigenvalues --    0.12217   0.12909   0.13093   0.13434   0.13531

 Mulliken charges:
               1
     1  O   -0.542853
     2  O   -0.583643
     3  C    0.042010
     4  C   -0.150525
     5  C   -0.184271
     6  C    0.101808
     7  C    0.154946
     8  C   -0.030160
     9  C   -0.289711
    10  C   -0.265885
    11  C   -0.198995
    12  C   -0.119820
    13  C    0.199175
    14  C    0.067398
    15  C   -0.090402
    16  C   -0.228093
    17  C    0.028781
    18  C   -0.293249
    19  C   -0.292738
    20  C   -0.364388
    21  C   -0.073524
    22  C   -0.145247
    23  C   -0.345765
    24  C    0.081299
    25  C   -0.114293
    26  C   -0.370824
    27  C    0.056988
    28  C   -0.119448
    29  C   -0.361335
    30  C   -0.081612
    31  C    0.013147
    32  C   -0.085318
    33  C   -0.133613
    34  C    0.049350
    35  C   -0.113255
    36  C    0.051136
    37  C   -0.355553
    38  C   -0.110513
    39  C   -0.108155
    40  C   -0.333714
    41  C   -0.118351
    42  C   -0.070755
    43  H    0.082204
    44  H    0.105589
    45  H    0.095032
    46  H    0.065347
    47  H    0.106028
    48  H    0.090654
    49  H    0.069508
    50  H    0.078867
    51  H    0.107858
    52  H    0.093101
    53  H    0.097140
    54  H    0.066173
    55  H    0.061692
    56  H    0.061721
    57  H    0.084885
    58  H    0.105583
    59  H    0.122603
    60  H    0.115391
    61  H    0.102070
    62  H    0.076975
    63  H    0.105195
    64  H    0.105288
    65  H    0.100982
    66  H    0.111325
    67  H    0.120637
    68  H    0.111466
    69  H    0.296559
    70  H    0.078406
    71  H    0.065088
    72  H    0.109924
    73  H    0.127533
    74  H    0.113244
    75  H    0.310088
    76  H    0.102801
    77  H    0.085775
    78  H    0.131756
    79  H    0.119947
    80  H    0.084409
    81  H    0.129404
    82  H    0.067173
    83  H    0.123237
    84  H    0.073667
    85  H    0.049503
    86  H    0.091380
    87  H    0.075098
    88  H    0.088048
    89  H    0.145743
    90  H    0.126790
    91  H    0.096420
    92  H    0.083005
    93  H    0.075277
    94  H    0.114751
    95  H    0.107008
    96  H    0.140711
    97  H    0.092068
    98  H    0.081840
 Sum of Mulliken charges =  -0.00000

 Dipole moment (field-independent basis, Debye):
    X=              1.4317    Y=             -0.1843    Z=             -0.1467  Tot=              1.4510
 Quadrupole moment (field-independent basis, Debye-Ang):
   XX=           -309.1804   YY=           -240.7579   ZZ=           -262.2029
   XY=              8.9996   XZ=             36.4935   YZ=              2.5857

 Normal termination of Gaussian 16 at Sun Jul 14 19:10:02 2019.
