 Gaussian 16, Revision A.03,
 Gaussian 16:  ES64L-G16RevA.03 25-Dec-2016

 -------------------------------------
 # td=(NStates=1) CAM-B3LYP/6-31G(d,p)
 -------------------------------------

 --
 TD
 --
 Symbolic Z-matrix:
 Charge =  0 Multiplicity = 1

                         Standard orientation:
 ---------------------------------------------------------------------
 Center     Atomic      Atomic             Coordinates (Angstroms)
 Number     Number       Type             X           Y           Z
 ---------------------------------------------------------------------
      1          8           0      -14.094866   -1.926805    0.338389
      2          8           0       14.775448    0.969292    0.238316
      3          6           0      -11.832966    0.233273    1.200078
      4          6           0      -11.035998    0.346120   -0.084974
      5          6           0      -12.095848   -1.308024    1.529814
      6          6           0      -12.657025   -2.074040    0.286262
      7          6           0      -11.564770   -0.441928   -1.298076
      8          6           0       11.014695    1.126811    1.046055
      9          6           0      -11.123562    0.921384    2.290276
     10          6           0      -13.297961    0.924729    1.133017
     11          6           0       12.368408    1.582236    0.676589
     12          6           0      -12.249872   -1.605591   -1.025681
     13          6           0       13.506908    0.484092    0.329992
     14          6           0       10.712812    0.022602    0.019115
     15          6           0       -9.571154    0.051808    0.172412
     16          6           0       13.065490   -0.224214   -0.943130
     17          6           0       11.521897   -0.532241   -0.843566
     18          6           0       10.196608    2.337246    0.946512
     19          6           0       10.871920    0.468170    2.484038
     20          6           0      -11.076518    0.001081   -2.556556
     21          6           0       -8.462961    0.766678   -0.070416
     22          6           0        9.260319   -0.413456   -0.061526
     23          6           0       11.120966   -1.584756   -1.917975
     24          6           0       -7.081088    0.473539    0.078692
     25          6           0        8.841750   -1.680913   -0.179053
     26          6           0       -6.689371   -0.971284    0.533193
     27          6           0        7.473780   -2.103603   -0.036942
     28          6           0       -6.104363    1.398611   -0.311929
     29          6           0        7.187710   -3.583690    0.315104
     30          6           0        6.408342   -1.228056   -0.231328
     31          6           0       -4.734730    1.311466   -0.339981
     32          6           0        5.055878   -1.522242   -0.139282
     33          6           0       -4.038001    2.375192   -0.698767
     34          6           0       -2.611034    2.501744   -0.810975
     35          6           0        4.102244   -0.612568   -0.255573
     36          6           0        2.734409   -0.853245   -0.162104
     37          6           0       -1.868212    3.829088   -1.103627
     38          6           0       -1.782760    1.399530   -0.464120
     39          6           0        1.778715    0.222550   -0.515749
     40          6           0        2.192218   -2.212340    0.314917
     41          6           0       -0.437061    1.322636   -0.653217
     42          6           0        0.366895    0.178378   -0.449689
     43          1           0      -11.164511    1.556468   -0.481271
     44          1           0      -12.681140   -1.353759    2.422678
     45          1           0      -11.202193   -1.815794    1.825951
     46          1           0      -12.571112   -3.247144    0.491485
     47          1           0      -10.207984    0.473998    2.477159
     48          1           0      -10.759723    1.954076    2.077700
     49          1           0      -11.678174    1.101016    3.284188
     50          1           0      -13.930707    0.185326    0.370598
     51          1           0      -13.905958    0.970511    2.053202
     52          1           0      -13.025610    2.084874    0.742496
     53          1           0       12.320541    2.433511   -0.149745
     54          1           0       12.827080    2.188852    1.573824
     55          1           0      -12.497448   -2.292156   -1.776846
     56          1           0       13.389581   -0.314024    1.042640
     57          1           0       -9.432420   -0.998682    0.738201
     58          1           0       13.503338   -1.204844   -1.095303
     59          1           0       13.375317    0.343521   -1.725480
     60          1           0        9.082897    2.224767    1.141752
     61          1           0       10.229253    2.845900   -0.055995
     62          1           0       10.367188    3.152456    1.467704
     63          1           0       11.494160   -0.312028    2.585184
     64          1           0        9.856600    0.289242    2.678106
     65          1           0       11.234722    1.152241    3.317686
     66          1           0       -9.997018   -0.004387   -2.865705
     67          1           0      -11.460409    1.008952   -2.857872
     68          1           0      -11.616839   -0.659163   -3.431348
     69          1           0      -14.526555   -2.599305   -0.277964
     70          1           0        8.516156    0.446831    0.002861
     71          1           0       -8.848760    1.757518   -0.716244
     72          1           0       11.306837   -2.561340   -1.374923
     73          1           0       10.170637   -1.451544   -2.169521
     74          1           0       11.685709   -1.502643   -2.878880
     75          1           0       15.105055    1.320877    1.009766
     76          1           0        9.575334   -2.278031   -0.052762
     77          1           0       -5.766143   -1.264389    0.739157
     78          1           0       -7.278270   -1.207435    1.329873
     79          1           0       -6.860372   -1.916834   -0.172359
     80          1           0       -6.446973    2.437779   -0.532265
     81          1           0        6.785371   -3.948825    1.364199
     82          1           0        6.578042   -4.131835   -0.330670
     83          1           0        8.166273   -4.129722    0.309848
     84          1           0        6.772776   -0.365030   -0.614474
     85          1           0       -4.326492    0.320995    0.025685
     86          1           0        4.799724   -2.497519    0.315612
     87          1           0       -4.529594    3.332526   -0.932405
     88          1           0        4.425066    0.453697   -0.607025
     89          1           0       -1.412525    3.768154   -2.184747
     90          1           0       -0.942260    3.982753   -0.418689
     91          1           0       -2.646812    4.586124   -1.204041
     92          1           0       -2.239411    0.237202   -0.201734
     93          1           0        2.221894    1.180068   -0.623412
     94          1           0        2.721886   -2.432437    1.387991
     95          1           0        1.071705   -2.149476    0.626765
     96          1           0        2.230642   -2.846076   -0.503794
     97          1           0        0.111582    2.161959   -0.927796
     98          1           0       -0.214885   -0.768300   -0.063666
 ---------------------------------------------------------------------

 SCF Done:  E(RCAM-B3LYP) =  -1706.95398291     A.U. after   15 cycles

 Excitation energies and oscillator strengths:

 Excited State   1:      Singlet-A      1.9593 eV  632.79 nm  f=3.0558  <S**2>=0.000
     155 ->158         0.13010
     156 ->157         0.69992
     156 <-157        -0.10950
 This state for optimization and/or second-order correction.
 Total Energy, E(TD-HF/TD-DFT) =  -1706.88197889
 Copying the excited state density for this state as the 1-particle RhoCI density.

 The electronic state is 1-A.
 Alpha  occ. eigenvalues --  -19.21398 -19.20795 -10.31579 -10.30390 -10.28159
 Alpha  occ. eigenvalues --  -10.28006 -10.27893 -10.27834 -10.27612 -10.27606
 Alpha  occ. eigenvalues --  -10.27548 -10.27485 -10.27307 -10.27111 -10.27049
 Alpha  occ. eigenvalues --  -10.26868 -10.26762 -10.26744 -10.26652 -10.26515
 Alpha  occ. eigenvalues --  -10.26391 -10.26350 -10.26341 -10.26156 -10.26038
 Alpha  occ. eigenvalues --  -10.25955 -10.25926 -10.25763 -10.25747 -10.25534
 Alpha  occ. eigenvalues --  -10.25470 -10.25297 -10.25148 -10.24730 -10.24725
 Alpha  occ. eigenvalues --  -10.24634 -10.24347 -10.24280 -10.24253 -10.24171
 Alpha  occ. eigenvalues --  -10.24020 -10.22861  -1.12321  -1.08041  -0.94183
 Alpha  occ. eigenvalues --   -0.92964  -0.92066  -0.91825  -0.90200  -0.89429
 Alpha  occ. eigenvalues --   -0.87802  -0.87233  -0.86686  -0.85467  -0.84158
 Alpha  occ. eigenvalues --   -0.82855  -0.82032  -0.80177  -0.79750  -0.78020
 Alpha  occ. eigenvalues --   -0.77915  -0.76923  -0.76860  -0.76160  -0.75843
 Alpha  occ. eigenvalues --   -0.75202  -0.75097  -0.73063  -0.72289  -0.70415
 Alpha  occ. eigenvalues --   -0.69188  -0.67351  -0.66706  -0.66200  -0.64622
 Alpha  occ. eigenvalues --   -0.62748  -0.62650  -0.62147  -0.60357  -0.60215
 Alpha  occ. eigenvalues --   -0.60113  -0.59079  -0.57729  -0.57577  -0.56362
 Alpha  occ. eigenvalues --   -0.55659  -0.54757  -0.54560  -0.54120  -0.53921
 Alpha  occ. eigenvalues --   -0.52979  -0.52543  -0.52072  -0.52003  -0.51859
 Alpha  occ. eigenvalues --   -0.50957  -0.50518  -0.50418  -0.49575  -0.49215
 Alpha  occ. eigenvalues --   -0.48808  -0.48457  -0.47998  -0.47545  -0.47387
 Alpha  occ. eigenvalues --   -0.47021  -0.46663  -0.46532  -0.46273  -0.46104
 Alpha  occ. eigenvalues --   -0.45841  -0.45629  -0.45440  -0.45382  -0.45037
 Alpha  occ. eigenvalues --   -0.44650  -0.43995  -0.43674  -0.43602  -0.43349
 Alpha  occ. eigenvalues --   -0.43194  -0.42953  -0.42293  -0.42070  -0.41395
 Alpha  occ. eigenvalues --   -0.41345  -0.40955  -0.40794  -0.40565  -0.40479
 Alpha  occ. eigenvalues --   -0.40387  -0.40046  -0.39938  -0.39742  -0.39653
 Alpha  occ. eigenvalues --   -0.38755  -0.38437  -0.38323  -0.38131  -0.37993
 Alpha  occ. eigenvalues --   -0.37158  -0.36974  -0.36405  -0.36232  -0.35253
 Alpha  occ. eigenvalues --   -0.34260  -0.34084  -0.33140  -0.32247  -0.31988
 Alpha  occ. eigenvalues --   -0.31817  -0.29971  -0.28648  -0.27000  -0.23766
 Alpha  occ. eigenvalues --   -0.18624
 Alpha virt. eigenvalues --   -0.06452  -0.00717   0.02921   0.04810   0.07142
 Alpha virt. eigenvalues --    0.09658   0.11128   0.11315   0.11746   0.12321
 Alpha virt. eigenvalues --    0.12826   0.13054   0.13450   0.14041   0.14285

 Mulliken charges:
               1
     1  O   -0.546085
     2  O   -0.537610
     3  C    0.024159
     4  C   -0.127297
     5  C   -0.177490
     6  C    0.102802
     7  C    0.152524
     8  C    0.020270
     9  C   -0.299357
    10  C   -0.293070
    11  C   -0.208476
    12  C   -0.080290
    13  C    0.178635
    14  C    0.064195
    15  C   -0.084978
    16  C   -0.206806
    17  C    0.001999
    18  C   -0.316969
    19  C   -0.300185
    20  C   -0.381043
    21  C   -0.085907
    22  C   -0.125349
    23  C   -0.351508
    24  C    0.079144
    25  C   -0.073214
    26  C   -0.363364
    27  C    0.073706
    28  C   -0.126198
    29  C   -0.387324
    30  C   -0.095243
    31  C   -0.018790
    32  C   -0.080659
    33  C   -0.123180
    34  C    0.063687
    35  C   -0.094200
    36  C    0.074630
    37  C   -0.367640
    38  C   -0.103724
    39  C   -0.134382
    40  C   -0.360952
    41  C   -0.064678
    42  C   -0.083455
    43  H    0.052349
    44  H    0.114384
    45  H    0.092688
    46  H    0.068337
    47  H    0.104725
    48  H    0.096575
    49  H    0.084972
    50  H    0.120481
    51  H    0.103945
    52  H    0.055803
    53  H    0.086962
    54  H    0.052153
    55  H    0.075080
    56  H    0.071764
    57  H    0.071042
    58  H    0.101716
    59  H    0.122687
    60  H    0.084635
    61  H    0.097294
    62  H    0.121661
    63  H    0.113750
    64  H    0.121541
    65  H    0.085578
    66  H    0.139436
    67  H    0.118716
    68  H    0.080225
    69  H    0.301705
    70  H    0.086602
    71  H    0.064545
    72  H    0.113378
    73  H    0.138028
    74  H    0.101965
    75  H    0.301216
    76  H    0.067507
    77  H    0.116347
    78  H    0.125760
    79  H    0.090317
    80  H    0.077130
    81  H    0.103761
    82  H    0.133562
    83  H    0.099601
    84  H    0.067973
    85  H    0.091665
    86  H    0.089862
    87  H    0.080407
    88  H    0.075977
    89  H    0.113722
    90  H    0.129333
    91  H    0.112005
    92  H    0.056315
    93  H    0.082882
    94  H    0.108862
    95  H    0.102170
    96  H    0.143429
    97  H    0.074535
    98  H    0.074615
 Sum of Mulliken charges =  -0.00000

 Dipole moment (field-independent basis, Debye):
    X=              2.7782    Y=             -1.4821    Z=              0.4094  Tot=              3.1753
 Quadrupole moment (field-independent basis, Debye-Ang):
   XX=           -277.3225   YY=           -239.5689   ZZ=           -259.6038
   XY=             21.5963   XZ=             31.4603   YZ=             -1.3625

 Normal termination of Gaussian 16 at Mon Jul 15 16:57:06 2019.
