 Gaussian 16, Revision A.03,
 Gaussian 16:  ES64L-G16RevA.03 25-Dec-2016

 -------------------------------------
 # td=(NStates=1) CAM-B3LYP/6-31G(d,p)
 -------------------------------------

 --
 TD
 --
 Symbolic Z-matrix:
 Charge =  0 Multiplicity = 1

                         Standard orientation:
 ---------------------------------------------------------------------
 Center     Atomic      Atomic             Coordinates (Angstroms)
 Number     Number       Type             X           Y           Z
 ---------------------------------------------------------------------
      1          8           0      -14.181615   -1.937810    0.299717
      2          8           0       14.890588    0.755990    0.097346
      3          6           0      -11.880295   -0.115659    1.247700
      4          6           0      -10.886851    0.178814   -0.057464
      5          6           0      -12.026234   -1.571719    1.316200
      6          6           0      -12.745444   -2.150626    0.168316
      7          6           0      -11.556118   -0.481864   -1.294391
      8          6           0       11.080136    0.865602    0.986370
      9          6           0      -11.021264    0.474935    2.479277
     10          6           0      -13.123560    0.731304    1.151329
     11          6           0       12.542754    1.426345    0.646274
     12          6           0      -12.265041   -1.534753   -1.171323
     13          6           0       13.592650    0.345142    0.415001
     14          6           0       10.628455   -0.100977   -0.089041
     15          6           0       -9.489053   -0.126591    0.077906
     16          6           0       13.004984   -0.284538   -0.971056
     17          6           0       11.533563   -0.469529   -0.987728
     18          6           0       10.281208    2.155224    1.120056
     19          6           0       11.072339    0.247725    2.377960
     20          6           0      -11.184717    0.208644   -2.671053
     21          6           0       -8.515328    0.768943   -0.124513
     22          6           0        9.238826   -0.426684   -0.014406
     23          6           0       11.086591   -1.330706   -2.165755
     24          6           0       -7.066747    0.507332    0.047205
     25          6           0        8.769353   -1.674446   -0.231710
     26          6           0       -6.543030   -0.923014    0.445597
     27          6           0        7.399603   -2.150712   -0.114228
     28          6           0       -6.110447    1.621246   -0.315352
     29          6           0        7.141871   -3.562089    0.275472
     30          6           0        6.314999   -1.176370   -0.182849
     31          6           0       -4.781372    1.568951   -0.210238
     32          6           0        5.003630   -1.484448   -0.179747
     33          6           0       -4.051743    2.686268   -0.621801
     34          6           0       -2.588809    2.750597   -0.691623
     35          6           0        3.954744   -0.512656   -0.288115
     36          6           0        2.594980   -0.741468   -0.045861
     37          6           0       -1.896594    4.020028   -0.903732
     38          6           0       -1.824604    1.591162   -0.168393
     39          6           0        1.682259    0.395400   -0.185651
     40          6           0        2.026747   -2.124821    0.152050
     41          6           0       -0.496604    1.596714   -0.362507
     42          6           0        0.345003    0.439545   -0.108542
     43          1           0      -11.184301    1.320668   -0.204508
     44          1           0      -12.558280   -1.890361    2.071932
     45          1           0      -11.149713   -2.162358    1.169910
     46          1           0      -12.533192   -3.214212    0.033240
     47          1           0      -10.054480    0.022773    2.612174
     48          1           0      -10.778064    1.482186    2.038686
     49          1           0      -11.582438    0.625117    3.441036
     50          1           0      -13.642979    0.261020    0.293021
     51          1           0      -13.611243    0.450354    2.009319
     52          1           0      -12.693776    1.732847    0.797039
     53          1           0       12.553311    1.942729   -0.140425
     54          1           0       12.806616    2.149740    1.444266
     55          1           0      -12.592130   -1.780992   -2.146365
     56          1           0       13.527333   -0.294324    1.195283
     57          1           0       -9.165020   -1.216037    0.358558
     58          1           0       13.390271   -1.232135   -1.052166
     59          1           0       13.422265    0.286180   -1.762686
     60          1           0        9.057279    1.941482    1.430947
     61          1           0       10.108194    2.870839    0.120579
     62          1           0       10.661016    2.817688    1.764953
     63          1           0       11.866128   -0.525826    2.304579
     64          1           0       10.227719   -0.208553    2.605890
     65          1           0       11.321464    1.014394    3.110165
     66          1           0      -10.115000    0.239851   -2.599162
     67          1           0      -11.676747    1.176170   -2.841480
     68          1           0      -11.406429   -0.505612   -3.557667
     69          1           0      -14.619729   -1.875882   -0.570652
     70          1           0        8.409063    0.245463    0.054791
     71          1           0       -8.799837    1.713623   -0.393097
     72          1           0       11.518136   -2.335985   -2.122731
     73          1           0        9.972752   -1.294604   -2.246686
     74          1           0       11.553859   -1.059502   -2.952190
     75          1           0       15.573786    0.881931    0.803912
     76          1           0        9.572515   -2.291144   -0.328949
     77          1           0       -5.406822   -0.855086    0.160006
     78          1           0       -6.777528   -1.173312    1.511636
     79          1           0       -7.056676   -1.687132   -0.179188
     80          1           0       -6.494306    2.504472   -0.279531
     81          1           0        6.526543   -3.700289    1.241603
     82          1           0        6.469573   -3.888288   -0.458714
     83          1           0        7.823097   -4.207380    0.284633
     84          1           0        6.588960   -0.216603   -0.483441
     85          1           0       -4.200264    0.649794    0.085967
     86          1           0        4.549446   -2.481164    0.332375
     87          1           0       -4.808666    3.361309   -1.057646
     88          1           0        4.262295    0.419471   -0.485595
     89          1           0       -1.088099    4.000841   -1.667544
     90          1           0       -1.488564    4.380001    0.100067
     91          1           0       -2.741535    4.684149   -1.196702
     92          1           0       -2.303406    0.439239   -0.083549
     93          1           0        2.133198    1.208396   -0.523497
     94          1           0        2.844098   -2.523575    0.911284
     95          1           0        0.858986   -1.839999    0.768132
     96          1           0        1.860563   -2.763845   -0.940460
     97          1           0        0.056404    2.565994   -0.486934
     98          1           0       -0.102463   -0.527459    0.031258
 ---------------------------------------------------------------------

 SCF Done:  E(RCAM-B3LYP) =  -1706.83403383     A.U. after   19 cycles

 Excitation energies and oscillator strengths:

 Excited State   1:      Singlet-A      1.4468 eV  856.95 nm  f=2.7677  <S**2>=0.000
     155 ->158         0.10700
     156 ->157         0.72553
     156 <-157        -0.20336
 This state for optimization and/or second-order correction.
 Total Energy, E(TD-HF/TD-DFT) =  -1706.78086455
 Copying the excited state density for this state as the 1-particle RhoCI density.

 The electronic state is 1-A.
 Alpha  occ. eigenvalues --  -19.21286 -19.21105 -10.30926 -10.29794 -10.29729
 Alpha  occ. eigenvalues --  -10.29377 -10.28851 -10.28036 -10.27516 -10.27403
 Alpha  occ. eigenvalues --  -10.27354 -10.27037 -10.26842 -10.26817 -10.26792
 Alpha  occ. eigenvalues --  -10.26681 -10.26660 -10.26612 -10.26497 -10.26326
 Alpha  occ. eigenvalues --  -10.26175 -10.26101 -10.25893 -10.25833 -10.25697
 Alpha  occ. eigenvalues --  -10.25594 -10.25398 -10.25366 -10.25280 -10.24848
 Alpha  occ. eigenvalues --  -10.24805 -10.24595 -10.24518 -10.24229 -10.24157
 Alpha  occ. eigenvalues --  -10.23828 -10.23795 -10.23372 -10.23065 -10.22988
 Alpha  occ. eigenvalues --  -10.22795 -10.22444  -1.08917  -1.08261  -0.93878
 Alpha  occ. eigenvalues --   -0.93807  -0.92013  -0.91322  -0.90259  -0.89391
 Alpha  occ. eigenvalues --   -0.87879  -0.87141  -0.86920  -0.86249  -0.84941
 Alpha  occ. eigenvalues --   -0.83683  -0.82531  -0.81063  -0.80915  -0.79016
 Alpha  occ. eigenvalues --   -0.77103  -0.76442  -0.76237  -0.76093  -0.75461
 Alpha  occ. eigenvalues --   -0.75131  -0.74632  -0.74623  -0.71470  -0.69998
 Alpha  occ. eigenvalues --   -0.69157  -0.68013  -0.66920  -0.65490  -0.63983
 Alpha  occ. eigenvalues --   -0.63292  -0.62581  -0.61851  -0.60871  -0.60672
 Alpha  occ. eigenvalues --   -0.59883  -0.59639  -0.58881  -0.57954  -0.56701
 Alpha  occ. eigenvalues --   -0.56603  -0.55552  -0.55187  -0.54386  -0.53966
 Alpha  occ. eigenvalues --   -0.53372  -0.53037  -0.52490  -0.51678  -0.51141
 Alpha  occ. eigenvalues --   -0.50217  -0.49962  -0.49623  -0.49019  -0.48922
 Alpha  occ. eigenvalues --   -0.48791  -0.48333  -0.48154  -0.48041  -0.47928
 Alpha  occ. eigenvalues --   -0.47769  -0.47374  -0.47148  -0.46857  -0.46322
 Alpha  occ. eigenvalues --   -0.46088  -0.45968  -0.45648  -0.45489  -0.45118
 Alpha  occ. eigenvalues --   -0.45011  -0.44510  -0.44145  -0.43906  -0.43675
 Alpha  occ. eigenvalues --   -0.43290  -0.42994  -0.42798  -0.42638  -0.42303
 Alpha  occ. eigenvalues --   -0.41779  -0.41446  -0.41145  -0.41006  -0.40775
 Alpha  occ. eigenvalues --   -0.40418  -0.40113  -0.39868  -0.39428  -0.39318
 Alpha  occ. eigenvalues --   -0.39108  -0.38658  -0.38557  -0.38068  -0.37777
 Alpha  occ. eigenvalues --   -0.37579  -0.37021  -0.36255  -0.35833  -0.35580
 Alpha  occ. eigenvalues --   -0.35293  -0.33801  -0.32904  -0.32255  -0.31525
 Alpha  occ. eigenvalues --   -0.30894  -0.30782  -0.28907  -0.26507  -0.23237
 Alpha  occ. eigenvalues --   -0.16636
 Alpha virt. eigenvalues --   -0.08235  -0.01439   0.02477   0.06236   0.07847
 Alpha virt. eigenvalues --    0.08964   0.10368   0.10911   0.11376   0.11938
 Alpha virt. eigenvalues --    0.12178   0.12348   0.13124   0.13666   0.14026

 Mulliken charges:
               1
     1  O   -0.565502
     2  O   -0.578275
     3  C   -0.006055
     4  C   -0.175639
     5  C   -0.137908
     6  C    0.140424
     7  C    0.101350
     8  C   -0.049063
     9  C   -0.301921
    10  C   -0.265796
    11  C   -0.164829
    12  C   -0.154390
    13  C    0.179998
    14  C    0.078248
    15  C   -0.057845
    16  C   -0.242421
    17  C    0.042490
    18  C   -0.275453
    19  C   -0.278466
    20  C   -0.354605
    21  C   -0.064535
    22  C   -0.094390
    23  C   -0.361671
    24  C    0.045297
    25  C   -0.120833
    26  C   -0.361395
    27  C    0.060859
    28  C   -0.133672
    29  C   -0.352198
    30  C   -0.111639
    31  C   -0.016211
    32  C   -0.094832
    33  C   -0.143819
    34  C    0.060884
    35  C   -0.088216
    36  C    0.071408
    37  C   -0.373130
    38  C   -0.103864
    39  C   -0.078178
    40  C   -0.322986
    41  C   -0.078285
    42  C   -0.098960
    43  H    0.068025
    44  H    0.110152
    45  H    0.098932
    46  H    0.088074
    47  H    0.103494
    48  H    0.087223
    49  H    0.091589
    50  H    0.107682
    51  H    0.116268
    52  H    0.088284
    53  H    0.104235
    54  H    0.061214
    55  H    0.063884
    56  H    0.078806
    57  H    0.082784
    58  H    0.113201
    59  H    0.130759
    60  H    0.055747
    61  H    0.067055
    62  H    0.116072
    63  H    0.086169
    64  H    0.118155
    65  H    0.096425
    66  H    0.130545
    67  H    0.121729
    68  H    0.093657
    69  H    0.310011
    70  H    0.085718
    71  H    0.077267
    72  H    0.099543
    73  H    0.121386
    74  H    0.110750
    75  H    0.311538
    76  H    0.083979
    77  H    0.104184
    78  H    0.129492
    79  H    0.120615
    80  H    0.085965
    81  H    0.114318
    82  H    0.132454
    83  H    0.113114
    84  H    0.086218
    85  H    0.080339
    86  H    0.062412
    87  H    0.085180
    88  H    0.070884
    89  H    0.125896
    90  H    0.134358
    91  H    0.112752
    92  H    0.075930
    93  H    0.061809
    94  H    0.108466
    95  H    0.071098
    96  H    0.113410
    97  H    0.088437
    98  H    0.068340
 Sum of Mulliken charges =  -0.00000

 Dipole moment (field-independent basis, Debye):
    X=              0.5352    Y=             -0.4807    Z=             -0.4821  Tot=              0.8660
 Quadrupole moment (field-independent basis, Debye-Ang):
   XX=           -244.3569   YY=           -246.8976   ZZ=           -261.2679
   XY=             -4.5338   XZ=             36.7393   YZ=             -0.2354

 Normal termination of Gaussian 16 at Sun Jul 14 16:54:37 2019.
