 Gaussian 16, Revision A.03,
 Gaussian 16:  ES64L-G16RevA.03 25-Dec-2016

 -------------------------------------
 # td=(NStates=1) CAM-B3LYP/6-31G(d,p)
 -------------------------------------

 --
 TD
 --
 Symbolic Z-matrix:
 Charge =  0 Multiplicity = 1

                         Standard orientation:
 ---------------------------------------------------------------------
 Center     Atomic      Atomic             Coordinates (Angstroms)
 Number     Number       Type             X           Y           Z
 ---------------------------------------------------------------------
      1          8           0      -14.204919   -1.918954    0.302910
      2          8           0       14.836219    0.918828   -0.009824
      3          6           0      -11.833989    0.193875    1.217342
      4          6           0      -10.971878    0.364557   -0.070041
      5          6           0      -12.205244   -1.306483    1.449249
      6          6           0      -12.767309   -2.062100    0.288814
      7          6           0      -11.564597   -0.449362   -1.252417
      8          6           0       11.091908    1.080848    1.029514
      9          6           0      -11.014910    0.819635    2.435678
     10          6           0      -13.052741    1.001997    1.128666
     11          6           0       12.532124    1.507286    0.651652
     12          6           0      -12.200127   -1.536662   -1.060038
     13          6           0       13.499809    0.476269    0.212018
     14          6           0       10.669698   -0.057130    0.043108
     15          6           0       -9.518185   -0.120891    0.049906
     16          6           0       13.008982   -0.106398   -1.070949
     17          6           0       11.471053   -0.517883   -0.935191
     18          6           0       10.178895    2.193971    0.932127
     19          6           0       11.151532    0.367937    2.438397
     20          6           0      -11.123463   -0.019583   -2.634391
     21          6           0       -8.543251    0.782013   -0.241423
     22          6           0        9.303174   -0.470276    0.091000
     23          6           0       11.172325   -1.405529   -2.061219
     24          6           0       -7.129233    0.438003   -0.023556
     25          6           0        8.823892   -1.771837    0.011278
     26          6           0       -6.762265   -0.983384    0.334362
     27          6           0        7.407217   -2.096327    0.084803
     28          6           0       -6.155146    1.419326   -0.276356
     29          6           0        7.032108   -3.503505    0.273107
     30          6           0        6.419259   -1.097330    0.037299
     31          6           0       -4.721663    1.337062   -0.197917
     32          6           0        5.107330   -1.481540    0.174046
     33          6           0       -3.924856    2.391944   -0.544902
     34          6           0       -2.570388    2.521554   -0.803565
     35          6           0        4.046385   -0.587897   -0.091497
     36          6           0        2.650890   -0.866742   -0.066569
     37          6           0       -1.951599    3.873742   -0.932402
     38          6           0       -1.826225    1.349296   -0.638254
     39          6           0        1.753381    0.202392   -0.311248
     40          6           0        2.050737   -2.222874    0.259780
     41          6           0       -0.477152    1.291607   -0.674900
     42          6           0        0.352155    0.125360   -0.418988
     43          1           0      -11.094064    1.370383   -0.381763
     44          1           0      -12.885431   -1.368946    2.223410
     45          1           0      -11.338685   -1.752914    1.828489
     46          1           0      -12.459017   -3.058436    0.571881
     47          1           0      -10.100050    0.308618    2.416047
     48          1           0      -10.758965    1.875325    2.290149
     49          1           0      -11.512208    0.671761    3.440390
     50          1           0      -13.747024    0.739288    0.294899
     51          1           0      -13.981356    0.898333    1.866471
     52          1           0      -12.835464    1.976276    0.929584
     53          1           0       12.287017    2.233305   -0.214083
     54          1           0       12.920784    2.107320    1.632913
     55          1           0      -12.727967   -2.100501   -2.083140
     56          1           0       13.522280   -0.275195    0.944638
     57          1           0       -9.375758   -1.080116    0.489222
     58          1           0       13.591694   -1.016895   -1.158646
     59          1           0       13.298970    0.556239   -1.952681
     60          1           0        9.077930    1.800671    1.353743
     61          1           0       10.195673    2.484469   -0.015782
     62          1           0       10.447526    3.042739    1.596862
     63          1           0       11.915181   -0.329775    2.280558
     64          1           0       10.141743   -0.036723    2.510210
     65          1           0       11.490920    1.291830    3.340879
     66          1           0      -10.035425   -0.073687   -2.640002
     67          1           0      -11.234926    1.130381   -2.999297
     68          1           0      -11.532080   -0.725976   -3.419296
     69          1           0      -14.701408   -1.783255   -0.599937
     70          1           0        8.726264    0.466866    0.257644
     71          1           0       -8.773743    1.779593   -0.536891
     72          1           0       11.625661   -2.455125   -2.019546
     73          1           0       10.053128   -1.441909   -2.225776
     74          1           0       11.758089   -1.136355   -2.976842
     75          1           0       15.154227    1.427830    0.748031
     76          1           0        9.547101   -2.432355   -0.306029
     77          1           0       -5.736188   -1.192282    0.211145
     78          1           0       -7.005491   -0.952203    1.536379
     79          1           0       -7.226385   -1.809810   -0.331328
     80          1           0       -6.556444    2.378771   -0.524180
     81          1           0        7.065615   -3.768149    1.454647
     82          1           0        5.979970   -3.615218   -0.309869
     83          1           0        7.680293   -4.310948   -0.238788
     84          1           0        6.894622   -0.147718   -0.292968
     85          1           0       -4.215956    0.186352   -0.001784
     86          1           0        4.779363   -2.366405    0.498632
     87          1           0       -4.546213    3.310880   -0.506973
     88          1           0        4.411625    0.420318   -0.369202
     89          1           0       -1.120766    3.844768   -1.719178
     90          1           0       -1.466815    4.249045   -0.159511
     91          1           0       -2.636014    4.657978   -1.339350
     92          1           0       -2.306333    0.400147   -0.497096
     93          1           0        1.963215    1.444915   -0.171684
     94          1           0        2.154358   -2.280436    1.508012
     95          1           0        0.938859   -2.287022   -0.268493
     96          1           0        2.811772   -3.055461   -0.063888
     97          1           0        0.194700    2.084231   -0.864611
     98          1           0       -0.220611   -0.733453   -0.398834
 ---------------------------------------------------------------------

 SCF Done:  E(RCAM-B3LYP) =  -1706.95272499     A.U. after   16 cycles

 Excitation energies and oscillator strengths:

 Excited State   1:      Singlet-A      1.8107 eV  684.74 nm  f=3.0550  <S**2>=0.000
     155 ->158        -0.13273
     156 ->157         0.70153
     156 <-157        -0.12106
 This state for optimization and/or second-order correction.
 Total Energy, E(TD-HF/TD-DFT) =  -1706.88618431
 Copying the excited state density for this state as the 1-particle RhoCI density.

 The electronic state is 1-A.
 Alpha  occ. eigenvalues --  -19.20987 -19.20890 -10.30786 -10.29592 -10.29464
 Alpha  occ. eigenvalues --  -10.28259 -10.27941 -10.27817 -10.27718 -10.27561
 Alpha  occ. eigenvalues --  -10.27401 -10.27295 -10.27282 -10.27183 -10.26995
 Alpha  occ. eigenvalues --  -10.26410 -10.26388 -10.26377 -10.26377 -10.26360
 Alpha  occ. eigenvalues --  -10.26350 -10.26310 -10.26293 -10.26226 -10.26208
 Alpha  occ. eigenvalues --  -10.26198 -10.26162 -10.26133 -10.26031 -10.25992
 Alpha  occ. eigenvalues --  -10.25974 -10.25952 -10.25853 -10.25759 -10.25673
 Alpha  occ. eigenvalues --  -10.25516 -10.25374 -10.25374 -10.25338 -10.23781
 Alpha  occ. eigenvalues --  -10.23116 -10.22855  -1.09161  -1.06632  -0.94682
 Alpha  occ. eigenvalues --   -0.93423  -0.92421  -0.91852  -0.90251  -0.89707
 Alpha  occ. eigenvalues --   -0.87895  -0.87074  -0.86838  -0.86009  -0.84741
 Alpha  occ. eigenvalues --   -0.83252  -0.82447  -0.80673  -0.80444  -0.78531
 Alpha  occ. eigenvalues --   -0.77464  -0.76402  -0.76032  -0.75665  -0.75315
 Alpha  occ. eigenvalues --   -0.74966  -0.74819  -0.74782  -0.72298  -0.70346
 Alpha  occ. eigenvalues --   -0.69006  -0.68337  -0.66445  -0.65299  -0.64037
 Alpha  occ. eigenvalues --   -0.63256  -0.62541  -0.62172  -0.60801  -0.60111
 Alpha  occ. eigenvalues --   -0.59672  -0.58694  -0.57743  -0.57535  -0.56183
 Alpha  occ. eigenvalues --   -0.55701  -0.54931  -0.54837  -0.54456  -0.53742
 Alpha  occ. eigenvalues --   -0.53249  -0.52989  -0.52234  -0.52043  -0.51774
 Alpha  occ. eigenvalues --   -0.50947  -0.50237  -0.49983  -0.49457  -0.49328
 Alpha  occ. eigenvalues --   -0.49066  -0.48747  -0.48533  -0.48110  -0.47904
 Alpha  occ. eigenvalues --   -0.47685  -0.47225  -0.46911  -0.46663  -0.45955
 Alpha  occ. eigenvalues --   -0.45889  -0.45669  -0.45419  -0.45091  -0.44958
 Alpha  occ. eigenvalues --   -0.44760  -0.44025  -0.43598  -0.43438  -0.43174
 Alpha  occ. eigenvalues --   -0.43056  -0.42903  -0.42665  -0.42503  -0.42238
 Alpha  occ. eigenvalues --   -0.41754  -0.41633  -0.41572  -0.40850  -0.40522
 Alpha  occ. eigenvalues --   -0.40145  -0.39921  -0.39670  -0.39634  -0.39278
 Alpha  occ. eigenvalues --   -0.39097  -0.38295  -0.38162  -0.37901  -0.37709
 Alpha  occ. eigenvalues --   -0.37436  -0.37026  -0.36392  -0.35734  -0.35409
 Alpha  occ. eigenvalues --   -0.35222  -0.34634  -0.33565  -0.32811  -0.31872
 Alpha  occ. eigenvalues --   -0.31569  -0.30408  -0.29310  -0.26882  -0.23488
 Alpha  occ. eigenvalues --   -0.18262
 Alpha virt. eigenvalues --   -0.06962  -0.01182   0.02565   0.05694   0.07762
 Alpha virt. eigenvalues --    0.08738   0.10733   0.11202   0.11290   0.11440
 Alpha virt. eigenvalues --    0.11803   0.12591   0.12653   0.13281   0.13506

 Mulliken charges:
               1
     1  O   -0.581414
     2  O   -0.572176
     3  C    0.016845
     4  C   -0.136387
     5  C   -0.192195
     6  C    0.189058
     7  C    0.156996
     8  C   -0.024190
     9  C   -0.303954
    10  C   -0.292739
    11  C   -0.186692
    12  C   -0.175412
    13  C    0.196985
    14  C    0.032548
    15  C   -0.088182
    16  C   -0.232606
    17  C    0.069615
    18  C   -0.287620
    19  C   -0.258551
    20  C   -0.358968
    21  C   -0.079311
    22  C   -0.119837
    23  C   -0.380112
    24  C    0.086916
    25  C   -0.108295
    26  C   -0.355667
    27  C    0.076084
    28  C   -0.136919
    29  C   -0.361416
    30  C   -0.079025
    31  C   -0.057892
    32  C   -0.092610
    33  C   -0.131184
    34  C    0.109325
    35  C   -0.108121
    36  C    0.081856
    37  C   -0.379105
    38  C   -0.097100
    39  C   -0.120685
    40  C   -0.346648
    41  C   -0.088758
    42  C   -0.075432
    43  H    0.090054
    44  H    0.120079
    45  H    0.087265
    46  H    0.091491
    47  H    0.100437
    48  H    0.098080
    49  H    0.095073
    50  H    0.089730
    51  H    0.090671
    52  H    0.094025
    53  H    0.080975
    54  H    0.054201
    55  H    0.036344
    56  H    0.083106
    57  H    0.107251
    58  H    0.113052
    59  H    0.117553
    60  H    0.081507
    61  H    0.119925
    62  H    0.104961
    63  H    0.113640
    64  H    0.112698
    65  H    0.049660
    66  H    0.130728
    67  H    0.087675
    68  H    0.105779
    69  H    0.316435
    70  H    0.085623
    71  H    0.088285
    72  H    0.110476
    73  H    0.114934
    74  H    0.112726
    75  H    0.302376
    76  H    0.094887
    77  H    0.115009
    78  H    0.107548
    79  H    0.113681
    80  H    0.075201
    81  H    0.112297
    82  H    0.100668
    83  H    0.105505
    84  H    0.093554
    85  H    0.060843
    86  H    0.084934
    87  H    0.075879
    88  H    0.080513
    89  H    0.108616
    90  H    0.145516
    91  H    0.110219
    92  H    0.082528
    93  H    0.071836
    94  H    0.112218
    95  H    0.114549
    96  H    0.104690
    97  H    0.068026
    98  H    0.067442
 Sum of Mulliken charges =  -0.00000

 Dipole moment (field-independent basis, Debye):
    X=              1.4989    Y=              0.3987    Z=             -0.2911  Tot=              1.5780
 Quadrupole moment (field-independent basis, Debye-Ang):
   XX=           -285.4445   YY=           -246.0950   ZZ=           -264.2391
   XY=             -4.2707   XZ=             28.1468   YZ=              1.5818

 Normal termination of Gaussian 16 at Sun Jul 14 20:52:53 2019.
