 Gaussian 16, Revision A.03,
 Gaussian 16:  ES64L-G16RevA.03 25-Dec-2016

 -------------------------------------
 # td=(NStates=1) CAM-B3LYP/6-31G(d,p)
 -------------------------------------

 --
 TD
 --
 Symbolic Z-matrix:
 Charge =  0 Multiplicity = 1

                         Standard orientation:
 ---------------------------------------------------------------------
 Center     Atomic      Atomic             Coordinates (Angstroms)
 Number     Number       Type             X           Y           Z
 ---------------------------------------------------------------------
      1          8           0      -14.181287   -1.764592    0.380318
      2          8           0       14.731776    1.070753    0.174821
      3          6           0      -11.791414    0.001276    1.399011
      4          6           0      -11.013989    0.366577    0.129265
      5          6           0      -11.987003   -1.512117    1.488477
      6          6           0      -12.832639   -1.983043    0.145278
      7          6           0      -11.725488   -0.215970   -1.097628
      8          6           0       11.099712    1.199830    1.059425
      9          6           0      -10.959656    0.408342    2.576965
     10          6           0      -13.128296    0.885998    1.354677
     11          6           0       12.520089    1.586102    0.866285
     12          6           0      -12.460062   -1.345921   -1.101996
     13          6           0       13.465511    0.629131    0.510549
     14          6           0       10.760551    0.019081    0.091819
     15          6           0       -9.534475   -0.068034    0.116645
     16          6           0       13.121838   -0.010445   -0.826389
     17          6           0       11.625103   -0.435457   -0.834398
     18          6           0       10.122234    2.281318    1.048643
     19          6           0       10.902453    0.516398    2.594310
     20          6           0      -11.424199    0.453971   -2.440720
     21          6           0       -8.539080    0.862079    0.067635
     22          6           0        9.281371   -0.465475    0.130661
     23          6           0       11.315309   -1.496826   -1.871866
     24          6           0       -7.096853    0.502419   -0.021004
     25          6           0        8.790167   -1.692384   -0.066269
     26          6           0       -6.741811   -0.971658    0.131132
     27          6           0        7.444556   -2.238092   -0.091241
     28          6           0       -6.193089    1.441587   -0.356715
     29          6           0        7.330970   -3.602281    0.254095
     30          6           0        6.417607   -1.233888   -0.271392
     31          6           0       -4.746258    1.349719   -0.434016
     32          6           0        5.004837   -1.624419   -0.270571
     33          6           0       -3.970436    2.456303   -0.667206
     34          6           0       -2.551037    2.477939   -0.809494
     35          6           0        3.999031   -0.732661   -0.515394
     36          6           0        2.593454   -0.925371   -0.383354
     37          6           0       -1.872764    3.735273   -1.196323
     38          6           0       -1.717812    1.229312   -0.588567
     39          6           0        1.731385    0.104644   -0.549498
     40          6           0        2.160337   -2.391244   -0.151150
     41          6           0       -0.403126    1.236558   -0.695719
     42          6           0        0.397934    0.149633   -0.425046
     43          1           0      -10.943389    1.546067    0.198118
     44          1           0      -12.607038   -1.710713    2.368282
     45          1           0      -11.016902   -1.936724    1.565703
     46          1           0      -12.698903   -2.883237    0.115723
     47          1           0       -9.843773   -0.023231    2.289239
     48          1           0      -10.615490    1.456863    2.300605
     49          1           0      -11.315843    0.194574    3.655013
     50          1           0      -13.915078    0.465941    0.659008
     51          1           0      -13.637514    0.851582    2.297880
     52          1           0      -13.148627    1.983015    1.381204
     53          1           0       12.563683    2.461805    0.322691
     54          1           0       12.907859    2.047048    1.820437
     55          1           0      -12.871163   -1.768421   -2.098281
     56          1           0       13.440031   -0.296632    1.237313
     57          1           0       -9.318138   -1.106394    0.156456
     58          1           0       13.893079   -0.774978   -1.173157
     59          1           0       13.240556    0.698637   -1.670341
     60          1           0        9.199228    2.000872    1.357525
     61          1           0        9.906034    2.593291    0.162950
     62          1           0       10.535036    3.138666    1.347103
     63          1           0       11.596145   -0.353578    2.503308
     64          1           0        9.888024   -0.035920    2.435729
     65          1           0       11.161649    1.290864    3.160845
     66          1           0      -10.440310    0.455886   -2.415509
     67          1           0      -11.837491    1.431940   -2.305907
     68          1           0      -11.666075   -0.076622   -3.340020
     69          1           0      -14.646831   -1.949148   -0.476566
     70          1           0        8.422163    0.150283    0.550796
     71          1           0       -8.889478    1.913766    0.048266
     72          1           0       12.036394   -2.473565   -1.457743
     73          1           0       10.275597   -1.777044   -2.070865
     74          1           0       11.754450   -1.209499   -2.828074
     75          1           0       15.131555    1.528801    0.937022
     76          1           0        9.557480   -2.543443   -0.086240
     77          1           0       -5.736538   -0.997048   -0.124895
     78          1           0       -6.733669   -1.294058    1.317804
     79          1           0       -7.229152   -1.430230   -0.614892
     80          1           0       -6.558567    2.319590   -0.555559
     81          1           0        7.211888   -3.965743    1.319136
     82          1           0        6.339104   -3.966532   -0.210469
     83          1           0        8.199952   -4.189794   -0.033075
     84          1           0        6.744187   -0.156231   -0.525905
     85          1           0       -4.271657    0.338760    0.039310
     86          1           0        4.636546   -2.606980    0.159459
     87          1           0       -4.464515    3.328477   -1.019017
     88          1           0        4.344801    0.096808   -0.895866
     89          1           0       -1.717604    3.885110   -2.390636
     90          1           0       -0.905628    3.906579   -0.457361
     91          1           0       -2.533557    4.585315   -0.942313
     92          1           0       -2.202677    0.410435   -0.483327
     93          1           0        2.184203    1.134544   -0.831192
     94          1           0        2.154447   -2.443253    1.107050
     95          1           0        1.176051   -2.648081   -0.310871
     96          1           0        2.587110   -3.254348   -0.728640
     97          1           0        0.231390    2.147822   -0.899904
     98          1           0       -0.326729   -0.630393   -0.101963
 ---------------------------------------------------------------------

 SCF Done:  E(RCAM-B3LYP) =  -1706.86203097     A.U. after   15 cycles

 Excitation energies and oscillator strengths:

 Excited State   1:      Singlet-A      1.9528 eV  634.92 nm  f=2.8362  <S**2>=0.000
     155 ->158         0.13157
     156 ->157         0.70020
     156 <-157        -0.11559
 This state for optimization and/or second-order correction.
 Total Energy, E(TD-HF/TD-DFT) =  -1706.79026862
 Copying the excited state density for this state as the 1-particle RhoCI density.

 The electronic state is 1-A.
 Alpha  occ. eigenvalues --  -19.21833 -19.20696 -10.30088 -10.28335 -10.28003
 Alpha  occ. eigenvalues --  -10.27874 -10.27866 -10.27528 -10.27495 -10.27439
 Alpha  occ. eigenvalues --  -10.27396 -10.27300 -10.26857 -10.26798 -10.26764
 Alpha  occ. eigenvalues --  -10.26763 -10.26481 -10.26435 -10.26358 -10.26338
 Alpha  occ. eigenvalues --  -10.26326 -10.26294 -10.26190 -10.26103 -10.26063
 Alpha  occ. eigenvalues --  -10.25890 -10.25497 -10.25496 -10.25421 -10.25391
 Alpha  occ. eigenvalues --  -10.25162 -10.25039 -10.24963 -10.24908 -10.24877
 Alpha  occ. eigenvalues --  -10.24870 -10.24382 -10.24097 -10.23898 -10.23155
 Alpha  occ. eigenvalues --  -10.22866 -10.20944  -1.11281  -1.10048  -0.93616
 Alpha  occ. eigenvalues --   -0.93303  -0.92526  -0.91514  -0.90811  -0.89942
 Alpha  occ. eigenvalues --   -0.87780  -0.86825  -0.86537  -0.85270  -0.84763
 Alpha  occ. eigenvalues --   -0.83509  -0.81989  -0.81038  -0.80512  -0.79007
 Alpha  occ. eigenvalues --   -0.77681  -0.77250  -0.76123  -0.75965  -0.75824
 Alpha  occ. eigenvalues --   -0.74795  -0.74742  -0.73782  -0.72827  -0.70222
 Alpha  occ. eigenvalues --   -0.68956  -0.68185  -0.66395  -0.64978  -0.64070
 Alpha  occ. eigenvalues --   -0.63532  -0.62308  -0.61602  -0.61530  -0.60339
 Alpha  occ. eigenvalues --   -0.59857  -0.59705  -0.58866  -0.58218  -0.56690
 Alpha  occ. eigenvalues --   -0.56449  -0.55180  -0.54634  -0.54411  -0.53904
 Alpha  occ. eigenvalues --   -0.53721  -0.52900  -0.52558  -0.52296  -0.51516
 Alpha  occ. eigenvalues --   -0.50950  -0.50722  -0.50481  -0.49736  -0.49360
 Alpha  occ. eigenvalues --   -0.48828  -0.48672  -0.48250  -0.47852  -0.47693
 Alpha  occ. eigenvalues --   -0.47520  -0.47380  -0.47121  -0.46743  -0.46536
 Alpha  occ. eigenvalues --   -0.46323  -0.46112  -0.45765  -0.45377  -0.45196
 Alpha  occ. eigenvalues --   -0.44444  -0.44428  -0.44296  -0.43860  -0.43080
 Alpha  occ. eigenvalues --   -0.42993  -0.42319  -0.42179  -0.41754  -0.41578
 Alpha  occ. eigenvalues --   -0.41546  -0.41377  -0.40962  -0.40787  -0.40728
 Alpha  occ. eigenvalues --   -0.40423  -0.40054  -0.39814  -0.39647  -0.39251
 Alpha  occ. eigenvalues --   -0.38950  -0.38688  -0.38357  -0.38220  -0.37674
 Alpha  occ. eigenvalues --   -0.37145  -0.36761  -0.36153  -0.35580  -0.34651
 Alpha  occ. eigenvalues --   -0.34208  -0.33639  -0.33516  -0.32819  -0.31689
 Alpha  occ. eigenvalues --   -0.31319  -0.29272  -0.28379  -0.26850  -0.23717
 Alpha  occ. eigenvalues --   -0.18714
 Alpha virt. eigenvalues --   -0.06529  -0.00787   0.02822   0.06014   0.07351
 Alpha virt. eigenvalues --    0.08802   0.11185   0.12067   0.12335   0.12795
 Alpha virt. eigenvalues --    0.12989   0.13506   0.13526   0.13654   0.13793

 Mulliken charges:
               1
     1  O   -0.542290
     2  O   -0.548356
     3  C    0.039324
     4  C   -0.137039
     5  C   -0.187910
     6  C    0.183095
     7  C    0.096109
     8  C   -0.027747
     9  C   -0.298352
    10  C   -0.323660
    11  C   -0.184342
    12  C   -0.165503
    13  C    0.183867
    14  C    0.059362
    15  C   -0.099464
    16  C   -0.220703
    17  C    0.042964
    18  C   -0.289700
    19  C   -0.298495
    20  C   -0.341981
    21  C   -0.086417
    22  C   -0.144138
    23  C   -0.339798
    24  C    0.062057
    25  C   -0.123384
    26  C   -0.352839
    27  C    0.130828
    28  C   -0.088238
    29  C   -0.389989
    30  C   -0.141844
    31  C   -0.077149
    32  C   -0.099206
    33  C   -0.119543
    34  C    0.073957
    35  C   -0.090447
    36  C    0.115456
    37  C   -0.370637
    38  C   -0.088328
    39  C   -0.142783
    40  C   -0.370366
    41  C   -0.049645
    42  C   -0.069625
    43  H    0.082424
    44  H    0.111732
    45  H    0.098453
    46  H    0.067250
    47  H    0.076534
    48  H    0.083376
    49  H    0.100477
    50  H    0.125183
    51  H    0.091958
    52  H    0.088857
    53  H    0.105655
    54  H    0.062364
    55  H    0.074615
    56  H    0.067191
    57  H    0.098857
    58  H    0.106730
    59  H    0.112733
    60  H    0.110637
    61  H    0.110389
    62  H    0.099607
    63  H    0.095960
    64  H    0.104903
    65  H    0.107973
    66  H    0.126560
    67  H    0.117873
    68  H    0.102895
    69  H    0.301387
    70  H    0.079678
    71  H    0.084718
    72  H    0.074667
    73  H    0.125188
    74  H    0.108704
    75  H    0.294905
    76  H    0.071060
    77  H    0.109435
    78  H    0.106635
    79  H    0.136199
    80  H    0.063915
    81  H    0.128297
    82  H    0.107503
    83  H    0.121224
    84  H    0.100072
    85  H    0.084394
    86  H    0.087347
    87  H    0.086542
    88  H    0.063226
    89  H    0.114867
    90  H    0.108657
    91  H    0.110906
    92  H    0.061486
    93  H    0.078736
    94  H    0.094122
    95  H    0.120884
    96  H    0.122150
    97  H    0.072792
    98  H    0.072017
 Sum of Mulliken charges =  -0.00000

 Dipole moment (field-independent basis, Debye):
    X=              0.0162    Y=              0.0593    Z=             -0.6377  Tot=              0.6406
 Quadrupole moment (field-independent basis, Debye-Ang):
   XX=           -274.4956   YY=           -241.0541   ZZ=           -263.0332
   XY=             14.8892   XZ=             35.1677   YZ=              1.5961

 Normal termination of Gaussian 16 at Mon Jul 15 00:04:54 2019.
