 Gaussian 16, Revision A.03,
 Gaussian 16:  ES64L-G16RevA.03 25-Dec-2016

 -------------------------------------
 # td=(NStates=1) CAM-B3LYP/6-31G(d,p)
 -------------------------------------

 --
 TD
 --
 Symbolic Z-matrix:
 Charge =  0 Multiplicity = 1

                         Standard orientation:
 ---------------------------------------------------------------------
 Center     Atomic      Atomic             Coordinates (Angstroms)
 Number     Number       Type             X           Y           Z
 ---------------------------------------------------------------------
      1          8           0      -14.016827   -2.015042    0.721771
      2          8           0       14.781360    1.012784    0.357111
      3          6           0      -11.621005   -0.066470    1.386758
      4          6           0      -10.909381    0.299628    0.059128
      5          6           0      -11.848513   -1.541202    1.466937
      6          6           0      -12.628749   -2.165734    0.245761
      7          6           0      -11.710756   -0.211334   -1.184982
      8          6           0       11.020299    0.940511    1.180798
      9          6           0      -10.770198    0.333526    2.546716
     10          6           0      -12.947332    0.710911    1.501076
     11          6           0       12.520633    1.472498    1.002279
     12          6           0      -12.362590   -1.389501   -1.067898
     13          6           0       13.411259    0.376570    0.451099
     14          6           0       10.584775   -0.026354    0.066097
     15          6           0       -9.418701   -0.117977   -0.094727
     16          6           0       12.995348   -0.166508   -0.938884
     17          6           0       11.544823   -0.486614   -0.883241
     18          6           0       10.079819    2.167115    1.249892
     19          6           0       10.970814    0.208213    2.527841
     20          6           0      -11.545352    0.436432   -2.527082
     21          6           0       -8.497391    0.892344   -0.142432
     22          6           0        9.226527   -0.408966    0.105745
     23          6           0       11.114247   -1.279870   -2.070492
     24          6           0       -7.091917    0.519809   -0.155939
     25          6           0        8.779986   -1.667118   -0.232096
     26          6           0       -6.775761   -0.884766   -0.057916
     27          6           0        7.369273   -2.156657   -0.151644
     28          6           0       -6.169240    1.538046   -0.321922
     29          6           0        7.148329   -3.604278    0.039481
     30          6           0        6.368831   -1.246245   -0.263172
     31          6           0       -4.746083    1.466952   -0.357199
     32          6           0        4.852786   -1.615877   -0.225943
     33          6           0       -3.943901    2.584028   -0.673541
     34          6           0       -2.526237    2.747012   -0.704867
     35          6           0        3.949174   -0.603476   -0.500306
     36          6           0        2.600191   -0.878606   -0.454867
     37          6           0       -1.944623    4.049896   -0.976375
     38          6           0       -1.734885    1.565749   -0.471606
     39          6           0        1.799068    0.272702   -0.559676
     40          6           0        2.104736   -2.312184   -0.240188
     41          6           0       -0.333243    1.533160   -0.520786
     42          6           0        0.349265    0.364417   -0.480126
     43          1           0      -10.782830    1.423774    0.033151
     44          1           0      -12.479154   -1.915086    2.340783
     45          1           0      -10.844551   -2.239069    1.329205
     46          1           0      -12.567338   -3.196800    0.141529
     47          1           0       -9.792337   -0.284560    2.521799
     48          1           0      -10.332909    1.422010    2.630308
     49          1           0      -11.490758    0.189170    3.466622
     50          1           0      -13.712759    0.341538    0.745229
     51          1           0      -13.511929    0.347865    2.324442
     52          1           0      -12.778354    1.839597    1.345220
     53          1           0       12.530156    2.277338    0.340236
     54          1           0       12.780087    1.800796    2.039991
     55          1           0      -12.829237   -1.893959   -1.951579
     56          1           0       13.462539   -0.580175    1.016113
     57          1           0       -9.054221   -1.031130   -0.258682
     58          1           0       13.397186   -1.146849   -1.178855
     59          1           0       13.233956    0.575656   -1.724862
     60          1           0        9.012510    2.039754    1.391916
     61          1           0       10.137146    2.787922    0.289287
     62          1           0       10.462197    2.819729    1.964763
     63          1           0       11.797409   -0.568517    2.752297
     64          1           0       10.028393   -0.409432    2.710106
     65          1           0       11.054249    0.839973    3.379885
     66          1           0      -10.311783    0.373299   -2.570966
     67          1           0      -11.900273    1.418737   -2.413022
     68          1           0      -12.065887   -0.111320   -3.228359
     69          1           0      -14.685234   -2.446222    0.080248
     70          1           0        8.457500    0.298078    0.376543
     71          1           0       -8.990931    1.932531   -0.082498
     72          1           0       11.372931   -2.299057   -2.012220
     73          1           0       10.016497   -1.193052   -2.271739
     74          1           0       11.738407   -1.143791   -2.843559
     75          1           0       15.086723    1.106254    1.260966
     76          1           0        9.539849   -2.487686   -0.272973
     77          1           0       -5.818888   -1.006838   -0.062551
     78          1           0       -7.076396   -1.388092    1.008439
     79          1           0       -7.139979   -1.650381   -0.808190
     80          1           0       -6.642014    2.441518   -0.639150
     81          1           0        6.756509   -3.812234    1.025810
     82          1           0        6.479363   -4.031081   -0.718043
     83          1           0        8.141046   -4.074099   -0.053619
     84          1           0        6.711162   -0.135224   -0.297665
     85          1           0       -4.253638    0.475973   -0.022550
     86          1           0        4.520979   -2.633162    0.093987
     87          1           0       -4.566564    3.555350   -0.992622
     88          1           0        4.171886    0.364436   -0.909382
     89          1           0       -1.243555    3.976186   -1.814265
     90          1           0       -1.441843    4.365505   -0.101603
     91          1           0       -2.662606    4.773884   -1.172002
     92          1           0       -2.448217    0.732016   -0.282753
     93          1           0        2.584843    1.252530   -0.630087
     94          1           0        2.300623   -2.416676    0.886043
     95          1           0        1.138602   -2.388617   -0.258328
     96          1           0        2.606969   -2.890761   -0.984597
     97          1           0        0.197698    2.337502   -0.721633
     98          1           0        0.004554   -0.615675   -0.277819
 ---------------------------------------------------------------------

 SCF Done:  E(RCAM-B3LYP) =  -1707.03876123     A.U. after   15 cycles

 Excitation energies and oscillator strengths:

 Excited State   1:      Singlet-A      2.2054 eV  562.18 nm  f=2.8857  <S**2>=0.000
     155 ->158         0.15023
     156 ->157         0.69019
 This state for optimization and/or second-order correction.
 Total Energy, E(TD-HF/TD-DFT) =  -1706.95771318
 Copying the excited state density for this state as the 1-particle RhoCI density.

 The electronic state is 1-A.
 Alpha  occ. eigenvalues --  -19.20321 -19.20167 -10.31040 -10.30032 -10.27811
 Alpha  occ. eigenvalues --  -10.27617 -10.27610 -10.27526 -10.27456 -10.27250
 Alpha  occ. eigenvalues --  -10.27071 -10.27007 -10.26974 -10.26936 -10.26626
 Alpha  occ. eigenvalues --  -10.26529 -10.26522 -10.26427 -10.26394 -10.26227
 Alpha  occ. eigenvalues --  -10.26108 -10.26081 -10.26026 -10.25990 -10.25943
 Alpha  occ. eigenvalues --  -10.25908 -10.25636 -10.25592 -10.25558 -10.25549
 Alpha  occ. eigenvalues --  -10.25376 -10.25265 -10.25256 -10.25226 -10.25052
 Alpha  occ. eigenvalues --  -10.24809 -10.24758 -10.24728 -10.24476 -10.24473
 Alpha  occ. eigenvalues --  -10.23260 -10.23143  -1.06490  -1.06127  -0.93122
 Alpha  occ. eigenvalues --   -0.92896  -0.92331  -0.91612  -0.90755  -0.89671
 Alpha  occ. eigenvalues --   -0.87458  -0.87409  -0.86593  -0.85098  -0.84784
 Alpha  occ. eigenvalues --   -0.82170  -0.81674  -0.80510  -0.80108  -0.79244
 Alpha  occ. eigenvalues --   -0.77508  -0.76727  -0.76345  -0.76049  -0.75528
 Alpha  occ. eigenvalues --   -0.75173  -0.74262  -0.73360  -0.72746  -0.70320
 Alpha  occ. eigenvalues --   -0.68269  -0.67307  -0.66461  -0.65153  -0.64008
 Alpha  occ. eigenvalues --   -0.63105  -0.62196  -0.61413  -0.60507  -0.60262
 Alpha  occ. eigenvalues --   -0.59183  -0.58233  -0.57075  -0.56245  -0.55770
 Alpha  occ. eigenvalues --   -0.55333  -0.55240  -0.54085  -0.53904  -0.53452
 Alpha  occ. eigenvalues --   -0.53221  -0.52675  -0.52362  -0.51466  -0.51392
 Alpha  occ. eigenvalues --   -0.50521  -0.50370  -0.50079  -0.49911  -0.49268
 Alpha  occ. eigenvalues --   -0.49111  -0.48871  -0.48660  -0.48311  -0.48202
 Alpha  occ. eigenvalues --   -0.47824  -0.47505  -0.47406  -0.46936  -0.46884
 Alpha  occ. eigenvalues --   -0.45852  -0.45651  -0.45264  -0.44651  -0.44420
 Alpha  occ. eigenvalues --   -0.44317  -0.44138  -0.43849  -0.43685  -0.43512
 Alpha  occ. eigenvalues --   -0.43178  -0.42895  -0.42559  -0.42490  -0.42267
 Alpha  occ. eigenvalues --   -0.41625  -0.41292  -0.40996  -0.40768  -0.40316
 Alpha  occ. eigenvalues --   -0.40038  -0.39830  -0.39494  -0.39228  -0.39129
 Alpha  occ. eigenvalues --   -0.38796  -0.38735  -0.38515  -0.38274  -0.38085
 Alpha  occ. eigenvalues --   -0.37557  -0.36730  -0.36620  -0.36470  -0.36316
 Alpha  occ. eigenvalues --   -0.34926  -0.34513  -0.33249  -0.31923  -0.31697
 Alpha  occ. eigenvalues --   -0.31230  -0.28991  -0.28563  -0.26101  -0.23157
 Alpha  occ. eigenvalues --   -0.19484
 Alpha virt. eigenvalues --   -0.05523  -0.00731   0.02536   0.05692   0.07083
 Alpha virt. eigenvalues --    0.09216   0.11073   0.11946   0.12416   0.12749
 Alpha virt. eigenvalues --    0.12783   0.13276   0.13564   0.13649   0.13899

 Mulliken charges:
               1
     1  O   -0.571097
     2  O   -0.576851
     3  C    0.043183
     4  C   -0.132376
     5  C   -0.170128
     6  C    0.140170
     7  C    0.097146
     8  C   -0.026465
     9  C   -0.274454
    10  C   -0.301891
    11  C   -0.170483
    12  C   -0.133995
    13  C    0.138265
    14  C    0.076165
    15  C   -0.065045
    16  C   -0.224949
    17  C    0.034203
    18  C   -0.316307
    19  C   -0.308528
    20  C   -0.330505
    21  C   -0.106032
    22  C   -0.101699
    23  C   -0.368641
    24  C    0.107049
    25  C   -0.133578
    26  C   -0.374984
    27  C    0.091279
    28  C   -0.116184
    29  C   -0.375895
    30  C   -0.128875
    31  C   -0.085611
    32  C   -0.148661
    33  C   -0.137863
    34  C    0.086285
    35  C   -0.080091
    36  C    0.095842
    37  C   -0.377471
    38  C   -0.093060
    39  C   -0.151918
    40  C   -0.348827
    41  C   -0.067489
    42  C   -0.076162
    43  H    0.072369
    44  H    0.114478
    45  H    0.063121
    46  H    0.086384
    47  H    0.093006
    48  H    0.080405
    49  H    0.084438
    50  H    0.117837
    51  H    0.108583
    52  H    0.084014
    53  H    0.115312
    54  H    0.087733
    55  H    0.059380
    56  H    0.091094
    57  H    0.079582
    58  H    0.115632
    59  H    0.129816
    60  H    0.107831
    61  H    0.093382
    62  H    0.106224
    63  H    0.085504
    64  H    0.101775
    65  H    0.101445
    66  H    0.101201
    67  H    0.123164
    68  H    0.116065
    69  H    0.293375
    70  H    0.088368
    71  H    0.085920
    72  H    0.108638
    73  H    0.128724
    74  H    0.105634
    75  H    0.301643
    76  H    0.086486
    77  H    0.108227
    78  H    0.096130
    79  H    0.124008
    80  H    0.083707
    81  H    0.130454
    82  H    0.122697
    83  H    0.104976
    84  H    0.076189
    85  H    0.091413
    86  H    0.104414
    87  H    0.071235
    88  H    0.097209
    89  H    0.126082
    90  H    0.135836
    91  H    0.115168
    92  H    0.072183
    93  H    0.053521
    94  H    0.125369
    95  H    0.113477
    96  H    0.133717
    97  H    0.081580
    98  H    0.080369
 Sum of Mulliken charges =  -0.00000

 Dipole moment (field-independent basis, Debye):
    X=              0.4836    Y=             -1.7061    Z=             -0.3678  Tot=              1.8110
 Quadrupole moment (field-independent basis, Debye-Ang):
   XX=           -290.4468   YY=           -239.8575   ZZ=           -263.6381
   XY=              0.2728   XZ=             39.6127   YZ=              2.5432

 Normal termination of Gaussian 16 at Tue Jul 16 14:52:20 2019.
