 Gaussian 16, Revision A.03,
 Gaussian 16:  ES64L-G16RevA.03 25-Dec-2016

 -------------------------------------
 # td=(NStates=1) CAM-B3LYP/6-31G(d,p)
 -------------------------------------

 --
 TD
 --
 Symbolic Z-matrix:
 Charge =  0 Multiplicity = 1

                         Standard orientation:
 ---------------------------------------------------------------------
 Center     Atomic      Atomic             Coordinates (Angstroms)
 Number     Number       Type             X           Y           Z
 ---------------------------------------------------------------------
      1          8           0      -14.218902   -1.878844    0.507622
      2          8           0       14.664333    1.046590    0.196761
      3          6           0      -11.811018    0.222797    1.281267
      4          6           0      -11.021732    0.373729   -0.051939
      5          6           0      -11.994847   -1.288256    1.502684
      6          6           0      -12.745068   -2.027414    0.359256
      7          6           0      -11.552894   -0.385600   -1.235621
      8          6           0       11.078496    1.003325    1.098074
      9          6           0      -11.069599    0.693554    2.477731
     10          6           0      -13.101758    0.990152    1.144019
     11          6           0       12.406687    1.620839    0.722279
     12          6           0      -12.335027   -1.487762   -1.032030
     13          6           0       13.376642    0.529000    0.416479
     14          6           0       10.676867    0.010462    0.070162
     15          6           0       -9.513468   -0.028275    0.052565
     16          6           0       12.984759   -0.015144   -0.905067
     17          6           0       11.522240   -0.447842   -0.942031
     18          6           0       10.162952    2.248964    1.183225
     19          6           0       11.031608    0.413953    2.537091
     20          6           0      -11.197482    0.117196   -2.562139
     21          6           0       -8.413434    0.772801   -0.195997
     22          6           0        9.284421   -0.513985    0.186925
     23          6           0       11.112904   -1.248168   -2.126909
     24          6           0       -7.049106    0.372367   -0.054600
     25          6           0        8.832563   -1.720366   -0.056307
     26          6           0       -6.603706   -1.008949    0.278100
     27          6           0        7.465678   -2.190703   -0.041302
     28          6           0       -6.097630    1.395016   -0.373851
     29          6           0        7.268546   -3.667118    0.186974
     30          6           0        6.381154   -1.362390   -0.204101
     31          6           0       -4.744857    1.310989   -0.219609
     32          6           0        5.020105   -1.673661   -0.110430
     33          6           0       -3.950857    2.357555   -0.592355
     34          6           0       -2.604842    2.562267   -0.722625
     35          6           0        4.044713   -0.751461   -0.283377
     36          6           0        2.640246   -0.878728   -0.251658
     37          6           0       -1.998562    3.851738   -1.262458
     38          6           0       -1.772370    1.432115   -0.385882
     39          6           0        1.825572    0.183035   -0.657754
     40          6           0        2.058171   -2.300043    0.074544
     41          6           0       -0.355161    1.369122   -0.649792
     42          6           0        0.425338    0.252686   -0.333570
     43          1           0      -11.105535    1.399980   -0.234526
     44          1           0      -12.727875   -1.401242    2.484028
     45          1           0      -11.064671   -1.794569    1.599976
     46          1           0      -12.412149   -2.961447    0.526626
     47          1           0      -10.015239    0.213059    2.678386
     48          1           0      -10.734115    1.817211    2.599639
     49          1           0      -11.588729    0.329960    3.381045
     50          1           0      -13.764251    0.637137    0.294729
     51          1           0      -13.703061    0.894591    2.136206
     52          1           0      -12.822696    1.972199    1.066597
     53          1           0       12.507775    2.211317   -0.305525
     54          1           0       12.919101    2.146400    1.561435
     55          1           0      -12.719528   -2.068273   -2.022266
     56          1           0       13.413447   -0.040152    1.174075
     57          1           0       -9.162063   -1.056518    0.048214
     58          1           0       13.721397   -1.113102   -1.198068
     59          1           0       13.221420    0.656124   -1.791987
     60          1           0        9.081371    2.071240    1.560090
     61          1           0       10.023290    2.660280    0.178010
     62          1           0       10.504439    2.982883    1.859447
     63          1           0       11.683904   -0.416282    2.491759
     64          1           0       10.078354   -0.045108    2.724157
     65          1           0       11.123053    1.115294    3.407781
     66          1           0      -10.152177   -0.128634   -2.985573
     67          1           0      -11.558456    1.265229   -2.641579
     68          1           0      -11.797348   -0.321433   -3.414195
     69          1           0      -14.584441   -2.167393   -0.319499
     70          1           0        8.486047    0.154336    0.744617
     71          1           0       -8.565907    1.838858   -0.286817
     72          1           0       11.116565   -2.307755   -2.114798
     73          1           0        9.980024   -1.331326   -2.174711
     74          1           0       11.647763   -0.922131   -3.041288
     75          1           0       14.913306    1.606908    0.885154
     76          1           0        9.617120   -2.600906   -0.472540
     77          1           0       -5.517548   -1.059936    0.454355
     78          1           0       -6.721957   -1.412850    1.353483
     79          1           0       -7.049016   -1.683965   -0.318086
     80          1           0       -6.555792    2.311487   -0.589240
     81          1           0        7.102409   -3.705160    1.333163
     82          1           0        6.312368   -3.862744   -0.164283
     83          1           0        8.284151   -4.200412   -0.269999
     84          1           0        6.402682   -0.280548   -0.566770
     85          1           0       -4.202836    0.339477   -0.014705
     86          1           0        4.651696   -2.700222   -0.023582
     87          1           0       -4.553373    3.192052   -0.857616
     88          1           0        4.149854    0.325445   -0.534036
     89          1           0       -1.450195    3.479553   -2.295766
     90          1           0       -1.284218    4.379166   -0.575870
     91          1           0       -2.921547    4.408047   -1.568703
     92          1           0       -2.295142    0.729486   -0.023464
     93          1           0        2.418711    1.202948   -0.773311
     94          1           0        2.104647   -2.441182    1.162589
     95          1           0        1.000845   -2.514902   -0.298491
     96          1           0        2.699398   -3.154856   -0.408651
     97          1           0        0.211515    2.232154   -0.920757
     98          1           0        0.092299   -0.748523   -0.053739
 ---------------------------------------------------------------------

 SCF Done:  E(RCAM-B3LYP) =  -1706.98398497     A.U. after   15 cycles

 Excitation energies and oscillator strengths:

 Excited State   1:      Singlet-A      2.0045 eV  618.54 nm  f=3.0000  <S**2>=0.000
     155 ->158        -0.13636
     156 ->157         0.69687
     156 <-157        -0.10063
 This state for optimization and/or second-order correction.
 Total Energy, E(TD-HF/TD-DFT) =  -1706.91032182
 Copying the excited state density for this state as the 1-particle RhoCI density.

 The electronic state is 1-A.
 Alpha  occ. eigenvalues --  -19.20688 -19.19931 -10.30326 -10.27951 -10.27926
 Alpha  occ. eigenvalues --  -10.27828 -10.27642 -10.27578 -10.27551 -10.27368
 Alpha  occ. eigenvalues --  -10.27354 -10.27325 -10.27276 -10.27216 -10.27098
 Alpha  occ. eigenvalues --  -10.27038 -10.26994 -10.26969 -10.26923 -10.26865
 Alpha  occ. eigenvalues --  -10.26826 -10.26717 -10.26606 -10.26328 -10.26312
 Alpha  occ. eigenvalues --  -10.26141 -10.26086 -10.26069 -10.26051 -10.26026
 Alpha  occ. eigenvalues --  -10.25626 -10.25590 -10.25582 -10.25555 -10.25309
 Alpha  occ. eigenvalues --  -10.25182 -10.25157 -10.25146 -10.24978 -10.24631
 Alpha  occ. eigenvalues --  -10.24540 -10.23414  -1.10569  -1.07569  -0.94456
 Alpha  occ. eigenvalues --   -0.93607  -0.92445  -0.92116  -0.90601  -0.89956
 Alpha  occ. eigenvalues --   -0.87436  -0.87124  -0.86888  -0.85735  -0.84630
 Alpha  occ. eigenvalues --   -0.83163  -0.82486  -0.80923  -0.80514  -0.77910
 Alpha  occ. eigenvalues --   -0.77207  -0.76722  -0.76544  -0.76027  -0.75892
 Alpha  occ. eigenvalues --   -0.75251  -0.74988  -0.73726  -0.73043  -0.70672
 Alpha  occ. eigenvalues --   -0.69364  -0.67771  -0.67271  -0.65209  -0.64816
 Alpha  occ. eigenvalues --   -0.63194  -0.62191  -0.61957  -0.60748  -0.60465
 Alpha  occ. eigenvalues --   -0.59932  -0.59291  -0.57843  -0.57551  -0.56680
 Alpha  occ. eigenvalues --   -0.56130  -0.55336  -0.54434  -0.54203  -0.53961
 Alpha  occ. eigenvalues --   -0.53512  -0.52810  -0.52684  -0.52021  -0.50878
 Alpha  occ. eigenvalues --   -0.50367  -0.50246  -0.50012  -0.49402  -0.49200
 Alpha  occ. eigenvalues --   -0.48887  -0.48400  -0.48184  -0.48079  -0.47837
 Alpha  occ. eigenvalues --   -0.47814  -0.47510  -0.47283  -0.46980  -0.46483
 Alpha  occ. eigenvalues --   -0.46083  -0.45684  -0.45106  -0.44887  -0.44512
 Alpha  occ. eigenvalues --   -0.44357  -0.43763  -0.43688  -0.43385  -0.43184
 Alpha  occ. eigenvalues --   -0.42954  -0.42490  -0.42211  -0.42015  -0.41649
 Alpha  occ. eigenvalues --   -0.41583  -0.41436  -0.41407  -0.41035  -0.40551
 Alpha  occ. eigenvalues --   -0.40448  -0.40151  -0.39728  -0.39441  -0.39267
 Alpha  occ. eigenvalues --   -0.39064  -0.38925  -0.38611  -0.38335  -0.38028
 Alpha  occ. eigenvalues --   -0.37467  -0.37093  -0.37060  -0.36161  -0.36031
 Alpha  occ. eigenvalues --   -0.35936  -0.35049  -0.34164  -0.32405  -0.32063
 Alpha  occ. eigenvalues --   -0.31680  -0.29568  -0.28797  -0.26859  -0.23470
 Alpha  occ. eigenvalues --   -0.18948
 Alpha virt. eigenvalues --   -0.06310  -0.01371   0.02573   0.04907   0.06589
 Alpha virt. eigenvalues --    0.08559   0.11003   0.11309   0.12225   0.12443
 Alpha virt. eigenvalues --    0.12768   0.13128   0.13230   0.14183   0.14203

 Mulliken charges:
               1
     1  O   -0.554540
     2  O   -0.562676
     3  C    0.034126
     4  C   -0.124260
     5  C   -0.190947
     6  C    0.152510
     7  C    0.144276
     8  C   -0.022706
     9  C   -0.304191
    10  C   -0.283933
    11  C   -0.194008
    12  C   -0.168909
    13  C    0.202340
    14  C    0.058932
    15  C   -0.095088
    16  C   -0.210246
    17  C    0.086344
    18  C   -0.295960
    19  C   -0.310530
    20  C   -0.361047
    21  C   -0.103543
    22  C   -0.113715
    23  C   -0.382647
    24  C    0.106963
    25  C   -0.096846
    26  C   -0.377507
    27  C    0.052482
    28  C   -0.121723
    29  C   -0.341871
    30  C   -0.105199
    31  C   -0.055369
    32  C   -0.085468
    33  C   -0.130428
    34  C    0.082616
    35  C   -0.104333
    36  C    0.108756
    37  C   -0.360239
    38  C   -0.061214
    39  C   -0.150882
    40  C   -0.379871
    41  C   -0.097666
    42  C   -0.071778
    43  H    0.088502
    44  H    0.088569
    45  H    0.104582
    46  H    0.100412
    47  H    0.091842
    48  H    0.081839
    49  H    0.101498
    50  H    0.116660
    51  H    0.087754
    52  H    0.100261
    53  H    0.096985
    54  H    0.068256
    55  H    0.062019
    56  H    0.086002
    57  H    0.073766
    58  H    0.052605
    59  H    0.123456
    60  H    0.076620
    61  H    0.103337
    62  H    0.108990
    63  H    0.106804
    64  H    0.116874
    65  H    0.101427
    66  H    0.126186
    67  H    0.097428
    68  H    0.106201
    69  H    0.303577
    70  H    0.088449
    71  H    0.075063
    72  H    0.126117
    73  H    0.117212
    74  H    0.110897
    75  H    0.289221
    76  H    0.056026
    77  H    0.109726
    78  H    0.103988
    79  H    0.133477
    80  H    0.081562
    81  H    0.122807
    82  H    0.124006
    83  H    0.100434
    84  H    0.088327
    85  H    0.086312
    86  H    0.077640
    87  H    0.063538
    88  H    0.070446
    89  H    0.109090
    90  H    0.132838
    91  H    0.109364
    92  H    0.047614
    93  H    0.070830
    94  H    0.131499
    95  H    0.112023
    96  H    0.105835
    97  H    0.089646
    98  H    0.083560
 Sum of Mulliken charges =  -0.00000

 Dipole moment (field-independent basis, Debye):
    X=              0.8610    Y=             -0.5185    Z=             -0.0803  Tot=              1.0082
 Quadrupole moment (field-independent basis, Debye-Ang):
   XX=           -304.0782   YY=           -244.9581   ZZ=           -259.3643
   XY=              8.4911   XZ=             38.4964   YZ=              2.6249

 Normal termination of Gaussian 16 at Tue Jul 16 13:17:49 2019.
