 Gaussian 16, Revision A.03,
 Gaussian 16:  ES64L-G16RevA.03 25-Dec-2016

 -------------------------------------
 # td=(NStates=1) CAM-B3LYP/6-31G(d,p)
 -------------------------------------

 --
 TD
 --
 Symbolic Z-matrix:
 Charge =  0 Multiplicity = 1

                         Standard orientation:
 ---------------------------------------------------------------------
 Center     Atomic      Atomic             Coordinates (Angstroms)
 Number     Number       Type             X           Y           Z
 ---------------------------------------------------------------------
      1          8           0      -14.033896   -2.122197    0.815451
      2          8           0       14.797591    0.937118    0.317434
      3          6           0      -11.646404    0.041360    1.335447
      4          6           0      -11.092934    0.291479   -0.018745
      5          6           0      -11.869857   -1.440578    1.567782
      6          6           0      -12.594840   -2.151616    0.449666
      7          6           0      -11.648720   -0.474784   -1.137306
      8          6           0       11.067216    0.923477    1.224923
      9          6           0      -10.956759    0.664438    2.500594
     10          6           0      -12.961736    0.738270    1.303141
     11          6           0       12.543772    1.472274    0.932377
     12          6           0      -12.426225   -1.540254   -0.923532
     13          6           0       13.541700    0.382396    0.557062
     14          6           0       10.685693   -0.079258    0.085387
     15          6           0       -9.539551    0.057121    0.082014
     16          6           0       12.969456   -0.251107   -0.780144
     17          6           0       11.537590   -0.540506   -0.835140
     18          6           0       10.138100    2.129636    1.171050
     19          6           0       11.014097    0.096090    2.383208
     20          6           0      -11.563539    0.047147   -2.492041
     21          6           0       -8.541639    0.816373   -0.277899
     22          6           0        9.277475   -0.442083    0.095814
     23          6           0       11.291781   -1.231403   -2.045195
     24          6           0       -7.113656    0.550548   -0.245793
     25          6           0        8.734072   -1.657886   -0.303654
     26          6           0       -6.795181   -0.927104   -0.066080
     27          6           0        7.401901   -2.107056   -0.138492
     28          6           0       -6.163296    1.541383   -0.523509
     29          6           0        7.081683   -3.560787   -0.062174
     30          6           0        6.346538   -1.177164   -0.183725
     31          6           0       -4.808845    1.539153   -0.486661
     32          6           0        5.002119   -1.452008   -0.119424
     33          6           0       -3.931757    2.663320   -0.759433
     34          6           0       -2.606402    2.693908   -0.801181
     35          6           0        4.006338   -0.564449   -0.310204
     36          6           0        2.565820   -0.739567   -0.343058
     37          6           0       -1.787523    3.956310   -0.886176
     38          6           0       -1.832243    1.505206   -0.589421
     39          6           0        1.758076    0.328268   -0.567034
     40          6           0        2.067211   -2.203903   -0.165831
     41          6           0       -0.412724    1.479452   -0.579554
     42          6           0        0.351985    0.316397   -0.451246
     43          1           0      -11.238694    1.444603   -0.162553
     44          1           0      -12.495854   -1.915407    2.420679
     45          1           0      -10.834104   -1.883498    1.767687
     46          1           0      -12.281532   -3.140721    0.495167
     47          1           0       -9.877401    0.454836    2.495263
     48          1           0      -11.014044    1.785381    2.447007
     49          1           0      -11.464768    0.461915    3.426877
     50          1           0      -13.700672    0.329181    0.659936
     51          1           0      -13.454753    0.750354    2.494618
     52          1           0      -12.996539    1.784283    1.027080
     53          1           0       12.354275    2.337051    0.101734
     54          1           0       13.066708    2.089356    1.604326
     55          1           0      -12.909940   -2.130482   -1.722812
     56          1           0       13.497171   -0.406672    1.471510
     57          1           0       -9.333621   -0.979451    0.295999
     58          1           0       13.562032   -1.205632   -0.916488
     59          1           0       13.358522    0.541135   -1.576984
     60          1           0        9.127192    1.956948    1.599307
     61          1           0        9.944956    2.497725    0.194264
     62          1           0       10.620265    2.804461    1.902758
     63          1           0       11.545261   -0.775260    2.505322
     64          1           0       10.046460   -0.144621    2.623122
     65          1           0       11.480958    0.584322    3.300752
     66          1           0      -10.551789    0.295182   -2.569047
     67          1           0      -11.911113    1.019072   -2.654240
     68          1           0      -11.805254   -0.653615   -3.373159
     69          1           0      -14.387738   -2.446561    0.020852
     70          1           0        8.644026    0.483500    0.685678
     71          1           0       -8.932893    1.938111   -0.554702
     72          1           0       11.270110   -2.204329   -1.793533
     73          1           0       10.198081   -1.080076   -2.362314
     74          1           0       12.131653   -1.228322   -2.760164
     75          1           0       15.375244    0.886380    1.234958
     76          1           0        9.481825   -2.345573   -0.419627
     77          1           0       -5.611406   -0.925708    0.198719
     78          1           0       -7.398272   -1.691397    0.678737
     79          1           0       -6.892941   -1.614237   -0.948388
     80          1           0       -6.576783    2.678880   -0.818306
     81          1           0        7.133537   -3.894828    1.008200
     82          1           0        5.983289   -3.832019   -0.640222
     83          1           0        7.959805   -4.119880   -0.689858
     84          1           0        6.578887   -0.170236   -0.409593
     85          1           0       -4.214030    0.582997   -0.137550
     86          1           0        4.656473   -2.493797    0.098908
     87          1           0       -4.451153    3.785266   -0.829651
     88          1           0        4.235137    0.355924   -0.377531
     89          1           0       -1.066241    3.794757   -1.567537
     90          1           0       -1.438122    4.337843   -0.015534
     91          1           0       -2.405347    4.809762   -1.292697
     92          1           0       -2.253453    0.512419   -0.193401
     93          1           0        2.419328    1.277072   -0.775887
     94          1           0        2.355533   -2.665969    0.726665
     95          1           0        1.036353   -2.453495   -0.283392
     96          1           0        2.640308   -2.755956   -0.986124
     97          1           0        0.233085    2.451677   -0.738266
     98          1           0       -0.080333   -0.546966   -0.554537
 ---------------------------------------------------------------------

 SCF Done:  E(RCAM-B3LYP) =  -1706.92640350     A.U. after   16 cycles

 Excitation energies and oscillator strengths:

 Excited State   1:      Singlet-A      1.8427 eV  672.84 nm  f=2.9619  <S**2>=0.000
     155 ->158        -0.14355
     156 ->157         0.69935
     156 <-157        -0.11794
 This state for optimization and/or second-order correction.
 Total Energy, E(TD-HF/TD-DFT) =  -1706.85868509
 Copying the excited state density for this state as the 1-particle RhoCI density.

 The electronic state is 1-A.
 Alpha  occ. eigenvalues --  -19.22975 -19.20146 -10.31540 -10.29507 -10.28498
 Alpha  occ. eigenvalues --  -10.28483 -10.28091 -10.27776 -10.27776 -10.27703
 Alpha  occ. eigenvalues --  -10.27532 -10.27483 -10.27418 -10.27372 -10.27300
 Alpha  occ. eigenvalues --  -10.27281 -10.27231 -10.27106 -10.26784 -10.26605
 Alpha  occ. eigenvalues --  -10.26411 -10.26095 -10.25684 -10.25637 -10.25587
 Alpha  occ. eigenvalues --  -10.25586 -10.25573 -10.25422 -10.25328 -10.25234
 Alpha  occ. eigenvalues --  -10.25203 -10.25198 -10.25022 -10.24968 -10.24931
 Alpha  occ. eigenvalues --  -10.24368 -10.24268 -10.24108 -10.24060 -10.23399
 Alpha  occ. eigenvalues --  -10.23324 -10.22995  -1.09167  -1.08593  -0.95140
 Alpha  occ. eigenvalues --   -0.94458  -0.92332  -0.91814  -0.90472  -0.89924
 Alpha  occ. eigenvalues --   -0.89170  -0.88212  -0.87271  -0.85525  -0.84382
 Alpha  occ. eigenvalues --   -0.83095  -0.82507  -0.80607  -0.80390  -0.78434
 Alpha  occ. eigenvalues --   -0.78332  -0.77423  -0.76773  -0.76534  -0.76113
 Alpha  occ. eigenvalues --   -0.75461  -0.74782  -0.74248  -0.72738  -0.70735
 Alpha  occ. eigenvalues --   -0.68815  -0.67684  -0.65988  -0.64837  -0.64037
 Alpha  occ. eigenvalues --   -0.63778  -0.62848  -0.62388  -0.61085  -0.59726
 Alpha  occ. eigenvalues --   -0.58780  -0.58252  -0.57213  -0.57170  -0.56338
 Alpha  occ. eigenvalues --   -0.55746  -0.55562  -0.55106  -0.54544  -0.54383
 Alpha  occ. eigenvalues --   -0.53458  -0.53387  -0.52848  -0.52205  -0.51240
 Alpha  occ. eigenvalues --   -0.50762  -0.50521  -0.50238  -0.49913  -0.49524
 Alpha  occ. eigenvalues --   -0.49164  -0.48844  -0.48530  -0.48355  -0.48187
 Alpha  occ. eigenvalues --   -0.47903  -0.47563  -0.47180  -0.47045  -0.46446
 Alpha  occ. eigenvalues --   -0.45529  -0.45340  -0.45289  -0.45156  -0.44760
 Alpha  occ. eigenvalues --   -0.44221  -0.44070  -0.43770  -0.43692  -0.43559
 Alpha  occ. eigenvalues --   -0.43253  -0.43201  -0.42422  -0.42001  -0.41821
 Alpha  occ. eigenvalues --   -0.41727  -0.41263  -0.41171  -0.40913  -0.40729
 Alpha  occ. eigenvalues --   -0.40486  -0.40115  -0.39807  -0.39552  -0.39240
 Alpha  occ. eigenvalues --   -0.39101  -0.38481  -0.38203  -0.37845  -0.37584
 Alpha  occ. eigenvalues --   -0.37179  -0.36956  -0.36279  -0.35912  -0.35640
 Alpha  occ. eigenvalues --   -0.35073  -0.34993  -0.34584  -0.32291  -0.32156
 Alpha  occ. eigenvalues --   -0.31247  -0.29650  -0.29306  -0.27304  -0.22768
 Alpha  occ. eigenvalues --   -0.18640
 Alpha virt. eigenvalues --   -0.06933  -0.01947   0.03255   0.05545   0.07217
 Alpha virt. eigenvalues --    0.08782   0.09523   0.11090   0.12116   0.12535
 Alpha virt. eigenvalues --    0.12549   0.13017   0.13319   0.13511   0.13630

 Mulliken charges:
               1
     1  O   -0.539744
     2  O   -0.555344
     3  C    0.031899
     4  C   -0.160315
     5  C   -0.182082
     6  C    0.112075
     7  C    0.163312
     8  C   -0.008562
     9  C   -0.299255
    10  C   -0.281146
    11  C   -0.166021
    12  C   -0.147885
    13  C    0.155979
    14  C    0.048843
    15  C   -0.084055
    16  C   -0.245083
    17  C    0.101500
    18  C   -0.321217
    19  C   -0.287229
    20  C   -0.367878
    21  C   -0.080746
    22  C   -0.090561
    23  C   -0.387855
    24  C    0.099236
    25  C   -0.140989
    26  C   -0.367351
    27  C    0.098418
    28  C   -0.105606
    29  C   -0.359706
    30  C   -0.102595
    31  C   -0.070131
    32  C   -0.069486
    33  C   -0.135315
    34  C    0.095128
    35  C   -0.098292
    36  C    0.125586
    37  C   -0.362911
    38  C   -0.120054
    39  C   -0.145453
    40  C   -0.385259
    41  C   -0.086919
    42  C   -0.074373
    43  H    0.088450
    44  H    0.118353
    45  H    0.078064
    46  H    0.096093
    47  H    0.100521
    48  H    0.089683
    49  H    0.113200
    50  H    0.121955
    51  H    0.045662
    52  H    0.088431
    53  H    0.070419
    54  H    0.079959
    55  H    0.075532
    56  H    0.056517
    57  H    0.077411
    58  H    0.094839
    59  H    0.115627
    60  H    0.099769
    61  H    0.127930
    62  H    0.107620
    63  H    0.116284
    64  H    0.113897
    65  H    0.070449
    66  H    0.122183
    67  H    0.124597
    68  H    0.106021
    69  H    0.295194
    70  H    0.064522
    71  H    0.054024
    72  H    0.136573
    73  H    0.119888
    74  H    0.117042
    75  H    0.317705
    76  H    0.082522
    77  H    0.086282
    78  H    0.101152
    79  H    0.130275
    80  H    0.075293
    81  H    0.130992
    82  H    0.098196
    83  H    0.092379
    84  H    0.079090
    85  H    0.079778
    86  H    0.071214
    87  H    0.065545
    88  H    0.048700
    89  H    0.134510
    90  H    0.140951
    91  H    0.092479
    92  H    0.089692
    93  H    0.076122
    94  H    0.130516
    95  H    0.112211
    96  H    0.113241
    97  H    0.081256
    98  H    0.080628
 Sum of Mulliken charges =  -0.00000

 Dipole moment (field-independent basis, Debye):
    X=              3.9428    Y=             -1.5421    Z=             -0.1552  Tot=              4.2365
 Quadrupole moment (field-independent basis, Debye-Ang):
   XX=           -265.3151   YY=           -243.9650   ZZ=           -263.1778
   XY=             -4.9234   XZ=             48.4905   YZ=              2.3589

 Normal termination of Gaussian 16 at Sun Jul 14 00:58:35 2019.
