 Gaussian 16, Revision A.03,
 Gaussian 16:  ES64L-G16RevA.03 25-Dec-2016

 -------------------------------------
 # td=(NStates=1) CAM-B3LYP/6-31G(d,p)
 -------------------------------------

 --
 TD
 --
 Symbolic Z-matrix:
 Charge =  0 Multiplicity = 1

                         Standard orientation:
 ---------------------------------------------------------------------
 Center     Atomic      Atomic             Coordinates (Angstroms)
 Number     Number       Type             X           Y           Z
 ---------------------------------------------------------------------
      1          8           0      -14.064345   -2.117734    0.401176
      2          8           0       14.823608    1.033338    0.226483
      3          6           0      -11.819758    0.023648    1.225781
      4          6           0      -10.958306    0.306747   -0.125990
      5          6           0      -11.964358   -1.492378    1.338806
      6          6           0      -12.674757   -2.158300    0.146453
      7          6           0      -11.625763   -0.274364   -1.211030
      8          6           0       11.174324    0.960379    0.986379
      9          6           0      -11.158032    0.423442    2.483815
     10          6           0      -13.186788    0.803681    1.159745
     11          6           0       12.538000    1.539085    0.720293
     12          6           0      -12.308155   -1.447028   -1.161180
     13          6           0       13.561962    0.468582    0.396283
     14          6           0       10.700840   -0.051119   -0.051106
     15          6           0       -9.584054   -0.047082    0.076799
     16          6           0       13.086891   -0.096274   -0.906616
     17          6           0       11.568697   -0.470214   -0.894927
     18          6           0       10.132078    2.191420    0.921956
     19          6           0       11.003539    0.462096    2.394978
     20          6           0      -11.312798    0.396389   -2.566907
     21          6           0       -8.607172    0.788166   -0.106523
     22          6           0        9.286624   -0.493389   -0.032285
     23          6           0       11.315475   -1.334543   -2.173710
     24          6           0       -7.151306    0.577228   -0.060424
     25          6           0        8.802595   -1.751293   -0.184055
     26          6           0       -6.677872   -0.876523    0.275910
     27          6           0        7.429479   -2.127351   -0.102839
     28          6           0       -6.206875    1.511715   -0.339643
     29          6           0        7.101011   -3.640661    0.183459
     30          6           0        6.358851   -1.219545   -0.252740
     31          6           0       -4.763169    1.409646   -0.296264
     32          6           0        4.952475   -1.583010   -0.027577
     33          6           0       -4.056647    2.544581   -0.661862
     34          6           0       -2.583739    2.623722   -0.590657
     35          6           0        4.014789   -0.630517   -0.081449
     36          6           0        2.651494   -0.857080   -0.075062
     37          6           0       -1.998454    3.937981   -0.945622
     38          6           0       -1.807421    1.436053   -0.394421
     39          6           0        1.765851    0.210976   -0.189883
     40          6           0        2.183409   -2.287787   -0.011734
     41          6           0       -0.434431    1.475463   -0.432486
     42          6           0        0.365901    0.237931   -0.216491
     43          1           0      -10.920415    1.484522   -0.216810
     44          1           0      -12.343365   -1.691031    2.398156
     45          1           0      -11.087570   -2.066346    1.754619
     46          1           0      -12.373895   -3.203177    0.054576
     47          1           0      -10.215393    0.098107    2.446455
     48          1           0      -11.143035    1.578725    2.623115
     49          1           0      -11.847074    0.065877    3.218208
     50          1           0      -13.801051    0.453677    0.374966
     51          1           0      -13.589857    0.667342    2.194115
     52          1           0      -12.991255    1.934225    1.081279
     53          1           0       12.444462    2.342727   -0.034349
     54          1           0       12.850308    2.041181    1.756292
     55          1           0      -12.682300   -1.928193   -2.027488
     56          1           0       13.545198   -0.350702    1.255468
     57          1           0       -9.281944   -1.148509    0.317724
     58          1           0       13.529947   -1.170128   -1.132753
     59          1           0       13.198042    0.621344   -1.701557
     60          1           0        9.277417    1.894018    1.634329
     61          1           0        9.894449    2.490856   -0.108600
     62          1           0       10.450238    3.147821    1.250808
     63          1           0       11.888614   -0.319138    2.746235
     64          1           0       10.018013   -0.062510    2.215765
     65          1           0       10.983704    1.186729    3.189493
     66          1           0      -10.216538    0.283040   -2.736566
     67          1           0      -11.296925    1.550464   -2.596915
     68          1           0      -11.944481   -0.019531   -3.428358
     69          1           0      -14.499683   -1.622347   -0.659212
     70          1           0        8.722218    0.214998    0.241566
     71          1           0       -8.871006    1.791619   -0.127491
     72          1           0       11.824171   -2.370531   -2.094504
     73          1           0       10.229434   -1.567828   -2.287910
     74          1           0       12.005083   -0.981700   -3.011028
     75          1           0       15.155373    0.941304    1.219220
     76          1           0        9.622474   -2.536610   -0.130675
     77          1           0       -5.649089   -0.981434    0.283718
     78          1           0       -7.033462   -1.095215    1.413571
     79          1           0       -7.089387   -1.759013   -0.392627
     80          1           0       -6.515777    2.549801   -0.485769
     81          1           0        7.122393   -3.796089    1.240773
     82          1           0        6.208977   -3.860557   -0.362209
     83          1           0        7.948993   -4.159092   -0.082204
     84          1           0        6.749230   -0.164301   -0.424241
     85          1           0       -4.324283    0.369342   -0.101406
     86          1           0        4.897918   -2.636358    0.350443
     87          1           0       -4.469188    3.475382   -1.058861
     88          1           0        4.328126    0.318467   -0.258920
     89          1           0       -1.176801    3.958517   -1.584414
     90          1           0       -1.590327    4.394129    0.158177
     91          1           0       -2.879609    4.418002   -1.290284
     92          1           0       -2.361806    0.508026   -0.107042
     93          1           0        2.330224    1.086617   -0.286344
     94          1           0        2.524304   -2.956530    0.819771
     95          1           0        1.185488   -2.420765   -0.007412
     96          1           0        2.430874   -2.884011   -1.041436
     97          1           0        0.089224    2.415270   -0.614381
     98          1           0       -0.020074   -0.798160   -0.171375
 ---------------------------------------------------------------------

 SCF Done:  E(RCAM-B3LYP) =  -1706.97318410     A.U. after   16 cycles

 Excitation energies and oscillator strengths:

 Excited State   1:      Singlet-A      2.0190 eV  614.09 nm  f=2.9001  <S**2>=0.000
     155 ->158         0.13348
     156 ->157         0.69895
     156 <-157        -0.10879
 This state for optimization and/or second-order correction.
 Total Energy, E(TD-HF/TD-DFT) =  -1706.89898794
 Copying the excited state density for this state as the 1-particle RhoCI density.

 The electronic state is 1-A.
 Alpha  occ. eigenvalues --  -19.22415 -19.22110 -10.30763 -10.30512 -10.27875
 Alpha  occ. eigenvalues --  -10.27766 -10.27755 -10.27692 -10.27651 -10.27532
 Alpha  occ. eigenvalues --  -10.27451 -10.27212 -10.26995 -10.26942 -10.26881
 Alpha  occ. eigenvalues --  -10.26807 -10.26630 -10.26494 -10.26461 -10.26430
 Alpha  occ. eigenvalues --  -10.26395 -10.26335 -10.26330 -10.26325 -10.26022
 Alpha  occ. eigenvalues --  -10.25977 -10.25873 -10.25856 -10.25644 -10.25633
 Alpha  occ. eigenvalues --  -10.25581 -10.25432 -10.25157 -10.25089 -10.25075
 Alpha  occ. eigenvalues --  -10.24921 -10.24798 -10.24715 -10.24604 -10.24530
 Alpha  occ. eigenvalues --  -10.24245 -10.22978  -1.09810  -1.06392  -0.94764
 Alpha  occ. eigenvalues --   -0.94134  -0.92231  -0.91643  -0.90134  -0.89797
 Alpha  occ. eigenvalues --   -0.87833  -0.86963  -0.86419  -0.85823  -0.84671
 Alpha  occ. eigenvalues --   -0.82918  -0.81783  -0.80146  -0.80035  -0.78850
 Alpha  occ. eigenvalues --   -0.76627  -0.76453  -0.76168  -0.75797  -0.75591
 Alpha  occ. eigenvalues --   -0.75291  -0.74872  -0.74349  -0.72856  -0.70597
 Alpha  occ. eigenvalues --   -0.69300  -0.67401  -0.66350  -0.65046  -0.63673
 Alpha  occ. eigenvalues --   -0.63428  -0.62622  -0.62444  -0.61148  -0.60131
 Alpha  occ. eigenvalues --   -0.59518  -0.59174  -0.58432  -0.57469  -0.56564
 Alpha  occ. eigenvalues --   -0.55320  -0.55064  -0.54627  -0.54463  -0.53658
 Alpha  occ. eigenvalues --   -0.53301  -0.53075  -0.52384  -0.52217  -0.50897
 Alpha  occ. eigenvalues --   -0.50513  -0.50270  -0.49995  -0.49822  -0.49146
 Alpha  occ. eigenvalues --   -0.49137  -0.48537  -0.48129  -0.47997  -0.47316
 Alpha  occ. eigenvalues --   -0.47278  -0.47204  -0.47042  -0.46875  -0.46547
 Alpha  occ. eigenvalues --   -0.46381  -0.46193  -0.45981  -0.45585  -0.45395
 Alpha  occ. eigenvalues --   -0.44573  -0.44493  -0.44336  -0.43952  -0.43892
 Alpha  occ. eigenvalues --   -0.43419  -0.42998  -0.42609  -0.42263  -0.41869
 Alpha  occ. eigenvalues --   -0.41453  -0.41203  -0.41172  -0.40956  -0.40372
 Alpha  occ. eigenvalues --   -0.40256  -0.40052  -0.39626  -0.39469  -0.39154
 Alpha  occ. eigenvalues --   -0.39022  -0.38906  -0.38596  -0.38353  -0.38073
 Alpha  occ. eigenvalues --   -0.37659  -0.37617  -0.36780  -0.36400  -0.36010
 Alpha  occ. eigenvalues --   -0.35859  -0.34893  -0.33540  -0.32101  -0.31321
 Alpha  occ. eigenvalues --   -0.31081  -0.29798  -0.29328  -0.27089  -0.24159
 Alpha  occ. eigenvalues --   -0.18896
 Alpha virt. eigenvalues --   -0.06333  -0.00699   0.02338   0.03709   0.06797
 Alpha virt. eigenvalues --    0.08539   0.09498   0.09863   0.11270   0.11904
 Alpha virt. eigenvalues --    0.12732   0.12859   0.13046   0.13557   0.13907

 Mulliken charges:
               1
     1  O   -0.532204
     2  O   -0.543924
     3  C    0.005524
     4  C   -0.169405
     5  C   -0.185199
     6  C    0.191435
     7  C    0.181929
     8  C   -0.022682
     9  C   -0.292511
    10  C   -0.272397
    11  C   -0.170825
    12  C   -0.213947
    13  C    0.155055
    14  C    0.105808
    15  C   -0.045189
    16  C   -0.209896
    17  C    0.005755
    18  C   -0.328502
    19  C   -0.282491
    20  C   -0.367282
    21  C   -0.089620
    22  C   -0.080402
    23  C   -0.363995
    24  C    0.095118
    25  C   -0.118327
    26  C   -0.360054
    27  C    0.050269
    28  C   -0.131768
    29  C   -0.369648
    30  C   -0.116738
    31  C   -0.066186
    32  C   -0.094840
    33  C   -0.126676
    34  C    0.059932
    35  C   -0.101862
    36  C    0.122754
    37  C   -0.350451
    38  C   -0.075449
    39  C   -0.109556
    40  C   -0.373426
    41  C   -0.100550
    42  C   -0.105809
    43  H    0.079148
    44  H    0.087593
    45  H    0.088293
    46  H    0.082414
    47  H    0.110224
    48  H    0.075084
    49  H    0.105862
    50  H    0.099130
    51  H    0.096736
    52  H    0.082846
    53  H    0.100754
    54  H    0.059663
    55  H    0.090627
    56  H    0.064691
    57  H    0.087587
    58  H    0.090776
    59  H    0.127939
    60  H    0.093093
    61  H    0.105049
    62  H    0.106100
    63  H    0.061993
    64  H    0.102070
    65  H    0.110850
    66  H    0.129871
    67  H    0.105280
    68  H    0.103490
    69  H    0.279948
    70  H    0.069612
    71  H    0.071907
    72  H    0.095157
    73  H    0.120719
    74  H    0.110186
    75  H    0.311771
    76  H    0.091333
    77  H    0.108239
    78  H    0.096364
    79  H    0.106971
    80  H    0.077256
    81  H    0.129263
    82  H    0.126597
    83  H    0.113948
    84  H    0.078977
    85  H    0.098987
    86  H    0.099850
    87  H    0.093734
    88  H    0.080038
    89  H    0.134907
    90  H    0.098121
    91  H    0.108908
    92  H    0.081887
    93  H    0.066589
    94  H    0.115027
    95  H    0.111391
    96  H    0.096200
    97  H    0.093911
    98  H    0.083271
 Sum of Mulliken charges =  -0.00000

 Dipole moment (field-independent basis, Debye):
    X=              0.7402    Y=              0.3347    Z=             -0.0933  Tot=              0.8177
 Quadrupole moment (field-independent basis, Debye-Ang):
   XX=           -296.7714   YY=           -247.8083   ZZ=           -260.8306
   XY=            -19.0943   XZ=             42.6276   YZ=             -0.8237

 Normal termination of Gaussian 16 at Sun Jul 14 16:26:46 2019.
