 Gaussian 16, Revision A.03,
 Gaussian 16:  ES64L-G16RevA.03 25-Dec-2016

 -------------------------------------
 # td=(NStates=1) CAM-B3LYP/6-31G(d,p)
 -------------------------------------

 --
 TD
 --
 Symbolic Z-matrix:
 Charge =  0 Multiplicity = 1

                         Standard orientation:
 ---------------------------------------------------------------------
 Center     Atomic      Atomic             Coordinates (Angstroms)
 Number     Number       Type             X           Y           Z
 ---------------------------------------------------------------------
      1          8           0      -14.108191   -2.254243    0.606200
      2          8           0       14.830990    0.838085    0.703695
      3          6           0      -11.711036    0.009037    1.409161
      4          6           0      -10.898759    0.400140    0.066113
      5          6           0      -11.889298   -1.494590    1.482602
      6          6           0      -12.602556   -2.233004    0.427407
      7          6           0      -11.509976   -0.429392   -1.035923
      8          6           0       11.064129    1.020727    1.193587
      9          6           0      -11.034360    0.676884    2.581393
     10          6           0      -13.088926    0.601334    1.378060
     11          6           0       12.506217    1.391121    1.032315
     12          6           0      -12.324749   -1.545342   -0.909850
     13          6           0       13.522958    0.291342    0.700085
     14          6           0       10.657515   -0.011887    0.071514
     15          6           0       -9.536272   -0.013456    0.232928
     16          6           0       13.154380   -0.267165   -0.750960
     17          6           0       11.691976   -0.553591   -0.822218
     18          6           0       10.124483    2.236025    1.007284
     19          6           0       10.709618    0.352239    2.585726
     20          6           0      -11.351789    0.203515   -2.460337
     21          6           0       -8.449775    0.856143   -0.157424
     22          6           0        9.201417   -0.372234   -0.061788
     23          6           0       11.360074   -1.452419   -2.059981
     24          6           0       -7.067190    0.654156   -0.034128
     25          6           0        8.718657   -1.632215   -0.178824
     26          6           0       -6.652987   -0.772089    0.214383
     27          6           0        7.325673   -2.053089   -0.145732
     28          6           0       -6.142833    1.675424   -0.433084
     29          6           0        7.154258   -3.539362    0.077651
     30          6           0        6.360679   -1.104260   -0.382642
     31          6           0       -4.808313    1.527791   -0.473751
     32          6           0        4.991299   -1.478318   -0.357819
     33          6           0       -3.996725    2.649034   -0.812579
     34          6           0       -2.639745    2.612745   -0.789004
     35          6           0        3.995633   -0.507590   -0.557190
     36          6           0        2.639631   -0.803347   -0.488497
     37          6           0       -1.925923    3.952985   -1.221842
     38          6           0       -1.861259    1.540267   -0.669267
     39          6           0        1.704592    0.200933   -0.616779
     40          6           0        2.093334   -2.237684   -0.297054
     41          6           0       -0.473569    1.372538   -0.714046
     42          6           0        0.323454    0.208669   -0.491293
     43          1           0      -11.124048    1.345671   -0.031656
     44          1           0      -12.482714   -1.690858    2.383142
     45          1           0      -10.818907   -1.857620    1.533807
     46          1           0      -12.403325   -3.302129    0.262097
     47          1           0      -10.087727    0.083246    2.733706
     48          1           0      -10.708250    1.687811    2.656866
     49          1           0      -11.714257    0.787418    3.507734
     50          1           0      -13.570541    0.514453    0.389111
     51          1           0      -13.790807    0.301048    2.185176
     52          1           0      -13.056249    1.854529    1.310239
     53          1           0       12.526396    2.114094    0.277215
     54          1           0       12.638689    2.051634    1.881074
     55          1           0      -12.681542   -1.991114   -1.875854
     56          1           0       13.424775   -0.656339    1.415631
     57          1           0       -9.146859   -1.237368    0.411446
     58          1           0       13.617171   -1.118145   -0.836657
     59          1           0       13.226095    0.420395   -1.445525
     60          1           0        9.090868    2.234003    1.406212
     61          1           0       10.342209    2.512118   -0.015240
     62          1           0       10.489159    3.051880    1.888534
     63          1           0       11.302261   -0.532643    2.892043
     64          1           0        9.595721    0.087178    2.657514
     65          1           0       10.872597    1.062098    3.360352
     66          1           0      -10.291107    0.449693   -2.460448
     67          1           0      -12.030404    1.086164   -2.826692
     68          1           0      -11.458604   -0.753164   -3.215268
     69          1           0      -14.366241   -2.258660   -0.325546
     70          1           0        8.484264    0.418947   -0.033549
     71          1           0       -8.779098    1.832494   -0.271233
     72          1           0       11.494235   -2.516716   -1.782605
     73          1           0       10.357773   -1.005034   -2.486807
     74          1           0       11.957022   -1.016277   -2.902957
     75          1           0       15.040992    0.913172    1.723196
     76          1           0        9.457589   -2.491307   -0.206085
     77          1           0       -5.628296   -0.901484    0.681406
     78          1           0       -7.303372   -1.436291    1.081616
     79          1           0       -6.772415   -1.518439   -0.633311
     80          1           0       -6.570476    2.692242   -0.594583
     81          1           0        6.660058   -3.749437    1.053729
     82          1           0        6.554183   -4.003418   -0.833417
     83          1           0        8.098845   -4.170052    0.129217
     84          1           0        6.675283    0.030544   -0.418450
     85          1           0       -4.250734    0.485420   -0.484696
     86          1           0        4.780353   -2.636035   -0.310696
     87          1           0       -4.524685    3.619389   -0.833093
     88          1           0        4.464924    0.380338   -0.691225
     89          1           0       -1.413819    4.079737   -2.188597
     90          1           0       -1.014860    4.021758   -0.721409
     91          1           0       -2.580540    4.718916   -1.391888
     92          1           0       -2.321499    0.443134   -0.362836
     93          1           0        2.226801    1.099252   -0.918023
     94          1           0        2.410040   -2.688974    0.411644
     95          1           0        1.068558   -1.941293   -0.274943
     96          1           0        2.324284   -2.838360   -1.238525
     97          1           0        0.095799    2.221862   -1.123374
     98          1           0       -0.171599   -0.552288   -0.205871
 ---------------------------------------------------------------------

 SCF Done:  E(RCAM-B3LYP) =  -1706.87544492     A.U. after   16 cycles

 Excitation energies and oscillator strengths:

 Excited State   1:      Singlet-A      1.8248 eV  679.43 nm  f=3.2228  <S**2>=0.000
     155 ->158        -0.13624
     156 ->157         0.69954
     156 <-157        -0.11439
 This state for optimization and/or second-order correction.
 Total Energy, E(TD-HF/TD-DFT) =  -1706.80838330
 Copying the excited state density for this state as the 1-particle RhoCI density.

 The electronic state is 1-A.
 Alpha  occ. eigenvalues --  -19.22347 -19.20239 -10.32079 -10.31076 -10.28751
 Alpha  occ. eigenvalues --  -10.28034 -10.27964 -10.27763 -10.27709 -10.27571
 Alpha  occ. eigenvalues --  -10.27522 -10.27493 -10.27207 -10.27196 -10.27033
 Alpha  occ. eigenvalues --  -10.27028 -10.27007 -10.26923 -10.26894 -10.26853
 Alpha  occ. eigenvalues --  -10.26712 -10.26710 -10.26656 -10.26499 -10.26445
 Alpha  occ. eigenvalues --  -10.26342 -10.26341 -10.26047 -10.25994 -10.25900
 Alpha  occ. eigenvalues --  -10.25866 -10.25738 -10.25418 -10.25304 -10.25294
 Alpha  occ. eigenvalues --  -10.24640 -10.24523 -10.24446 -10.24265 -10.24152
 Alpha  occ. eigenvalues --  -10.23726 -10.23614  -1.08851  -1.06826  -0.94544
 Alpha  occ. eigenvalues --   -0.92702  -0.92482  -0.92033  -0.90685  -0.90153
 Alpha  occ. eigenvalues --   -0.87307  -0.87097  -0.86548  -0.85549  -0.84546
 Alpha  occ. eigenvalues --   -0.83487  -0.82151  -0.80033  -0.79443  -0.78943
 Alpha  occ. eigenvalues --   -0.77340  -0.76794  -0.76177  -0.75730  -0.75393
 Alpha  occ. eigenvalues --   -0.74866  -0.74627  -0.74540  -0.73010  -0.70261
 Alpha  occ. eigenvalues --   -0.68595  -0.67975  -0.66818  -0.65574  -0.63412
 Alpha  occ. eigenvalues --   -0.63146  -0.62506  -0.62389  -0.61393  -0.60091
 Alpha  occ. eigenvalues --   -0.59664  -0.58384  -0.57568  -0.56725  -0.56102
 Alpha  occ. eigenvalues --   -0.55760  -0.55601  -0.55144  -0.54435  -0.54067
 Alpha  occ. eigenvalues --   -0.53712  -0.53150  -0.52837  -0.52551  -0.51839
 Alpha  occ. eigenvalues --   -0.51260  -0.51011  -0.50053  -0.49857  -0.49433
 Alpha  occ. eigenvalues --   -0.48775  -0.48756  -0.48561  -0.48316  -0.47971
 Alpha  occ. eigenvalues --   -0.47468  -0.47402  -0.47235  -0.46814  -0.46713
 Alpha  occ. eigenvalues --   -0.45405  -0.45257  -0.45178  -0.44628  -0.44470
 Alpha  occ. eigenvalues --   -0.44377  -0.44172  -0.43922  -0.43696  -0.43660
 Alpha  occ. eigenvalues --   -0.43508  -0.43321  -0.42746  -0.42645  -0.42397
 Alpha  occ. eigenvalues --   -0.41784  -0.41548  -0.41046  -0.40853  -0.40426
 Alpha  occ. eigenvalues --   -0.40390  -0.40057  -0.39742  -0.39315  -0.39077
 Alpha  occ. eigenvalues --   -0.38786  -0.38483  -0.38385  -0.38113  -0.37595
 Alpha  occ. eigenvalues --   -0.37156  -0.36858  -0.36705  -0.36540  -0.35583
 Alpha  occ. eigenvalues --   -0.35090  -0.34100  -0.33271  -0.32611  -0.32036
 Alpha  occ. eigenvalues --   -0.31286  -0.29256  -0.28685  -0.26172  -0.23072
 Alpha  occ. eigenvalues --   -0.18474
 Alpha virt. eigenvalues --   -0.07088  -0.01820   0.02478   0.04701   0.06554
 Alpha virt. eigenvalues --    0.08416   0.09981   0.10615   0.10884   0.11834
 Alpha virt. eigenvalues --    0.12221   0.12333   0.12918   0.13442   0.14357

 Mulliken charges:
               1
     1  O   -0.567052
     2  O   -0.550691
     3  C    0.017617
     4  C   -0.107844
     5  C   -0.183621
     6  C    0.156563
     7  C    0.086051
     8  C   -0.004768
     9  C   -0.300493
    10  C   -0.289226
    11  C   -0.181578
    12  C   -0.162868
    13  C    0.147896
    14  C    0.038418
    15  C   -0.068903
    16  C   -0.169115
    17  C   -0.034955
    18  C   -0.299503
    19  C   -0.306404
    20  C   -0.348895
    21  C   -0.118139
    22  C   -0.111277
    23  C   -0.352807
    24  C    0.113092
    25  C   -0.097304
    26  C   -0.377275
    27  C    0.102766
    28  C   -0.112443
    29  C   -0.381273
    30  C   -0.119603
    31  C   -0.053963
    32  C   -0.097726
    33  C   -0.146016
    34  C    0.125751
    35  C   -0.101795
    36  C    0.073739
    37  C   -0.377569
    38  C   -0.107077
    39  C   -0.119043
    40  C   -0.323486
    41  C   -0.103995
    42  C   -0.060752
    43  H    0.104421
    44  H    0.116851
    45  H    0.093537
    46  H    0.104547
    47  H    0.093079
    48  H    0.115460
    49  H    0.087199
    50  H    0.105286
    51  H    0.117242
    52  H    0.037961
    53  H    0.106401
    54  H    0.081416
    55  H    0.079928
    56  H    0.062979
    57  H    0.081294
    58  H    0.116162
    59  H    0.131789
    60  H    0.117922
    61  H    0.115377
    62  H    0.057138
    63  H    0.097204
    64  H    0.100664
    65  H    0.095321
    66  H    0.122746
    67  H    0.116107
    68  H    0.084137
    69  H    0.306042
    70  H    0.082041
    71  H    0.074538
    72  H    0.126115
    73  H    0.115840
    74  H    0.104502
    75  H    0.313066
    76  H    0.074208
    77  H    0.110212
    78  H    0.076419
    79  H    0.129334
    80  H    0.087109
    81  H    0.130039
    82  H    0.112679
    83  H    0.114285
    84  H    0.087544
    85  H    0.098018
    86  H    0.084917
    87  H    0.086031
    88  H    0.075504
    89  H    0.111055
    90  H    0.123818
    91  H    0.111193
    92  H    0.050776
    93  H    0.074058
    94  H    0.121902
    95  H    0.103264
    96  H    0.109384
    97  H    0.068679
    98  H    0.070828
 Sum of Mulliken charges =  -0.00000

 Dipole moment (field-independent basis, Debye):
    X=              2.4373    Y=             -0.4496    Z=             -0.5135  Tot=              2.5310
 Quadrupole moment (field-independent basis, Debye-Ang):
   XX=           -297.3687   YY=           -245.0301   ZZ=           -260.9699
   XY=            -17.1180   XZ=             38.2499   YZ=              0.7451

 Normal termination of Gaussian 16 at Sun Jul 14 03:39:23 2019.
