 Gaussian 16, Revision A.03,
 Gaussian 16:  ES64L-G16RevA.03 25-Dec-2016

 -------------------------------------
 # td=(NStates=1) CAM-B3LYP/6-31G(d,p)
 -------------------------------------

 --
 TD
 --
 Symbolic Z-matrix:
 Charge =  0 Multiplicity = 1

                         Standard orientation:
 ---------------------------------------------------------------------
 Center     Atomic      Atomic             Coordinates (Angstroms)
 Number     Number       Type             X           Y           Z
 ---------------------------------------------------------------------
      1          8           0      -14.033513   -2.046443    0.661151
      2          8           0       14.799550    0.838640    0.464324
      3          6           0      -11.695717    0.041194    1.358558
      4          6           0      -10.975498    0.322193    0.007880
      5          6           0      -11.925424   -1.461580    1.579928
      6          6           0      -12.665891   -2.177418    0.468859
      7          6           0      -11.616658   -0.450849   -1.084071
      8          6           0       11.022197    1.038600    1.085239
      9          6           0      -10.944798    0.654265    2.645878
     10          6           0      -13.109399    0.718096    1.250069
     11          6           0       12.456349    1.540260    0.922244
     12          6           0      -12.319456   -1.664106   -0.963214
     13          6           0       13.485604    0.406574    0.592473
     14          6           0       10.645211   -0.074232    0.112187
     15          6           0       -9.474723   -0.012991    0.095373
     16          6           0       13.101889   -0.280209   -0.689034
     17          6           0       11.631243   -0.586391   -0.785252
     18          6           0       10.132299    2.226868    0.973413
     19          6           0       10.824506    0.400934    2.475617
     20          6           0      -11.206112    0.064984   -2.477648
     21          6           0       -8.554088    0.906455   -0.299486
     22          6           0        9.280734   -0.503002    0.184220
     23          6           0       11.192908   -1.394678   -2.084549
     24          6           0       -7.097282    0.647263   -0.200566
     25          6           0        8.799576   -1.739660   -0.098458
     26          6           0       -6.660154   -0.802886    0.089384
     27          6           0        7.378375   -2.079937   -0.167027
     28          6           0       -6.215936    1.602759   -0.555936
     29          6           0        7.167569   -3.600612   -0.081701
     30          6           0        6.391482   -1.234586   -0.290042
     31          6           0       -4.819816    1.498628   -0.476294
     32          6           0        4.984106   -1.515723   -0.204661
     33          6           0       -4.032361    2.518876   -0.801676
     34          6           0       -2.653129    2.636028   -0.770402
     35          6           0        4.020971   -0.627967   -0.340718
     36          6           0        2.660518   -0.784429   -0.283114
     37          6           0       -2.106309    3.897008   -1.193031
     38          6           0       -1.839452    1.489925   -0.458934
     39          6           0        1.731062    0.343033   -0.597057
     40          6           0        2.120766   -2.153922   -0.134945
     41          6           0       -0.470105    1.455107   -0.536879
     42          6           0        0.328969    0.331796   -0.443644
     43          1           0      -11.075611    1.326135   -0.053212
     44          1           0      -12.595197   -1.457894    2.481655
     45          1           0      -10.924126   -2.070697    1.703540
     46          1           0      -12.362066   -3.305492    0.729971
     47          1           0       -9.884078    0.149560    2.494686
     48          1           0      -10.827649    1.638346    2.721838
     49          1           0      -11.254072    0.253519    3.608312
     50          1           0      -13.725890    0.412938    0.452617
     51          1           0      -13.697679    0.687615    2.103956
     52          1           0      -12.834490    1.847076    1.129013
     53          1           0       12.586002    2.296821    0.122258
     54          1           0       12.610300    2.049356    1.687849
     55          1           0      -12.610710   -2.115738   -1.895704
     56          1           0       13.548813   -0.135906    1.519106
     57          1           0       -9.262889   -1.016420    0.659279
     58          1           0       13.691563   -1.112242   -0.839479
     59          1           0       13.372656    0.401779   -1.591125
     60          1           0        9.138455    2.020746    1.359164
     61          1           0       10.149387    2.786018   -0.077203
     62          1           0       10.625959    2.966342    1.682934
     63          1           0       11.602817   -0.474249    2.523808
     64          1           0        9.830131    0.217055    2.803066
     65          1           0       11.118986    1.216440    3.199371
     66          1           0      -10.222660    0.092762   -2.574339
     67          1           0      -11.452899    1.047594   -2.621771
     68          1           0      -11.599006   -0.558259   -3.381841
     69          1           0      -14.602634   -2.464995   -0.119897
     70          1           0        8.662254    0.374057    0.503996
     71          1           0       -8.800609    1.859368   -0.837948
     72          1           0       11.379132   -2.578576   -1.906680
     73          1           0       10.178055   -0.979651   -2.541859
     74          1           0       12.011625   -1.130538   -2.912123
     75          1           0       15.124371    1.480356    1.219306
     76          1           0        9.448224   -2.698275   -0.327499
     77          1           0       -5.594701   -0.857232    0.138037
     78          1           0       -6.952361   -1.201729    1.089888
     79          1           0       -7.246384   -1.483973   -0.789819
     80          1           0       -6.503756    2.707460   -0.827475
     81          1           0        6.908262   -3.991057    0.944563
     82          1           0        6.291493   -3.784454   -0.766188
     83          1           0        7.992209   -4.267284   -0.187457
     84          1           0        6.702965   -0.149303   -0.480148
     85          1           0       -4.147372    0.655391    0.007980
     86          1           0        4.802846   -2.669514   -0.239476
     87          1           0       -4.422510    3.355468   -1.292373
     88          1           0        4.551927    0.184764   -0.483644
     89          1           0       -1.517621    3.645249   -2.043096
     90          1           0       -1.461589    4.380687   -0.461221
     91          1           0       -2.995173    4.468805   -1.376833
     92          1           0       -2.046312    0.457974   -0.267255
     93          1           0        2.329192    1.277077   -0.822305
     94          1           0        1.988833   -2.344456    0.966477
     95          1           0        1.224068   -2.256171   -0.736433
     96          1           0        3.050134   -3.017402   -0.567687
     97          1           0        0.083140    2.509477   -0.541767
     98          1           0       -0.356190   -0.556315   -0.230515
 ---------------------------------------------------------------------

 SCF Done:  E(RCAM-B3LYP) =  -1706.95547345     A.U. after   15 cycles

 Excitation energies and oscillator strengths:

 Excited State   1:      Singlet-A      2.0209 eV  613.50 nm  f=2.9734  <S**2>=0.000
     155 ->158         0.12785
     156 ->157         0.69827
     156 <-157        -0.10536
 This state for optimization and/or second-order correction.
 Total Energy, E(TD-HF/TD-DFT) =  -1706.88120516
 Copying the excited state density for this state as the 1-particle RhoCI density.

 The electronic state is 1-A.
 Alpha  occ. eigenvalues --  -19.21453 -19.21058 -10.31544 -10.30047 -10.28058
 Alpha  occ. eigenvalues --  -10.27589 -10.27578 -10.27501 -10.27489 -10.27428
 Alpha  occ. eigenvalues --  -10.27341 -10.27189 -10.27065 -10.27023 -10.26981
 Alpha  occ. eigenvalues --  -10.26921 -10.26774 -10.26700 -10.26615 -10.26614
 Alpha  occ. eigenvalues --  -10.26406 -10.26372 -10.26292 -10.25946 -10.25908
 Alpha  occ. eigenvalues --  -10.25888 -10.25864 -10.25658 -10.25578 -10.25510
 Alpha  occ. eigenvalues --  -10.25504 -10.25421 -10.25383 -10.25220 -10.25203
 Alpha  occ. eigenvalues --  -10.24792 -10.24480 -10.23980 -10.23803 -10.23770
 Alpha  occ. eigenvalues --  -10.23235 -10.22654  -1.08893  -1.08826  -0.93612
 Alpha  occ. eigenvalues --   -0.93282  -0.92896  -0.92224  -0.90436  -0.89830
 Alpha  occ. eigenvalues --   -0.87941  -0.86614  -0.85777  -0.85237  -0.84792
 Alpha  occ. eigenvalues --   -0.82876  -0.82312  -0.79861  -0.79294  -0.78628
 Alpha  occ. eigenvalues --   -0.76560  -0.76190  -0.76092  -0.76004  -0.75694
 Alpha  occ. eigenvalues --   -0.75228  -0.74797  -0.74536  -0.72191  -0.70132
 Alpha  occ. eigenvalues --   -0.68702  -0.67114  -0.66731  -0.65162  -0.63411
 Alpha  occ. eigenvalues --   -0.63156  -0.62812  -0.61576  -0.60887  -0.60552
 Alpha  occ. eigenvalues --   -0.59086  -0.58130  -0.57953  -0.57569  -0.56600
 Alpha  occ. eigenvalues --   -0.56051  -0.55123  -0.54824  -0.53818  -0.53718
 Alpha  occ. eigenvalues --   -0.52949  -0.52521  -0.52141  -0.51741  -0.50575
 Alpha  occ. eigenvalues --   -0.50273  -0.49809  -0.49580  -0.49539  -0.49285
 Alpha  occ. eigenvalues --   -0.49096  -0.48676  -0.48193  -0.47961  -0.47571
 Alpha  occ. eigenvalues --   -0.47250  -0.46804  -0.46666  -0.46481  -0.45971
 Alpha  occ. eigenvalues --   -0.45797  -0.45136  -0.44979  -0.44721  -0.44590
 Alpha  occ. eigenvalues --   -0.44300  -0.44137  -0.43928  -0.43675  -0.43430
 Alpha  occ. eigenvalues --   -0.43235  -0.43045  -0.42653  -0.42159  -0.42133
 Alpha  occ. eigenvalues --   -0.42014  -0.41701  -0.41560  -0.41338  -0.40740
 Alpha  occ. eigenvalues --   -0.40645  -0.40161  -0.39603  -0.39416  -0.39203
 Alpha  occ. eigenvalues --   -0.39018  -0.38950  -0.38628  -0.37917  -0.37494
 Alpha  occ. eigenvalues --   -0.36943  -0.36785  -0.36371  -0.35812  -0.35613
 Alpha  occ. eigenvalues --   -0.35114  -0.34859  -0.33978  -0.31591  -0.30953
 Alpha  occ. eigenvalues --   -0.30906  -0.29316  -0.28497  -0.26201  -0.23716
 Alpha  occ. eigenvalues --   -0.18780
 Alpha virt. eigenvalues --   -0.06194  -0.00666   0.02466   0.05112   0.06917
 Alpha virt. eigenvalues --    0.09308   0.10807   0.10953   0.11194   0.12153
 Alpha virt. eigenvalues --    0.12177   0.12846   0.12982   0.13140   0.13621

 Mulliken charges:
               1
     1  O   -0.546726
     2  O   -0.583172
     3  C   -0.010771
     4  C   -0.107603
     5  C   -0.175471
     6  C    0.168626
     7  C    0.106485
     8  C   -0.042986
     9  C   -0.302839
    10  C   -0.292696
    11  C   -0.182942
    12  C   -0.148563
    13  C    0.193553
    14  C    0.096366
    15  C   -0.093255
    16  C   -0.211026
    17  C    0.018612
    18  C   -0.297937
    19  C   -0.292310
    20  C   -0.358588
    21  C   -0.094047
    22  C   -0.115640
    23  C   -0.341701
    24  C    0.092214
    25  C   -0.111311
    26  C   -0.350153
    27  C    0.113616
    28  C   -0.134575
    29  C   -0.379752
    30  C   -0.139268
    31  C   -0.047270
    32  C   -0.092704
    33  C   -0.113533
    34  C    0.078113
    35  C   -0.052881
    36  C    0.087944
    37  C   -0.373126
    38  C   -0.110871
    39  C   -0.133066
    40  C   -0.347868
    41  C   -0.070875
    42  C   -0.103470
    43  H    0.095895
    44  H    0.115084
    45  H    0.075885
    46  H    0.051081
    47  H    0.077529
    48  H    0.110649
    49  H    0.102913
    50  H    0.124230
    51  H    0.104869
    52  H    0.060145
    53  H    0.089987
    54  H    0.077084
    55  H    0.082485
    56  H    0.075272
    57  H    0.099982
    58  H    0.125504
    59  H    0.112311
    60  H    0.104150
    61  H    0.098420
    62  H    0.089628
    63  H    0.102262
    64  H    0.119512
    65  H    0.077174
    66  H    0.132875
    67  H    0.114370
    68  H    0.087519
    69  H    0.311966
    70  H    0.083227
    71  H    0.089277
    72  H    0.100091
    73  H    0.124620
    74  H    0.084452
    75  H    0.308496
    76  H    0.088420
    77  H    0.112132
    78  H    0.114988
    79  H    0.102705
    80  H    0.085070
    81  H    0.114450
    82  H    0.113135
    83  H    0.113135
    84  H    0.075654
    85  H    0.088927
    86  H    0.060852
    87  H    0.064023
    88  H    0.058320
    89  H    0.141699
    90  H    0.130446
    91  H    0.108051
    92  H    0.070656
    93  H    0.089060
    94  H    0.126810
    95  H    0.124502
    96  H    0.066862
    97  H    0.061349
    98  H    0.083275
 Sum of Mulliken charges =  -0.00000

 Dipole moment (field-independent basis, Debye):
    X=              0.2191    Y=              0.6646    Z=             -0.0060  Tot=              0.6998
 Quadrupole moment (field-independent basis, Debye-Ang):
   XX=           -262.2330   YY=           -243.4363   ZZ=           -260.9887
   XY=             13.7074   XZ=             33.9180   YZ=              1.6696

 Normal termination of Gaussian 16 at Sat Jul 13 12:21:10 2019.
