 Gaussian 16, Revision A.03,
 Gaussian 16:  ES64L-G16RevA.03 25-Dec-2016

 -------------------------------------
 # td=(NStates=1) CAM-B3LYP/6-31G(d,p)
 -------------------------------------

 --
 TD
 --
 Symbolic Z-matrix:
 Charge =  0 Multiplicity = 1

                         Standard orientation:
 ---------------------------------------------------------------------
 Center     Atomic      Atomic             Coordinates (Angstroms)
 Number     Number       Type             X           Y           Z
 ---------------------------------------------------------------------
      1          8           0      -14.177958   -1.984771    0.761724
      2          8           0       14.785712    0.804480    0.182113
      3          6           0      -11.936927    0.385839    1.173432
      4          6           0      -11.058212    0.225614   -0.113772
      5          6           0      -12.127103   -1.109035    1.670628
      6          6           0      -12.698195   -2.186463    0.632424
      7          6           0      -11.461928   -0.800342   -1.166872
      8          6           0       11.164304    1.076669    1.051671
      9          6           0      -11.224753    1.198990    2.237746
     10          6           0      -13.314311    0.957029    0.840439
     11          6           0       12.595187    1.618383    0.729146
     12          6           0      -12.200638   -1.873296   -0.764595
     13          6           0       13.507459    0.394809    0.367178
     14          6           0       10.708917   -0.009386   -0.026897
     15          6           0       -9.589256   -0.044668    0.070865
     16          6           0       13.016778   -0.248171   -0.900500
     17          6           0       11.551429   -0.594808   -0.910531
     18          6           0       10.275367    2.253843    1.051848
     19          6           0       11.043686    0.452394    2.443460
     20          6           0      -11.070003   -0.673532   -2.624579
     21          6           0       -8.576358    0.767960   -0.194934
     22          6           0        9.265261   -0.459336    0.133063
     23          6           0       11.128965   -1.506782   -2.054805
     24          6           0       -7.065297    0.530043   -0.050973
     25          6           0        8.938991   -1.739062    0.023064
     26          6           0       -6.738775   -0.848545    0.397434
     27          6           0        7.416829   -2.213000   -0.031396
     28          6           0       -6.169355    1.485778   -0.372903
     29          6           0        7.242577   -3.688978    0.175845
     30          6           0        6.416159   -1.280379   -0.166899
     31          6           0       -4.761662    1.464138   -0.316135
     32          6           0        5.044318   -1.500854    0.078358
     33          6           0       -4.078782    2.558469   -0.781737
     34          6           0       -2.612803    2.576692   -0.862923
     35          6           0        3.988003   -0.508298   -0.162245
     36          6           0        2.667593   -0.633797   -0.219808
     37          6           0       -1.944356    3.838512   -1.324328
     38          6           0       -1.878416    1.473597   -0.570759
     39          6           0        1.755655    0.407479   -0.497977
     40          6           0        2.158513   -2.023973    0.322522
     41          6           0       -0.419669    1.396636   -0.607417
     42          6           0        0.411131    0.364028   -0.373558
     43          1           0      -11.282980    1.218293   -0.604749
     44          1           0      -12.697202   -1.224466    2.528417
     45          1           0      -11.149938   -1.567826    1.702467
     46          1           0      -12.402505   -3.234931    1.097981
     47          1           0      -10.240554    0.848282    2.454108
     48          1           0      -10.854117    2.203754    1.733320
     49          1           0      -11.869643    1.472081    3.250785
     50          1           0      -13.656782    0.529468   -0.285062
     51          1           0      -14.276654    1.060991    1.532182
     52          1           0      -13.333438    2.018298    0.448456
     53          1           0       12.610635    2.095056   -0.143663
     54          1           0       13.020111    2.227101    1.567614
     55          1           0      -12.356472   -2.584079   -1.629175
     56          1           0       13.448256   -0.294063    1.232605
     57          1           0       -9.329303   -1.174315    0.202397
     58          1           0       13.603967   -1.005653   -1.222830
     59          1           0       13.279888    0.571599   -1.562552
     60          1           0        9.378354    2.137028    1.732088
     61          1           0        9.899989    2.637018   -0.084654
     62          1           0       10.760965    2.955781    1.547365
     63          1           0       11.869161   -0.279482    2.802597
     64          1           0       10.075980    0.089829    2.540436
     65          1           0       11.083412    1.340918    3.138175
     66          1           0      -10.131520   -0.643845   -2.585100
     67          1           0      -11.489777    0.288145   -3.282062
     68          1           0      -11.405907   -1.592114   -3.363539
     69          1           0      -14.532338   -2.492639   -0.136455
     70          1           0        8.744221    0.479965    0.406300
     71          1           0       -8.791436    1.806428   -0.527851
     72          1           0       11.420165   -2.554647   -1.777020
     73          1           0       10.108144   -1.574827   -2.357745
     74          1           0       11.530956   -1.379953   -2.971921
     75          1           0       15.185472    1.102275    0.920797
     76          1           0        9.692659   -2.628727   -0.137445
     77          1           0       -5.588551   -0.731475    0.590603
     78          1           0       -7.220727   -0.979591    1.353744
     79          1           0       -6.819526   -1.568218   -0.383782
     80          1           0       -6.844452    2.319468   -0.963824
     81          1           0        6.498128   -3.901552    1.071652
     82          1           0        6.721934   -4.246104   -0.794474
     83          1           0        8.229153   -4.200143    0.420307
     84          1           0        6.674051   -0.243615   -0.380484
     85          1           0       -4.246256    0.559594   -0.133395
     86          1           0        4.875353   -2.421884    0.303594
     87          1           0       -4.587660    3.397768   -1.058701
     88          1           0        4.446066    0.416375   -0.533872
     89          1           0       -1.126728    3.447768   -2.112180
     90          1           0       -1.377056    4.522614   -0.501969
     91          1           0       -2.615649    4.561156   -1.732501
     92          1           0       -2.445312    0.691504   -0.226584
     93          1           0        2.317665    1.399368   -0.846267
     94          1           0        3.014985   -2.479281    1.055226
     95          1           0        1.015692   -2.047646    0.864595
     96          1           0        2.047620   -2.582126   -0.632446
     97          1           0       -0.066451    2.311171   -1.082550
     98          1           0        0.101990   -0.538748    0.190851
 ---------------------------------------------------------------------

 SCF Done:  E(RCAM-B3LYP) =  -1706.91662675     A.U. after   15 cycles

 Excitation energies and oscillator strengths:

 Excited State   1:      Singlet-A      2.1627 eV  573.30 nm  f=2.8999  <S**2>=0.000
     155 ->158         0.13847
     156 ->157         0.69516
     156 <-157        -0.10068
 This state for optimization and/or second-order correction.
 Total Energy, E(TD-HF/TD-DFT) =  -1706.83715082
 Copying the excited state density for this state as the 1-particle RhoCI density.

 The electronic state is 1-A.
 Alpha  occ. eigenvalues --  -19.21304 -19.20436 -10.31782 -10.29710 -10.28289
 Alpha  occ. eigenvalues --  -10.28265 -10.28110 -10.27928 -10.27823 -10.27604
 Alpha  occ. eigenvalues --  -10.27497 -10.27339 -10.27306 -10.27288 -10.27231
 Alpha  occ. eigenvalues --  -10.27177 -10.27058 -10.26960 -10.26895 -10.26860
 Alpha  occ. eigenvalues --  -10.26651 -10.26647 -10.26572 -10.26443 -10.26441
 Alpha  occ. eigenvalues --  -10.26291 -10.26169 -10.25930 -10.25873 -10.25803
 Alpha  occ. eigenvalues --  -10.25791 -10.25702 -10.25679 -10.25581 -10.25455
 Alpha  occ. eigenvalues --  -10.25230 -10.25181 -10.24888 -10.23991 -10.23947
 Alpha  occ. eigenvalues --  -10.23905 -10.23724  -1.12778  -1.04701  -0.93314
 Alpha  occ. eigenvalues --   -0.93227  -0.92508  -0.91737  -0.90291  -0.89466
 Alpha  occ. eigenvalues --   -0.87804  -0.87162  -0.86561  -0.85522  -0.84771
 Alpha  occ. eigenvalues --   -0.82803  -0.81650  -0.80376  -0.80043  -0.78089
 Alpha  occ. eigenvalues --   -0.76687  -0.76580  -0.76192  -0.75810  -0.75573
 Alpha  occ. eigenvalues --   -0.74607  -0.74579  -0.74079  -0.73141  -0.70445
 Alpha  occ. eigenvalues --   -0.69125  -0.67977  -0.66294  -0.65275  -0.63841
 Alpha  occ. eigenvalues --   -0.63225  -0.62901  -0.61947  -0.60523  -0.60148
 Alpha  occ. eigenvalues --   -0.59979  -0.58744  -0.57469  -0.56590  -0.56293
 Alpha  occ. eigenvalues --   -0.55498  -0.54880  -0.54138  -0.54082  -0.53451
 Alpha  occ. eigenvalues --   -0.53057  -0.52590  -0.52509  -0.51718  -0.51059
 Alpha  occ. eigenvalues --   -0.50991  -0.50317  -0.49963  -0.49260  -0.48998
 Alpha  occ. eigenvalues --   -0.48880  -0.48526  -0.48261  -0.47938  -0.47641
 Alpha  occ. eigenvalues --   -0.47419  -0.47374  -0.46640  -0.46298  -0.46025
 Alpha  occ. eigenvalues --   -0.45917  -0.45705  -0.45219  -0.44908  -0.44637
 Alpha  occ. eigenvalues --   -0.44318  -0.44094  -0.44071  -0.43528  -0.43437
 Alpha  occ. eigenvalues --   -0.42948  -0.42782  -0.42644  -0.42448  -0.42122
 Alpha  occ. eigenvalues --   -0.41840  -0.41491  -0.41059  -0.40981  -0.40505
 Alpha  occ. eigenvalues --   -0.40272  -0.40171  -0.39793  -0.39316  -0.38973
 Alpha  occ. eigenvalues --   -0.38820  -0.38627  -0.38004  -0.37761  -0.37406
 Alpha  occ. eigenvalues --   -0.37039  -0.36795  -0.36327  -0.35963  -0.35679
 Alpha  occ. eigenvalues --   -0.34910  -0.34409  -0.33730  -0.32123  -0.31342
 Alpha  occ. eigenvalues --   -0.31036  -0.29919  -0.29183  -0.26952  -0.24577
 Alpha  occ. eigenvalues --   -0.19462
 Alpha virt. eigenvalues --   -0.06218  -0.00932   0.03067   0.04822   0.06907
 Alpha virt. eigenvalues --    0.09034   0.11096   0.11576   0.11980   0.12425
 Alpha virt. eigenvalues --    0.12758   0.13182   0.13369   0.13923   0.14243

 Mulliken charges:
               1
     1  O   -0.543983
     2  O   -0.531428
     3  C    0.072176
     4  C   -0.163857
     5  C   -0.173352
     6  C    0.122300
     7  C    0.098253
     8  C   -0.004048
     9  C   -0.296065
    10  C   -0.291645
    11  C   -0.180048
    12  C   -0.129942
    13  C    0.151363
    14  C    0.017431
    15  C   -0.097954
    16  C   -0.218622
    17  C    0.058396
    18  C   -0.301736
    19  C   -0.295463
    20  C   -0.328830
    21  C   -0.080835
    22  C   -0.087338
    23  C   -0.374759
    24  C    0.075363
    25  C   -0.119356
    26  C   -0.365929
    27  C    0.079719
    28  C   -0.111213
    29  C   -0.370329
    30  C   -0.107383
    31  C   -0.079993
    32  C   -0.062964
    33  C   -0.096977
    34  C    0.094494
    35  C   -0.142093
    36  C    0.122447
    37  C   -0.373016
    38  C   -0.092348
    39  C   -0.112062
    40  C   -0.358468
    41  C   -0.093670
    42  C   -0.059634
    43  H    0.094365
    44  H    0.110888
    45  H    0.085942
    46  H    0.078964
    47  H    0.116526
    48  H    0.078743
    49  H    0.090980
    50  H    0.079327
    51  H    0.107909
    52  H    0.079506
    53  H    0.107062
    54  H    0.073518
    55  H    0.065934
    56  H    0.058858
    57  H    0.090043
    58  H    0.110890
    59  H    0.116463
    60  H    0.090001
    61  H    0.083146
    62  H    0.114621
    63  H    0.096680
    64  H    0.122452
    65  H    0.081200
    66  H    0.139021
    67  H    0.093002
    68  H    0.092089
    69  H    0.292587
    70  H    0.103667
    71  H    0.072208
    72  H    0.101012
    73  H    0.126283
    74  H    0.116660
    75  H    0.292943
    76  H    0.096593
    77  H    0.082486
    78  H    0.130784
    79  H    0.136319
    80  H    0.070252
    81  H    0.111151
    82  H    0.105004
    83  H    0.113202
    84  H    0.080176
    85  H    0.105283
    86  H    0.058746
    87  H    0.084819
    88  H    0.073669
    89  H    0.111223
    90  H    0.107289
    91  H    0.113245
    92  H    0.059832
    93  H    0.071831
    94  H    0.107343
    95  H    0.085315
    96  H    0.134076
    97  H    0.073422
    98  H    0.077846
 Sum of Mulliken charges =  -0.00000

 Dipole moment (field-independent basis, Debye):
    X=              2.4080    Y=             -0.4576    Z=             -0.7671  Tot=              2.5683
 Quadrupole moment (field-independent basis, Debye-Ang):
   XX=           -283.7823   YY=           -244.5957   ZZ=           -259.6063
   XY=              4.3971   XZ=             39.4789   YZ=              2.2795

 Normal termination of Gaussian 16 at Sat Jul 13 19:41:26 2019.
