 Gaussian 16, Revision A.03,
 Gaussian 16:  ES64L-G16RevA.03 25-Dec-2016

 -------------------------------------
 # td=(NStates=1) CAM-B3LYP/6-31G(d,p)
 -------------------------------------

 --
 TD
 --
 Symbolic Z-matrix:
 Charge =  0 Multiplicity = 1

                         Standard orientation:
 ---------------------------------------------------------------------
 Center     Atomic      Atomic             Coordinates (Angstroms)
 Number     Number       Type             X           Y           Z
 ---------------------------------------------------------------------
      1          8           0      -14.134009   -2.113102    0.508604
      2          8           0       14.843371    0.899505    0.098017
      3          6           0      -11.854791    0.103729    1.212008
      4          6           0      -11.022190    0.306652   -0.045652
      5          6           0      -12.019622   -1.340033    1.443696
      6          6           0      -12.624999   -2.170236    0.288602
      7          6           0      -11.523956   -0.502455   -1.241409
      8          6           0       11.103214    0.915636    1.040785
      9          6           0      -11.110480    0.699447    2.335752
     10          6           0      -13.345861    0.757119    0.978499
     11          6           0       12.565254    1.339184    0.773841
     12          6           0      -12.271448   -1.566756   -1.110975
     13          6           0       13.596431    0.336184    0.444056
     14          6           0       10.696611   -0.044853   -0.018804
     15          6           0       -9.485797   -0.093828    0.067017
     16          6           0       13.018085   -0.258599   -0.921753
     17          6           0       11.552555   -0.510052   -0.972419
     18          6           0       10.281355    2.176604    0.949442
     19          6           0       11.012293    0.286342    2.385257
     20          6           0      -11.281314    0.133297   -2.633970
     21          6           0       -8.468253    0.794581   -0.024315
     22          6           0        9.258043   -0.451393    0.056643
     23          6           0       11.195143   -1.268829   -2.290949
     24          6           0       -7.030668    0.370930   -0.057427
     25          6           0        8.764138   -1.720736   -0.071087
     26          6           0       -6.721600   -1.045672    0.148773
     27          6           0        7.414083   -2.130639   -0.005961
     28          6           0       -6.182083    1.476913   -0.224301
     29          6           0        7.056817   -3.617177    0.130315
     30          6           0        6.369608   -1.237063   -0.037226
     31          6           0       -4.788171    1.511711   -0.260665
     32          6           0        4.961844   -1.487487    0.062252
     33          6           0       -3.990507    2.610934   -0.546294
     34          6           0       -2.579675    2.649321   -0.699524
     35          6           0        4.028148   -0.584974   -0.151495
     36          6           0        2.613590   -0.707805   -0.131729
     37          6           0       -1.979910    3.981686   -0.951054
     38          6           0       -1.803335    1.609869   -0.417878
     39          6           0        1.757180    0.425946   -0.284262
     40          6           0        2.060326   -2.024528    0.221831
     41          6           0       -0.385931    1.521963   -0.497413
     42          6           0        0.367448    0.377326   -0.308648
     43          1           0      -11.046307    1.380794   -0.219733
     44          1           0      -12.631285   -1.612974    2.315742
     45          1           0      -11.061878   -1.839000    1.462454
     46          1           0      -12.349050   -3.289867    0.508135
     47          1           0      -10.178089    0.144310    2.407127
     48          1           0      -10.800436    1.813705    2.087823
     49          1           0      -11.571939    0.848785    3.413289
     50          1           0      -13.969380    0.166113    0.102657
     51          1           0      -13.789984    0.441438    1.845510
     52          1           0      -13.170222    1.892723    0.724991
     53          1           0       12.558037    2.256397    0.027776
     54          1           0       12.728036    1.826791    1.785820
     55          1           0      -12.593049   -2.159453   -1.992384
     56          1           0       13.587491   -0.504244    1.088252
     57          1           0       -9.246912   -1.172144   -0.074918
     58          1           0       13.608083   -1.341010   -1.275375
     59          1           0       13.251007    0.371334   -1.849236
     60          1           0        9.256923    2.076173    1.348415
     61          1           0       10.308806    2.606777   -0.121464
     62          1           0       10.761023    2.927346    1.724132
     63          1           0       11.697238   -0.568050    2.622708
     64          1           0       10.022127   -0.276013    2.497279
     65          1           0       11.143839    1.069834    3.322551
     66          1           0      -10.126787    0.087996   -2.770406
     67          1           0      -11.714642    1.143532   -2.583275
     68          1           0      -11.475231   -0.463801   -3.366163
     69          1           0      -14.360392   -1.995746   -0.586612
     70          1           0        8.715717    0.551236    0.368984
     71          1           0       -8.723577    1.978847   -0.149659
     72          1           0       11.616534   -2.262453   -2.321419
     73          1           0       10.093887   -1.437647   -2.371744
     74          1           0       11.516463   -0.783533   -3.219415
     75          1           0       15.048864    1.108534    1.043017
     76          1           0        9.645086   -2.270534   -0.464439
     77          1           0       -5.573576   -1.286081    0.301030
     78          1           0       -6.958729   -1.558599    1.154698
     79          1           0       -7.183730   -1.666560   -0.562527
     80          1           0       -6.837713    2.320762   -0.223998
     81          1           0        6.527199   -3.989339    1.085920
     82          1           0        6.571655   -4.034459   -0.684861
     83          1           0        7.884504   -4.327593   -0.024799
     84          1           0        6.683975   -0.182790   -0.362206
     85          1           0       -4.455095    0.657510    0.006540
     86          1           0        4.568225   -2.570908    0.017878
     87          1           0       -4.457020    3.426172   -0.987320
     88          1           0        4.320171    0.497301   -0.583236
     89          1           0       -1.285013    4.087344   -1.678363
     90          1           0       -1.407119    4.095506    0.097117
     91          1           0       -2.683537    4.860200   -1.137887
     92          1           0       -2.110837    0.552850   -0.137922
     93          1           0        2.341790    1.366869   -0.635588
     94          1           0        2.343209   -2.201174    1.400336
     95          1           0        1.047520   -1.936682    0.274381
     96          1           0        2.633013   -2.716142   -0.560523
     97          1           0        0.380261    2.467335   -0.717983
     98          1           0        0.016500   -0.602490   -0.025425
 ---------------------------------------------------------------------

 SCF Done:  E(RCAM-B3LYP) =  -1706.95003200     A.U. after   15 cycles

 Excitation energies and oscillator strengths:

 Excited State   1:      Singlet-A      2.2501 eV  551.03 nm  f=3.0682  <S**2>=0.000
     155 ->158        -0.15760
     156 ->157         0.68793
 This state for optimization and/or second-order correction.
 Total Energy, E(TD-HF/TD-DFT) =  -1706.86734400
 Copying the excited state density for this state as the 1-particle RhoCI density.

 The electronic state is 1-A.
 Alpha  occ. eigenvalues --  -19.22573 -19.21388 -10.31521 -10.30745 -10.28397
 Alpha  occ. eigenvalues --  -10.27965 -10.27831 -10.27556 -10.27444 -10.27225
 Alpha  occ. eigenvalues --  -10.27202 -10.27183 -10.27093 -10.27062 -10.26989
 Alpha  occ. eigenvalues --  -10.26920 -10.26827 -10.26753 -10.26752 -10.26683
 Alpha  occ. eigenvalues --  -10.26523 -10.26514 -10.26455 -10.26356 -10.26353
 Alpha  occ. eigenvalues --  -10.26300 -10.26215 -10.26133 -10.26114 -10.26099
 Alpha  occ. eigenvalues --  -10.26022 -10.26015 -10.26012 -10.25725 -10.25713
 Alpha  occ. eigenvalues --  -10.25479 -10.25378 -10.25255 -10.25204 -10.25090
 Alpha  occ. eigenvalues --  -10.24961 -10.24000  -1.11035  -1.04131  -0.94479
 Alpha  occ. eigenvalues --   -0.93951  -0.92866  -0.92131  -0.90893  -0.90182
 Alpha  occ. eigenvalues --   -0.87599  -0.87425  -0.86785  -0.85634  -0.84535
 Alpha  occ. eigenvalues --   -0.82891  -0.82324  -0.80165  -0.79993  -0.78615
 Alpha  occ. eigenvalues --   -0.77660  -0.76772  -0.76526  -0.76023  -0.75741
 Alpha  occ. eigenvalues --   -0.74942  -0.74526  -0.73963  -0.73151  -0.71186
 Alpha  occ. eigenvalues --   -0.69567  -0.67451  -0.66591  -0.64743  -0.64009
 Alpha  occ. eigenvalues --   -0.63107  -0.62286  -0.61726  -0.60936  -0.59935
 Alpha  occ. eigenvalues --   -0.59151  -0.58548  -0.58037  -0.56827  -0.55767
 Alpha  occ. eigenvalues --   -0.55456  -0.55024  -0.54434  -0.54146  -0.53805
 Alpha  occ. eigenvalues --   -0.53138  -0.52594  -0.52431  -0.51964  -0.51301
 Alpha  occ. eigenvalues --   -0.50800  -0.50432  -0.49916  -0.49578  -0.49038
 Alpha  occ. eigenvalues --   -0.48921  -0.48872  -0.48620  -0.48201  -0.48081
 Alpha  occ. eigenvalues --   -0.47686  -0.47491  -0.46562  -0.46452  -0.45690
 Alpha  occ. eigenvalues --   -0.45598  -0.45497  -0.45388  -0.44986  -0.44763
 Alpha  occ. eigenvalues --   -0.44630  -0.44302  -0.44098  -0.43463  -0.43339
 Alpha  occ. eigenvalues --   -0.42887  -0.42687  -0.42243  -0.41945  -0.41739
 Alpha  occ. eigenvalues --   -0.41531  -0.41187  -0.41067  -0.40876  -0.40674
 Alpha  occ. eigenvalues --   -0.40370  -0.40156  -0.39959  -0.39808  -0.39453
 Alpha  occ. eigenvalues --   -0.39324  -0.39082  -0.38684  -0.38593  -0.38298
 Alpha  occ. eigenvalues --   -0.37713  -0.37121  -0.36885  -0.36275  -0.35265
 Alpha  occ. eigenvalues --   -0.34513  -0.34184  -0.34002  -0.33404  -0.31871
 Alpha  occ. eigenvalues --   -0.31508  -0.30540  -0.29317  -0.26811  -0.23961
 Alpha  occ. eigenvalues --   -0.19982
 Alpha virt. eigenvalues --   -0.05842  -0.01333   0.02439   0.05044   0.06849
 Alpha virt. eigenvalues --    0.08556   0.10392   0.11511   0.11752   0.12297
 Alpha virt. eigenvalues --    0.12366   0.12474   0.12946   0.13149   0.13442

 Mulliken charges:
               1
     1  O   -0.557734
     2  O   -0.525599
     3  C    0.026388
     4  C   -0.123984
     5  C   -0.169525
     6  C    0.129001
     7  C    0.109230
     8  C   -0.004262
     9  C   -0.290417
    10  C   -0.277048
    11  C   -0.186750
    12  C   -0.189413
    13  C    0.146499
    14  C    0.047899
    15  C   -0.120087
    16  C   -0.227838
    17  C    0.053371
    18  C   -0.305201
    19  C   -0.300865
    20  C   -0.330506
    21  C   -0.092844
    22  C   -0.094955
    23  C   -0.367983
    24  C    0.117653
    25  C   -0.125777
    26  C   -0.393601
    27  C    0.098054
    28  C   -0.115915
    29  C   -0.384985
    30  C   -0.120951
    31  C   -0.029867
    32  C   -0.095184
    33  C   -0.113748
    34  C    0.103603
    35  C   -0.078733
    36  C    0.074723
    37  C   -0.369583
    38  C   -0.125371
    39  C   -0.115755
    40  C   -0.340149
    41  C   -0.093363
    42  C   -0.075612
    43  H    0.087650
    44  H    0.112751
    45  H    0.087266
    46  H    0.083689
    47  H    0.116285
    48  H    0.070737
    49  H    0.088379
    50  H    0.087410
    51  H    0.121202
    52  H    0.075113
    53  H    0.096334
    54  H    0.065676
    55  H    0.086973
    56  H    0.100718
    57  H    0.087598
    58  H    0.061765
    59  H    0.114782
    60  H    0.114354
    61  H    0.111046
    62  H    0.087591
    63  H    0.103875
    64  H    0.111134
    65  H    0.075374
    66  H    0.104479
    67  H    0.125869
    68  H    0.116727
    69  H    0.295150
    70  H    0.073382
    71  H    0.082664
    72  H    0.117170
    73  H    0.111476
    74  H    0.116015
    75  H    0.306867
    76  H    0.093599
    77  H    0.100362
    78  H    0.122486
    79  H    0.135685
    80  H    0.074280
    81  H    0.116247
    82  H    0.127049
    83  H    0.100365
    84  H    0.084957
    85  H    0.060159
    86  H    0.086243
    87  H    0.079399
    88  H    0.063186
    89  H    0.134170
    90  H    0.117718
    91  H    0.103804
    92  H    0.085883
    93  H    0.073179
    94  H    0.106000
    95  H    0.106442
    96  H    0.114281
    97  H    0.071529
    98  H    0.082658
 Sum of Mulliken charges =  -0.00000

 Dipole moment (field-independent basis, Debye):
    X=              1.0456    Y=             -0.2783    Z=             -0.9166  Tot=              1.4181
 Quadrupole moment (field-independent basis, Debye-Ang):
   XX=           -319.9385   YY=           -247.8648   ZZ=           -259.2066
   XY=             -9.1609   XZ=             42.2517   YZ=              2.2521

 Normal termination of Gaussian 16 at Fri Jul 12 18:53:15 2019.
