 Gaussian 16, Revision A.03,
 Gaussian 16:  ES64L-G16RevA.03 25-Dec-2016

 -------------------------------------
 # td=(NStates=1) CAM-B3LYP/6-31G(d,p)
 -------------------------------------

 --
 TD
 --
 Symbolic Z-matrix:
 Charge =  0 Multiplicity = 1

                         Standard orientation:
 ---------------------------------------------------------------------
 Center     Atomic      Atomic             Coordinates (Angstroms)
 Number     Number       Type             X           Y           Z
 ---------------------------------------------------------------------
      1          8           0      -13.959385   -2.254921    0.484540
      2          8           0       14.749301    0.758592    0.123606
      3          6           0      -11.844121    0.044890    1.222557
      4          6           0      -10.901972    0.309893   -0.128874
      5          6           0      -11.903061   -1.532975    1.378865
      6          6           0      -12.641975   -2.190001    0.346294
      7          6           0      -11.510051   -0.563383   -1.236666
      8          6           0       11.106522    1.077790    1.028130
      9          6           0      -11.105336    0.627552    2.372181
     10          6           0      -13.163436    0.737865    1.075859
     11          6           0       12.594473    1.422318    0.690249
     12          6           0      -12.271357   -1.578160   -1.114150
     13          6           0       13.480396    0.263489    0.401883
     14          6           0       10.619690   -0.099373   -0.045554
     15          6           0       -9.463911   -0.017314    0.088049
     16          6           0       12.983799   -0.366649   -0.815401
     17          6           0       11.516961   -0.561859   -0.911086
     18          6           0       10.240682    2.259791    0.823357
     19          6           0       10.976971    0.481096    2.465818
     20          6           0      -11.423044    0.099074   -2.640871
     21          6           0       -8.493233    0.885679   -0.124115
     22          6           0        9.190310   -0.470364    0.008064
     23          6           0       11.079411   -1.370936   -2.269221
     24          6           0       -7.086127    0.529811   -0.109762
     25          6           0        8.799828   -1.675842   -0.081950
     26          6           0       -6.639291   -0.929516    0.359554
     27          6           0        7.397458   -2.100945   -0.006017
     28          6           0       -6.220513    1.576236   -0.348266
     29          6           0        7.259844   -3.596139    0.143555
     30          6           0        6.348358   -1.148386   -0.154500
     31          6           0       -4.830526    1.502522   -0.330687
     32          6           0        4.990513   -1.525351    0.015448
     33          6           0       -4.000754    2.541273   -0.637145
     34          6           0       -2.654736    2.649876   -0.549108
     35          6           0        4.058973   -0.520698   -0.158910
     36          6           0        2.596267   -0.688370   -0.086238
     37          6           0       -2.174363    3.989533   -0.878857
     38          6           0       -1.773086    1.605489   -0.406297
     39          6           0        1.813465    0.448831   -0.221045
     40          6           0        2.108622   -2.132306    0.090560
     41          6           0       -0.432775    1.535437   -0.412460
     42          6           0        0.372198    0.367984   -0.138792
     43          1           0      -11.133672    1.472195   -0.283007
     44          1           0      -12.321379   -1.611610    2.530602
     45          1           0      -10.911208   -2.037032    1.636771
     46          1           0      -12.168233   -3.300688    0.188986
     47          1           0      -10.154121    0.143702    2.634320
     48          1           0      -10.666845    1.815689    1.929198
     49          1           0      -11.782548    0.807703    3.356981
     50          1           0      -13.600502    0.301355    0.200775
     51          1           0      -13.833329    0.473971    2.022558
     52          1           0      -12.890133    1.914394    1.211940
     53          1           0       12.502415    2.074250   -0.238745
     54          1           0       13.064949    2.012572    1.497897
     55          1           0      -12.408514   -1.935658   -2.040649
     56          1           0       13.620089   -0.490016    1.262271
     57          1           0       -9.069652   -1.016960    0.090601
     58          1           0       13.450194   -1.374370   -1.086099
     59          1           0       13.049167    0.199496   -1.768097
     60          1           0        9.199684    2.060703    1.130784
     61          1           0       10.284542    2.671311   -0.122761
     62          1           0       10.707218    3.101713    1.639815
     63          1           0       11.792159   -0.520141    2.454766
     64          1           0        9.986718    0.151090    2.452913
     65          1           0       11.242540    1.147228    3.037558
     66          1           0      -10.435694   -0.011276   -3.118792
     67          1           0      -11.790711    1.124135   -2.526470
     68          1           0      -12.125534   -0.297884   -3.361910
     69          1           0      -14.584616   -2.481145   -0.379255
     70          1           0        8.684952    0.356806    0.353551
     71          1           0       -8.564406    1.948934   -0.507574
     72          1           0       11.512006   -2.490030   -2.132571
     73          1           0       10.029710   -1.251374   -2.374821
     74          1           0       11.551779   -0.672464   -3.046866
     75          1           0       15.154896    1.053947    0.967512
     76          1           0        9.731719   -2.529363   -0.367104
     77          1           0       -5.529480   -0.979381    0.922412
     78          1           0       -7.472825   -1.268268    1.084489
     79          1           0       -6.731354   -1.655218   -0.592876
     80          1           0       -6.626134    2.516622   -0.590142
     81          1           0        7.095524   -4.141473    1.232405
     82          1           0        6.455715   -3.863948   -0.338525
     83          1           0        8.190457   -4.176596   -0.244028
     84          1           0        6.657066   -0.209960   -0.274870
     85          1           0       -4.472210    0.459025   -0.726258
     86          1           0        4.708487   -2.440269    0.278486
     87          1           0       -4.602683    3.428463   -0.757361
     88          1           0        4.497433    0.455726   -0.494858
     89          1           0       -1.718431    4.015469   -1.749535
     90          1           0       -1.235555    4.279623   -0.206051
     91          1           0       -3.083005    4.636892   -1.051194
     92          1           0       -2.149671    0.805360   -0.031158
     93          1           0        2.650888    1.352544   -0.668200
     94          1           0        2.450216   -2.587901    1.061424
     95          1           0        1.066984   -2.042843    0.321184
     96          1           0        2.462330   -2.797133   -0.688982
     97          1           0        0.053636    2.639015   -0.711813
     98          1           0       -0.116783   -0.593478   -0.111522
 ---------------------------------------------------------------------

 SCF Done:  E(RCAM-B3LYP) =  -1706.79440045     A.U. after   15 cycles

 Excitation energies and oscillator strengths:

 Excited State   1:      Singlet-A      2.0398 eV  607.83 nm  f=2.9552  <S**2>=0.000
     155 ->158        -0.13424
     156 ->157         0.69784
     156 <-157        -0.10331
 This state for optimization and/or second-order correction.
 Total Energy, E(TD-HF/TD-DFT) =  -1706.71944001
 Copying the excited state density for this state as the 1-particle RhoCI density.

 The electronic state is 1-A.
 Alpha  occ. eigenvalues --  -19.22492 -19.20783 -10.32203 -10.30265 -10.29267
 Alpha  occ. eigenvalues --  -10.28524 -10.28003 -10.27740 -10.27685 -10.27661
 Alpha  occ. eigenvalues --  -10.27479 -10.27478 -10.27157 -10.26646 -10.26596
 Alpha  occ. eigenvalues --  -10.26588 -10.26450 -10.26434 -10.26329 -10.26231
 Alpha  occ. eigenvalues --  -10.26188 -10.26072 -10.26032 -10.25824 -10.25796
 Alpha  occ. eigenvalues --  -10.25748 -10.25712 -10.25677 -10.25498 -10.25409
 Alpha  occ. eigenvalues --  -10.25363 -10.25328 -10.25306 -10.24980 -10.24937
 Alpha  occ. eigenvalues --  -10.24846 -10.24685 -10.24651 -10.24040 -10.23863
 Alpha  occ. eigenvalues --  -10.23457 -10.23397  -1.11094  -1.10310  -0.93317
 Alpha  occ. eigenvalues --   -0.93057  -0.92934  -0.91373  -0.90585  -0.89764
 Alpha  occ. eigenvalues --   -0.87403  -0.87118  -0.86945  -0.86139  -0.84776
 Alpha  occ. eigenvalues --   -0.82912  -0.82064  -0.80323  -0.80140  -0.79029
 Alpha  occ. eigenvalues --   -0.76883  -0.76275  -0.76017  -0.75518  -0.75287
 Alpha  occ. eigenvalues --   -0.74750  -0.74582  -0.73928  -0.72980  -0.70452
 Alpha  occ. eigenvalues --   -0.68790  -0.66954  -0.66468  -0.65180  -0.63471
 Alpha  occ. eigenvalues --   -0.62366  -0.62219  -0.60640  -0.60528  -0.59998
 Alpha  occ. eigenvalues --   -0.59036  -0.59010  -0.58777  -0.57848  -0.57074
 Alpha  occ. eigenvalues --   -0.55562  -0.55336  -0.54961  -0.54040  -0.53846
 Alpha  occ. eigenvalues --   -0.53412  -0.52876  -0.52699  -0.51729  -0.51187
 Alpha  occ. eigenvalues --   -0.50730  -0.50513  -0.50114  -0.49754  -0.49238
 Alpha  occ. eigenvalues --   -0.48893  -0.48681  -0.48155  -0.48108  -0.47708
 Alpha  occ. eigenvalues --   -0.47561  -0.47090  -0.46670  -0.46413  -0.45916
 Alpha  occ. eigenvalues --   -0.45537  -0.45166  -0.44965  -0.44757  -0.44491
 Alpha  occ. eigenvalues --   -0.44136  -0.43657  -0.43462  -0.43339  -0.43110
 Alpha  occ. eigenvalues --   -0.43040  -0.42815  -0.42489  -0.41928  -0.41709
 Alpha  occ. eigenvalues --   -0.41678  -0.41205  -0.41081  -0.40857  -0.40480
 Alpha  occ. eigenvalues --   -0.39998  -0.39641  -0.39584  -0.39230  -0.38775
 Alpha  occ. eigenvalues --   -0.38723  -0.38671  -0.38480  -0.38153  -0.37929
 Alpha  occ. eigenvalues --   -0.37699  -0.36941  -0.36356  -0.35793  -0.35568
 Alpha  occ. eigenvalues --   -0.35158  -0.33652  -0.32978  -0.31935  -0.31892
 Alpha  occ. eigenvalues --   -0.31667  -0.28913  -0.28302  -0.26715  -0.23586
 Alpha  occ. eigenvalues --   -0.19148
 Alpha virt. eigenvalues --   -0.06404  -0.00782   0.03284   0.06359   0.07216
 Alpha virt. eigenvalues --    0.08992   0.09834   0.10588   0.11192   0.11327
 Alpha virt. eigenvalues --    0.11554   0.11857   0.11989   0.12457   0.12788

 Mulliken charges:
               1
     1  O   -0.544011
     2  O   -0.554431
     3  C    0.032776
     4  C   -0.142710
     5  C   -0.185332
     6  C    0.223366
     7  C    0.102476
     8  C   -0.037605
     9  C   -0.277261
    10  C   -0.270491
    11  C   -0.181620
    12  C   -0.160736
    13  C    0.186641
    14  C    0.026911
    15  C   -0.096187
    16  C   -0.194330
    17  C   -0.019039
    18  C   -0.288000
    19  C   -0.243804
    20  C   -0.361265
    21  C   -0.058386
    22  C   -0.076391
    23  C   -0.337822
    24  C    0.099291
    25  C   -0.096785
    26  C   -0.364895
    27  C    0.055568
    28  C   -0.130982
    29  C   -0.357390
    30  C   -0.090748
    31  C   -0.087567
    32  C   -0.051087
    33  C   -0.139536
    34  C    0.142116
    35  C   -0.129271
    36  C    0.100566
    37  C   -0.389978
    38  C   -0.082953
    39  C   -0.100744
    40  C   -0.372304
    41  C   -0.073543
    42  C   -0.144762
    43  H    0.081503
    44  H    0.083922
    45  H    0.105811
    46  H    0.031223
    47  H    0.109091
    48  H    0.038693
    49  H    0.082169
    50  H    0.111997
    51  H    0.091682
    52  H    0.083302
    53  H    0.097726
    54  H    0.067876
    55  H    0.070439
    56  H    0.071382
    57  H    0.095497
    58  H    0.098805
    59  H    0.117852
    60  H    0.103510
    61  H    0.121090
    62  H    0.061150
    63  H    0.061155
    64  H    0.110380
    65  H    0.101765
    66  H    0.114505
    67  H    0.114798
    68  H    0.099978
    69  H    0.331247
    70  H    0.069772
    71  H    0.082340
    72  H    0.100860
    73  H    0.131843
    74  H    0.100698
    75  H    0.302320
    76  H    0.073082
    77  H    0.110297
    78  H    0.116312
    79  H    0.111634
    80  H    0.078151
    81  H    0.091463
    82  H    0.125976
    83  H    0.105865
    84  H    0.076589
    85  H    0.088214
    86  H    0.077905
    87  H    0.073538
    88  H    0.074376
    89  H    0.145701
    90  H    0.104076
    91  H    0.103765
    92  H    0.059740
    93  H    0.082624
    94  H    0.116357
    95  H    0.108392
    96  H    0.135869
    97  H    0.055827
    98  H    0.110124
 Sum of Mulliken charges =  -0.00000

 Dipole moment (field-independent basis, Debye):
    X=             -0.8448    Y=             -0.8793    Z=             -1.0259  Tot=              1.5935
 Quadrupole moment (field-independent basis, Debye-Ang):
   XX=           -260.5965   YY=           -248.6085   ZZ=           -263.0539
   XY=              8.2236   XZ=             41.2336   YZ=              0.3974

 Normal termination of Gaussian 16 at Sun Jul 14 13:17:58 2019.
