 Gaussian 16, Revision A.03,
 Gaussian 16:  ES64L-G16RevA.03 25-Dec-2016

 -------------------------------------
 # td=(NStates=1) CAM-B3LYP/6-31G(d,p)
 -------------------------------------

 --
 TD
 --
 Symbolic Z-matrix:
 Charge =  0 Multiplicity = 1

                         Standard orientation:
 ---------------------------------------------------------------------
 Center     Atomic      Atomic             Coordinates (Angstroms)
 Number     Number       Type             X           Y           Z
 ---------------------------------------------------------------------
      1          8           0      -14.088296   -2.000906    0.346850
      2          8           0       14.855442    0.841343    0.141545
      3          6           0      -11.802087    0.073674    1.296361
      4          6           0      -10.990989    0.419001   -0.030446
      5          6           0      -12.052325   -1.448874    1.360683
      6          6           0      -12.734247   -1.980669    0.079918
      7          6           0      -11.551026   -0.264267   -1.233579
      8          6           0       11.202837    1.021471    0.978766
      9          6           0      -11.085093    0.439251    2.553101
     10          6           0      -13.201860    0.852737    1.175661
     11          6           0       12.664815    1.578762    0.677229
     12          6           0      -12.280467   -1.344678   -1.121270
     13          6           0       13.488405    0.379338    0.421928
     14          6           0       10.809819   -0.009283   -0.035205
     15          6           0       -9.608271   -0.031774    0.080812
     16          6           0       13.025489   -0.122761   -0.932214
     17          6           0       11.665639   -0.535520   -0.967034
     18          6           0       10.332851    2.246281    0.941095
     19          6           0       11.097879    0.419552    2.368464
     20          6           0      -11.262755    0.440629   -2.555518
     21          6           0       -8.583086    0.786027   -0.118559
     22          6           0        9.327634   -0.340685    0.092819
     23          6           0       11.099020   -1.342122   -2.121289
     24          6           0       -7.161950    0.411177   -0.106165
     25          6           0        8.829550   -1.595739   -0.094744
     26          6           0       -6.689708   -0.988997    0.213632
     27          6           0        7.480270   -2.069987   -0.032314
     28          6           0       -6.330852    1.475464   -0.302899
     29          6           0        7.121546   -3.549200    0.173746
     30          6           0        6.438324   -1.256640   -0.214825
     31          6           0       -4.896108    1.322025   -0.381723
     32          6           0        5.035873   -1.511505   -0.102417
     33          6           0       -4.021494    2.379412   -0.616339
     34          6           0       -2.612773    2.426011   -0.625356
     35          6           0        4.015251   -0.585435   -0.263386
     36          6           0        2.585199   -0.911426   -0.183522
     37          6           0       -2.007265    3.767612   -0.833368
     38          6           0       -1.792772    1.424975   -0.544040
     39          6           0        1.816616    0.191125   -0.353891
     40          6           0        2.100781   -2.333060    0.238457
     41          6           0       -0.419781    1.434162   -0.484858
     42          6           0        0.320209    0.272756   -0.232511
     43          1           0      -11.045396    1.610718   -0.053131
     44          1           0      -12.570193   -1.730643    2.151135
     45          1           0      -11.043347   -1.819639    1.435033
     46          1           0      -12.455007   -3.211415    0.119148
     47          1           0      -10.221751   -0.027716    2.898659
     48          1           0      -10.856070    1.601399    2.631984
     49          1           0      -11.602134    0.317924    3.367985
     50          1           0      -13.603070    0.608134    0.085728
     51          1           0      -14.010754    0.433231    1.756247
     52          1           0      -12.926617    1.913405    1.638998
     53          1           0       12.536691    2.243024   -0.211417
     54          1           0       12.982517    1.903948    1.790913
     55          1           0      -12.411291   -1.871264   -2.140742
     56          1           0       13.436589   -0.229675    1.161160
     57          1           0       -9.423467   -1.199469    0.250300
     58          1           0       13.409762   -1.164133   -0.853900
     59          1           0       13.105335    0.515663   -1.826708
     60          1           0        9.245131    2.148267    1.424637
     61          1           0       10.137253    2.690621   -0.030472
     62          1           0       10.739290    3.156399    1.560321
     63          1           0       11.775201   -0.506496    2.721937
     64          1           0        9.995595   -0.033566    2.457571
     65          1           0       11.296511    1.258284    3.195842
     66          1           0      -10.323904    0.679913   -2.730643
     67          1           0      -11.780996    1.330948   -2.408669
     68          1           0      -11.703468   -0.280571   -3.243099
     69          1           0      -14.564985   -2.360040   -0.483408
     70          1           0        8.527645    0.495835    0.220118
     71          1           0       -8.785132    1.841160   -0.295152
     72          1           0       11.145198   -2.499637   -1.775182
     73          1           0       10.016453   -1.194080   -2.474627
     74          1           0       11.757848   -0.864281   -2.895350
     75          1           0       15.266892    1.295132    1.019897
     76          1           0        9.731596   -2.498979    0.204521
     77          1           0       -5.636062   -1.190154    0.493891
     78          1           0       -6.931642   -1.231163    1.365736
     79          1           0       -7.152624   -1.768178   -0.362223
     80          1           0       -6.692846    2.489993   -0.513121
     81          1           0        6.676209   -3.685582    1.085494
     82          1           0        6.418605   -3.898852   -0.547928
     83          1           0        8.042709   -4.058924    0.054264
     84          1           0        6.715876   -0.217220   -0.341102
     85          1           0       -4.421283    0.358400   -0.352725
     86          1           0        4.630538   -2.446602    0.174532
     87          1           0       -4.585472    3.333373   -0.442131
     88          1           0        4.236436    0.287081   -0.278876
     89          1           0       -1.138445    3.840184   -1.602685
     90          1           0       -1.221715    4.096841   -0.125916
     91          1           0       -2.717380    4.726239   -1.080782
     92          1           0       -2.294206    0.331977   -0.368599
     93          1           0        2.220214    1.188794   -0.815109
     94          1           0        2.351692   -2.622219    1.193561
     95          1           0        1.095769   -2.559777    0.175628
     96          1           0        2.682167   -3.214644   -0.410945
     97          1           0       -0.089518    2.224782   -0.801181
     98          1           0       -0.342736   -0.493169   -0.067763
 ---------------------------------------------------------------------

 SCF Done:  E(RCAM-B3LYP) =  -1706.85293815     A.U. after   14 cycles

 Excitation energies and oscillator strengths:

 Excited State   1:      Singlet-A      2.5241 eV  491.19 nm  f=3.0620  <S**2>=0.000
     155 ->158        -0.18135
     156 ->157         0.67975
 This state for optimization and/or second-order correction.
 Total Energy, E(TD-HF/TD-DFT) =  -1706.76017771
 Copying the excited state density for this state as the 1-particle RhoCI density.

 The electronic state is 1-A.
 Alpha  occ. eigenvalues --  -19.21757 -19.21005 -10.31279 -10.29032 -10.28304
 Alpha  occ. eigenvalues --  -10.27805 -10.27758 -10.27482 -10.27208 -10.27100
 Alpha  occ. eigenvalues --  -10.26984 -10.26946 -10.26831 -10.26817 -10.26801
 Alpha  occ. eigenvalues --  -10.26702 -10.26685 -10.26607 -10.26546 -10.26398
 Alpha  occ. eigenvalues --  -10.26377 -10.26342 -10.26281 -10.26277 -10.26102
 Alpha  occ. eigenvalues --  -10.25942 -10.25936 -10.25931 -10.25619 -10.25610
 Alpha  occ. eigenvalues --  -10.25490 -10.25475 -10.25224 -10.24979 -10.24926
 Alpha  occ. eigenvalues --  -10.24768 -10.24543 -10.24319 -10.23978 -10.23769
 Alpha  occ. eigenvalues --  -10.23046 -10.22735  -1.10174  -1.06168  -0.94573
 Alpha  occ. eigenvalues --   -0.94236  -0.92986  -0.91583  -0.90776  -0.89936
 Alpha  occ. eigenvalues --   -0.88147  -0.87457  -0.86990  -0.85385  -0.84773
 Alpha  occ. eigenvalues --   -0.82978  -0.82017  -0.80904  -0.80251  -0.78332
 Alpha  occ. eigenvalues --   -0.77386  -0.76825  -0.76637  -0.76159  -0.75504
 Alpha  occ. eigenvalues --   -0.75293  -0.74635  -0.74423  -0.73361  -0.70746
 Alpha  occ. eigenvalues --   -0.69056  -0.67904  -0.66923  -0.65661  -0.63976
 Alpha  occ. eigenvalues --   -0.63687  -0.62853  -0.62733  -0.62206  -0.60561
 Alpha  occ. eigenvalues --   -0.59869  -0.58856  -0.58404  -0.57452  -0.56475
 Alpha  occ. eigenvalues --   -0.55437  -0.54927  -0.54581  -0.53922  -0.53541
 Alpha  occ. eigenvalues --   -0.52909  -0.52648  -0.52350  -0.52283  -0.51136
 Alpha  occ. eigenvalues --   -0.50869  -0.50481  -0.50428  -0.50194  -0.49471
 Alpha  occ. eigenvalues --   -0.49112  -0.48762  -0.48522  -0.48250  -0.48017
 Alpha  occ. eigenvalues --   -0.47889  -0.47705  -0.46625  -0.46385  -0.46152
 Alpha  occ. eigenvalues --   -0.46035  -0.45786  -0.45147  -0.44857  -0.44647
 Alpha  occ. eigenvalues --   -0.44598  -0.44494  -0.44169  -0.43759  -0.43216
 Alpha  occ. eigenvalues --   -0.42937  -0.42823  -0.42521  -0.42262  -0.41909
 Alpha  occ. eigenvalues --   -0.41766  -0.41160  -0.41153  -0.41069  -0.40750
 Alpha  occ. eigenvalues --   -0.40273  -0.40134  -0.39854  -0.39628  -0.39425
 Alpha  occ. eigenvalues --   -0.39070  -0.38365  -0.38110  -0.37924  -0.37734
 Alpha  occ. eigenvalues --   -0.37494  -0.36565  -0.35909  -0.35327  -0.35306
 Alpha  occ. eigenvalues --   -0.35008  -0.34759  -0.33549  -0.31763  -0.31472
 Alpha  occ. eigenvalues --   -0.31207  -0.29947  -0.28877  -0.27003  -0.23576
 Alpha  occ. eigenvalues --   -0.20429
 Alpha virt. eigenvalues --   -0.04708  -0.00858   0.02980   0.05789   0.07276
 Alpha virt. eigenvalues --    0.09036   0.10434   0.10914   0.11195   0.11543
 Alpha virt. eigenvalues --    0.12114   0.12485   0.12981   0.13384   0.13721

 Mulliken charges:
               1
     1  O   -0.537698
     2  O   -0.584191
     3  C    0.017617
     4  C   -0.157835
     5  C   -0.159022
     6  C    0.147204
     7  C    0.106191
     8  C   -0.016003
     9  C   -0.309838
    10  C   -0.301956
    11  C   -0.178499
    12  C   -0.128559
    13  C    0.204235
    14  C    0.074160
    15  C   -0.063563
    16  C   -0.214581
    17  C    0.009150
    18  C   -0.305295
    19  C   -0.292138
    20  C   -0.327240
    21  C   -0.094497
    22  C   -0.119957
    23  C   -0.319784
    24  C    0.132488
    25  C   -0.113745
    26  C   -0.381881
    27  C    0.081655
    28  C   -0.136619
    29  C   -0.363894
    30  C   -0.106746
    31  C   -0.064884
    32  C   -0.089625
    33  C   -0.154682
    34  C    0.189278
    35  C   -0.053467
    36  C    0.118745
    37  C   -0.414143
    38  C   -0.155083
    39  C   -0.154279
    40  C   -0.372372
    41  C   -0.004005
    42  C   -0.086546
    43  H    0.079805
    44  H    0.110156
    45  H    0.090038
    46  H    0.024902
    47  H    0.106766
    48  H    0.066971
    49  H    0.113951
    50  H    0.097745
    51  H    0.115472
    52  H    0.079131
    53  H    0.108400
    54  H    0.063394
    55  H    0.063255
    56  H    0.089616
    57  H    0.088873
    58  H    0.119179
    59  H    0.131989
    60  H    0.081247
    61  H    0.109603
    62  H    0.089652
    63  H    0.084554
    64  H    0.104549
    65  H    0.082736
    66  H    0.129143
    67  H    0.128292
    68  H    0.102081
    69  H    0.306194
    70  H    0.095881
    71  H    0.080770
    72  H    0.105229
    73  H    0.128165
    74  H    0.094039
    75  H    0.295208
    76  H    0.048342
    77  H    0.123937
    78  H    0.100631
    79  H    0.131027
    80  H    0.089072
    81  H    0.131583
    82  H    0.124485
    83  H    0.103900
    84  H    0.061608
    85  H    0.080601
    86  H    0.067131
    87  H    0.073169
    88  H    0.043529
    89  H    0.109533
    90  H    0.122300
    91  H    0.099677
    92  H    0.049567
    93  H    0.093294
    94  H    0.140626
    95  H    0.124438
    96  H    0.092134
    97  H    0.030905
    98  H    0.073434
 Sum of Mulliken charges =  -0.00000

 Dipole moment (field-independent basis, Debye):
    X=             -0.2974    Y=             -0.6068    Z=              0.5193  Tot=              0.8522
 Quadrupole moment (field-independent basis, Debye-Ang):
   XX=           -282.9862   YY=           -245.7331   ZZ=           -261.4052
   XY=              9.5068   XZ=             34.5720   YZ=             -1.1186

 Normal termination of Gaussian 16 at Fri Jul 12 17:18:42 2019.
