 Gaussian 16, Revision A.03,
 Gaussian 16:  ES64L-G16RevA.03 25-Dec-2016

 -------------------------------------
 # td=(NStates=1) CAM-B3LYP/6-31G(d,p)
 -------------------------------------

 --
 TD
 --
 Symbolic Z-matrix:
 Charge =  0 Multiplicity = 1

                         Standard orientation:
 ---------------------------------------------------------------------
 Center     Atomic      Atomic             Coordinates (Angstroms)
 Number     Number       Type             X           Y           Z
 ---------------------------------------------------------------------
      1          8           0       14.046761   -1.984361   -0.622293
      2          8           0      -14.827303    0.916439   -0.014464
      3          6           0       11.739116   -0.046451   -1.136359
      4          6           0       10.890890    0.211290    0.099931
      5          6           0       11.960104   -1.544970   -1.443693
      6          6           0       12.613756   -2.113302   -0.236997
      7          6           0       11.632945   -0.540088    1.387568
      8          6           0      -11.108593    0.936435   -1.021513
      9          6           0       10.969259    0.554851   -2.385140
     10          6           0       13.091204    0.772307   -1.110113
     11          6           0      -12.496305    1.431587   -0.654575
     12          6           0       12.390233   -1.516209    1.172248
     13          6           0      -13.511453    0.368407   -0.250968
     14          6           0      -10.623429   -0.162613    0.096957
     15          6           0        9.447333   -0.164310    0.064581
     16          6           0      -12.942161   -0.245792    1.113138
     17          6           0      -11.403762   -0.598144    1.023253
     18          6           0      -10.111376    2.090949   -1.026545
     19          6           0      -11.146365    0.255459   -2.326858
     20          6           0       11.203958    0.038717    2.687395
     21          6           0        8.506004    0.807707    0.291584
     22          6           0       -9.226976   -0.583259    0.008659
     23          6           0      -11.061851   -1.404508    2.220749
     24          6           0        7.043276    0.553365    0.197168
     25          6           0       -8.769116   -1.794652    0.204220
     26          6           0        6.620976   -0.835521    0.066890
     27          6           0       -7.362251   -2.155261    0.033350
     28          6           0        6.131672    1.602991    0.402498
     29          6           0       -7.046778   -3.605482   -0.098825
     30          6           0       -6.352647   -1.224651    0.041680
     31          6           0        4.729428    1.477853    0.360659
     32          6           0       -4.987556   -1.488601   -0.145081
     33          6           0        3.971550    2.675878    0.547778
     34          6           0        2.633191    2.708881    0.527624
     35          6           0       -3.922074   -0.543878   -0.071396
     36          6           0       -2.534742   -0.650186   -0.224142
     37          6           0        2.004384    4.064257    0.877163
     38          6           0        1.735863    1.664316    0.307895
     39          6           0       -1.764907    0.449579    0.110220
     40          6           0       -2.046195   -2.067104   -0.454332
     41          6           0        0.358811    1.612208    0.270799
     42          6           0       -0.380850    0.491680    0.104543
     43          1           0       10.942472    1.308015    0.413863
     44          1           0       12.420635   -1.688788   -2.513942
     45          1           0       10.873930   -2.113218   -1.271457
     46          1           0       12.494442   -3.257374   -0.211836
     47          1           0       10.041314    0.212917   -2.565136
     48          1           0       10.653403    1.651258   -2.290690
     49          1           0       11.368493    0.220187   -3.406524
     50          1           0       13.769660    0.412893   -0.416552
     51          1           0       13.706179    0.650455   -2.139980
     52          1           0       12.834114    1.744299   -0.905471
     53          1           0      -12.526784    2.253737    0.142403
     54          1           0      -12.710019    2.112821   -1.388192
     55          1           0       12.762058   -2.019825    2.039518
     56          1           0      -13.507813   -0.556910   -1.037940
     57          1           0        9.051619   -1.157302   -0.214054
     58          1           0      -13.451013   -1.137436    1.455541
     59          1           0      -12.959235    0.648063    2.056005
     60          1           0       -9.008515    1.806456   -1.208322
     61          1           0      -10.222070    2.730284   -0.034557
     62          1           0      -10.582190    2.812773   -1.677142
     63          1           0      -12.020606   -0.457156   -2.315739
     64          1           0      -10.319232   -0.156126   -2.765797
     65          1           0      -11.529263    0.945209   -3.144607
     66          1           0       10.083947   -0.337525    3.031003
     67          1           0       11.343494    1.233221    2.676582
     68          1           0       11.772069   -0.738083    3.424904
     69          1           0       14.563083   -2.493333    0.047463
     70          1           0       -8.455193    0.198097   -0.585646
     71          1           0        8.694243    1.873587    0.280161
     72          1           0      -11.481898   -2.311085    2.066906
     73          1           0       -9.976432   -1.341044    2.177844
     74          1           0      -11.502042   -1.127498    3.229099
     75          1           0      -15.146335    1.435076   -0.878103
     76          1           0       -9.387794   -2.652473    0.332258
     77          1           0        5.604749   -1.015852   -0.022992
     78          1           0        7.121478   -1.133569   -0.832752
     79          1           0        7.061868   -1.395052    1.008488
     80          1           0        6.535021    2.648198    0.536233
     81          1           0       -6.683717   -3.966811   -0.935150
     82          1           0       -6.103989   -3.822500    0.669365
     83          1           0       -8.073987   -4.311960    0.374452
     84          1           0       -6.808818   -0.210978    0.142080
     85          1           0        4.322382    0.369522    0.077596
     86          1           0       -4.642439   -2.327082   -0.592732
     87          1           0        4.447738    3.687136    0.776013
     88          1           0       -4.460387    0.415994    0.119763
     89          1           0        1.141329    3.919528    1.393708
     90          1           0        1.853769    4.405463   -0.390561
     91          1           0        2.731055    4.802628    1.438406
     92          1           0        2.206702    0.742923    0.024862
     93          1           0       -2.091038    1.393256    0.238986
     94          1           0       -2.614635   -2.491226   -1.282222
     95          1           0       -1.027261   -2.232959   -0.722966
     96          1           0       -2.081981   -2.727687    0.470175
     97          1           0       -0.217295    2.586362    0.511436
     98          1           0        0.187655   -0.398533   -0.102090
 ---------------------------------------------------------------------

 SCF Done:  E(RCAM-B3LYP) =  -1706.90045239     A.U. after   16 cycles

 Excitation energies and oscillator strengths:

 Excited State   1:      Singlet-A      1.9501 eV  635.80 nm  f=3.0525  <S**2>=0.000
     155 ->158        -0.13951
     156 ->157         0.69712
     156 <-157        -0.10676
 This state for optimization and/or second-order correction.
 Total Energy, E(TD-HF/TD-DFT) =  -1706.82878920
 Copying the excited state density for this state as the 1-particle RhoCI density.

 The electronic state is 1-A.
 Alpha  occ. eigenvalues --  -19.22206 -19.20195 -10.32466 -10.31707 -10.29030
 Alpha  occ. eigenvalues --  -10.28684 -10.27742 -10.27627 -10.27596 -10.27471
 Alpha  occ. eigenvalues --  -10.27408 -10.27300 -10.27236 -10.27224 -10.27111
 Alpha  occ. eigenvalues --  -10.26975 -10.26845 -10.26763 -10.26730 -10.26610
 Alpha  occ. eigenvalues --  -10.26573 -10.26499 -10.26401 -10.26174 -10.25865
 Alpha  occ. eigenvalues --  -10.25864 -10.25807 -10.25698 -10.25535 -10.25280
 Alpha  occ. eigenvalues --  -10.25132 -10.25073 -10.25047 -10.24994 -10.24970
 Alpha  occ. eigenvalues --  -10.24935 -10.24900 -10.24809 -10.23996 -10.23622
 Alpha  occ. eigenvalues --  -10.23524 -10.22980  -1.07192  -1.06896  -0.93517
 Alpha  occ. eigenvalues --   -0.93425  -0.92674  -0.91692  -0.90874  -0.90319
 Alpha  occ. eigenvalues --   -0.88157  -0.87404  -0.87175  -0.85374  -0.84381
 Alpha  occ. eigenvalues --   -0.82848  -0.81772  -0.80520  -0.79958  -0.78963
 Alpha  occ. eigenvalues --   -0.76604  -0.76594  -0.76355  -0.75650  -0.75574
 Alpha  occ. eigenvalues --   -0.75343  -0.74927  -0.74567  -0.72757  -0.70197
 Alpha  occ. eigenvalues --   -0.68564  -0.67161  -0.66570  -0.64697  -0.63464
 Alpha  occ. eigenvalues --   -0.63146  -0.62527  -0.61775  -0.61061  -0.59345
 Alpha  occ. eigenvalues --   -0.59299  -0.58231  -0.57378  -0.56960  -0.56346
 Alpha  occ. eigenvalues --   -0.55997  -0.55380  -0.54816  -0.54265  -0.53777
 Alpha  occ. eigenvalues --   -0.53268  -0.52437  -0.52192  -0.51709  -0.50898
 Alpha  occ. eigenvalues --   -0.50569  -0.50187  -0.49716  -0.49521  -0.49409
 Alpha  occ. eigenvalues --   -0.48940  -0.48579  -0.48366  -0.48069  -0.47691
 Alpha  occ. eigenvalues --   -0.47426  -0.47310  -0.47028  -0.46721  -0.46481
 Alpha  occ. eigenvalues --   -0.46208  -0.45707  -0.45411  -0.45061  -0.44584
 Alpha  occ. eigenvalues --   -0.44312  -0.44056  -0.43932  -0.43776  -0.43568
 Alpha  occ. eigenvalues --   -0.42979  -0.42130  -0.42030  -0.41828  -0.41722
 Alpha  occ. eigenvalues --   -0.41539  -0.41034  -0.40736  -0.40614  -0.40221
 Alpha  occ. eigenvalues --   -0.40104  -0.39664  -0.39487  -0.39435  -0.39216
 Alpha  occ. eigenvalues --   -0.39033  -0.38885  -0.38389  -0.37603  -0.37511
 Alpha  occ. eigenvalues --   -0.37183  -0.36941  -0.36400  -0.36247  -0.35649
 Alpha  occ. eigenvalues --   -0.34640  -0.33410  -0.33215  -0.32209  -0.32005
 Alpha  occ. eigenvalues --   -0.31920  -0.31406  -0.29190  -0.27126  -0.23418
 Alpha  occ. eigenvalues --   -0.18643
 Alpha virt. eigenvalues --   -0.06462  -0.01113   0.03217   0.05937   0.07303
 Alpha virt. eigenvalues --    0.09369   0.10666   0.10952   0.11142   0.11405
 Alpha virt. eigenvalues --    0.11667   0.12446   0.12708   0.13128   0.13566

 Mulliken charges:
               1
     1  O   -0.562458
     2  O   -0.566971
     3  C    0.027070
     4  C   -0.142131
     5  C   -0.154094
     6  C    0.117855
     7  C    0.129400
     8  C   -0.002157
     9  C   -0.308444
    10  C   -0.274345
    11  C   -0.202813
    12  C   -0.114036
    13  C    0.186083
    14  C    0.096026
    15  C   -0.063635
    16  C   -0.194790
    17  C    0.011019
    18  C   -0.302620
    19  C   -0.284723
    20  C   -0.342607
    21  C   -0.091346
    22  C   -0.141157
    23  C   -0.355771
    24  C    0.077288
    25  C   -0.083286
    26  C   -0.364444
    27  C    0.095599
    28  C   -0.111814
    29  C   -0.354491
    30  C   -0.107160
    31  C   -0.076307
    32  C   -0.096541
    33  C   -0.138411
    34  C    0.097835
    35  C   -0.114657
    36  C    0.087277
    37  C   -0.335357
    38  C   -0.117638
    39  C   -0.086431
    40  C   -0.377655
    41  C   -0.078840
    42  C   -0.076320
    43  H    0.083882
    44  H    0.125323
    45  H    0.059945
    46  H    0.076870
    47  H    0.105342
    48  H    0.081506
    49  H    0.080624
    50  H    0.123789
    51  H    0.081015
    52  H    0.094869
    53  H    0.095969
    54  H    0.084886
    55  H    0.075227
    56  H    0.065015
    57  H    0.096907
    58  H    0.106315
    59  H    0.078751
    60  H    0.104624
    61  H    0.091450
    62  H    0.102270
    63  H    0.094203
    64  H    0.119602
    65  H    0.078466
    66  H    0.113271
    67  H    0.115432
    68  H    0.086144
    69  H    0.293624
    70  H    0.068224
    71  H    0.084446
    72  H    0.124034
    73  H    0.121279
    74  H    0.103670
    75  H    0.309398
    76  H    0.093271
    77  H    0.105878
    78  H    0.128553
    79  H    0.116256
    80  H    0.078758
    81  H    0.139693
    82  H    0.093710
    83  H    0.058327
    84  H    0.073053
    85  H    0.098009
    86  H    0.067531
    87  H    0.092410
    88  H    0.070074
    89  H    0.130780
    90  H    0.089220
    91  H    0.097256
    92  H    0.061291
    93  H    0.076843
    94  H    0.121611
    95  H    0.112354
    96  H    0.124342
    97  H    0.072287
    98  H    0.070123
 Sum of Mulliken charges =  -0.00000

 Dipole moment (field-independent basis, Debye):
    X=              1.7810    Y=             -0.6660    Z=             -0.3870  Tot=              1.9404
 Quadrupole moment (field-independent basis, Debye-Ang):
   XX=           -283.5030   YY=           -243.2880   ZZ=           -262.8576
   XY=            -17.8389   XZ=             41.8961   YZ=             -1.2521

 Normal termination of Gaussian 16 at Mon Jul 15 12:04:34 2019.
