 Gaussian 16, Revision A.03,
 Gaussian 16:  ES64L-G16RevA.03 25-Dec-2016

 -------------------------------------
 # td=(NStates=1) CAM-B3LYP/6-31G(d,p)
 -------------------------------------

 --
 TD
 --
 Symbolic Z-matrix:
 Charge =  0 Multiplicity = 1

                         Standard orientation:
 ---------------------------------------------------------------------
 Center     Atomic      Atomic             Coordinates (Angstroms)
 Number     Number       Type             X           Y           Z
 ---------------------------------------------------------------------
      1          8           0      -14.205123   -1.949694    0.495648
      2          8           0       14.828839    0.662337   -0.014300
      3          6           0      -11.802967    0.030657    1.251440
      4          6           0      -10.991232    0.125024   -0.110835
      5          6           0      -12.058897   -1.538070    1.343438
      6          6           0      -12.797324   -2.195441    0.278140
      7          6           0      -11.661113   -0.496520   -1.280490
      8          6           0       11.192474    1.051077    0.953857
      9          6           0      -11.003575    0.523112    2.399497
     10          6           0      -13.127612    0.816822    1.200413
     11          6           0       12.698293    1.422237    0.702273
     12          6           0      -12.355396   -1.589137   -1.030281
     13          6           0       13.573751    0.276154    0.449927
     14          6           0       10.721139   -0.017718   -0.052281
     15          6           0       -9.535473   -0.156721    0.004455
     16          6           0       13.100046   -0.389325   -0.883212
     17          6           0       11.645656   -0.715751   -0.834772
     18          6           0       10.366620    2.359728    0.989702
     19          6           0       10.956990    0.442068    2.433005
     20          6           0      -11.280419    0.099244   -2.647780
     21          6           0       -8.514736    0.742669   -0.110896
     22          6           0        9.323951   -0.450015    0.043013
     23          6           0       11.170404   -1.573734   -2.000432
     24          6           0       -7.104119    0.464415   -0.012937
     25          6           0        8.879129   -1.748118   -0.175869
     26          6           0       -6.584602   -0.971263    0.265380
     27          6           0        7.477123   -1.998095    0.102841
     28          6           0       -6.206843    1.544191   -0.264219
     29          6           0        7.099500   -3.513654    0.214771
     30          6           0        6.323948   -1.064980   -0.190410
     31          6           0       -4.788713    1.611244   -0.218884
     32          6           0        5.015593   -1.413179   -0.162534
     33          6           0       -4.071909    2.664006   -0.514868
     34          6           0       -2.670694    2.756423   -0.634991
     35          6           0        3.941678   -0.504455   -0.408790
     36          6           0        2.568815   -0.718266   -0.273833
     37          6           0       -1.923315    4.063229   -1.038436
     38          6           0       -1.919076    1.595667   -0.316903
     39          6           0        1.747349    0.426537   -0.410230
     40          6           0        2.174421   -2.115204    0.189773
     41          6           0       -0.528069    1.609386   -0.469334
     42          6           0        0.353365    0.453175   -0.233109
     43          1           0      -10.977303    1.230274   -0.409805
     44          1           0      -12.791312   -1.678696    2.200369
     45          1           0      -11.076881   -1.922414    1.776589
     46          1           0      -12.538523   -3.286383    0.302549
     47          1           0      -10.094700   -0.045173    2.348622
     48          1           0      -10.634954    1.574954    2.430573
     49          1           0      -11.474279    0.278920    3.331676
     50          1           0      -13.825821    0.424400    0.446363
     51          1           0      -13.717073    0.578207    2.082758
     52          1           0      -12.764630    1.878890    1.089434
     53          1           0       12.818749    2.157251   -0.050326
     54          1           0       12.908873    1.978205    1.701067
     55          1           0      -12.984542   -2.220119   -1.898811
     56          1           0       13.669753   -0.318964    1.264540
     57          1           0       -9.214223   -1.323962    0.020994
     58          1           0       13.517874   -1.339913   -1.047561
     59          1           0       13.286145    0.289956   -1.682308
     60          1           0        9.270525    1.921090    1.044680
     61          1           0       10.315751    2.795123   -0.058595
     62          1           0       10.442574    3.072697    1.883647
     63          1           0       11.952604   -0.351418    2.540064
     64          1           0        9.982475    0.021170    2.686648
     65          1           0       11.099602    1.275393    3.129095
     66          1           0      -10.314002    0.362901   -2.854354
     67          1           0      -12.121942    0.900503   -2.804317
     68          1           0      -11.395429   -0.721331   -3.496881
     69          1           0      -14.581035   -2.064154   -0.440110
     70          1           0        8.544478    0.350928    0.492763
     71          1           0       -8.837540    1.714436   -0.402732
     72          1           0       11.199184   -2.854693   -1.834016
     73          1           0        9.915334   -1.138420   -2.180440
     74          1           0       11.761357   -1.437297   -2.810711
     75          1           0       15.335940    0.716590    1.025025
     76          1           0        9.539517   -2.556605   -0.387966
     77          1           0       -5.508846   -0.947689    0.294858
     78          1           0       -6.844619   -1.254564    1.167860
     79          1           0       -7.355254   -1.779689   -0.416145
     80          1           0       -6.687260    2.590060   -0.462439
     81          1           0        6.598887   -3.810756    0.930968
     82          1           0        6.525076   -3.982111   -0.640238
     83          1           0        8.044260   -4.203261    0.242321
     84          1           0        6.800710   -0.076785   -0.355049
     85          1           0       -4.266645    0.813855    0.169558
     86          1           0        4.795807   -2.328067    0.334189
     87          1           0       -4.629565    3.545942   -0.922146
     88          1           0        4.123227    0.553895   -0.570934
     89          1           0       -1.357318    3.932881   -1.972541
     90          1           0       -1.389907    4.297045   -0.440461
     91          1           0       -2.614720    4.716143   -1.263444
     92          1           0       -2.314098    0.680132    0.088988
     93          1           0        2.310112    1.192417   -0.818329
     94          1           0        2.320664   -2.154986    1.246143
     95          1           0        1.090010   -2.458256   -0.085930
     96          1           0        2.793188   -2.933247   -0.265719
     97          1           0        0.092683    2.654780   -0.947914
     98          1           0       -0.157625   -0.455747    0.123508
 ---------------------------------------------------------------------

 SCF Done:  E(RCAM-B3LYP) =  -1706.81746013     A.U. after   17 cycles

 Excitation energies and oscillator strengths:

 Excited State   1:      Singlet-A      1.7094 eV  725.31 nm  f=3.1327  <S**2>=0.000
     155 ->158        -0.13847
     156 ->157         0.70203
     156 <-157        -0.13060
 This state for optimization and/or second-order correction.
 Total Energy, E(TD-HF/TD-DFT) =  -1706.75464101
 Copying the excited state density for this state as the 1-particle RhoCI density.

 The electronic state is 1-A.
 Alpha  occ. eigenvalues --  -19.22690 -19.22273 -10.30972 -10.29343 -10.28839
 Alpha  occ. eigenvalues --  -10.28436 -10.28375 -10.28285 -10.27969 -10.27543
 Alpha  occ. eigenvalues --  -10.27421 -10.27410 -10.27386 -10.27386 -10.27379
 Alpha  occ. eigenvalues --  -10.27143 -10.26913 -10.26742 -10.26673 -10.26595
 Alpha  occ. eigenvalues --  -10.26587 -10.26564 -10.26467 -10.26451 -10.26445
 Alpha  occ. eigenvalues --  -10.26434 -10.26426 -10.26302 -10.26277 -10.26161
 Alpha  occ. eigenvalues --  -10.26138 -10.26091 -10.26059 -10.25876 -10.25200
 Alpha  occ. eigenvalues --  -10.24803 -10.24713 -10.24457 -10.24386 -10.23205
 Alpha  occ. eigenvalues --  -10.23090 -10.22772  -1.09191  -1.09066  -0.93693
 Alpha  occ. eigenvalues --   -0.92788  -0.92429  -0.91442  -0.89736  -0.89046
 Alpha  occ. eigenvalues --   -0.86886  -0.86695  -0.86439  -0.85550  -0.84147
 Alpha  occ. eigenvalues --   -0.83579  -0.82147  -0.81008  -0.79803  -0.79242
 Alpha  occ. eigenvalues --   -0.77373  -0.76457  -0.76101  -0.75745  -0.75295
 Alpha  occ. eigenvalues --   -0.75192  -0.75045  -0.74251  -0.72333  -0.70442
 Alpha  occ. eigenvalues --   -0.68599  -0.67433  -0.66374  -0.65268  -0.63323
 Alpha  occ. eigenvalues --   -0.63069  -0.63006  -0.62172  -0.60251  -0.60072
 Alpha  occ. eigenvalues --   -0.59716  -0.59130  -0.58058  -0.57529  -0.56831
 Alpha  occ. eigenvalues --   -0.55148  -0.54895  -0.54637  -0.54525  -0.53251
 Alpha  occ. eigenvalues --   -0.52759  -0.52604  -0.52127  -0.51936  -0.51082
 Alpha  occ. eigenvalues --   -0.50573  -0.50388  -0.50043  -0.50008  -0.49264
 Alpha  occ. eigenvalues --   -0.49110  -0.48669  -0.48350  -0.47810  -0.47414
 Alpha  occ. eigenvalues --   -0.47264  -0.46972  -0.46671  -0.46462  -0.46185
 Alpha  occ. eigenvalues --   -0.45882  -0.45724  -0.45473  -0.45158  -0.44758
 Alpha  occ. eigenvalues --   -0.44534  -0.44183  -0.43805  -0.43695  -0.43594
 Alpha  occ. eigenvalues --   -0.43533  -0.42945  -0.42738  -0.42327  -0.42120
 Alpha  occ. eigenvalues --   -0.41864  -0.41693  -0.41270  -0.41009  -0.40454
 Alpha  occ. eigenvalues --   -0.40421  -0.40306  -0.39982  -0.39457  -0.39287
 Alpha  occ. eigenvalues --   -0.39026  -0.38827  -0.38707  -0.38388  -0.37882
 Alpha  occ. eigenvalues --   -0.37035  -0.36930  -0.36901  -0.35975  -0.35151
 Alpha  occ. eigenvalues --   -0.34924  -0.34000  -0.33539  -0.32655  -0.32048
 Alpha  occ. eigenvalues --   -0.31588  -0.30455  -0.28493  -0.26456  -0.23101
 Alpha  occ. eigenvalues --   -0.17884
 Alpha virt. eigenvalues --   -0.07269  -0.01750   0.02162   0.05158   0.06501
 Alpha virt. eigenvalues --    0.07455   0.08620   0.10157   0.10811   0.11841
 Alpha virt. eigenvalues --    0.12038   0.12275   0.12464   0.13044   0.13741

 Mulliken charges:
               1
     1  O   -0.543781
     2  O   -0.537269
     3  C    0.019206
     4  C   -0.149552
     5  C   -0.201876
     6  C    0.166687
     7  C    0.132766
     8  C   -0.026191
     9  C   -0.303946
    10  C   -0.283529
    11  C   -0.164730
    12  C   -0.151357
    13  C    0.153826
    14  C    0.099085
    15  C   -0.086926
    16  C   -0.207443
    17  C    0.017132
    18  C   -0.304762
    19  C   -0.285667
    20  C   -0.352657
    21  C   -0.081833
    22  C   -0.149147
    23  C   -0.335988
    24  C    0.092433
    25  C   -0.074417
    26  C   -0.349837
    27  C    0.024822
    28  C   -0.145741
    29  C   -0.369106
    30  C   -0.089907
    31  C   -0.025630
    32  C   -0.093937
    33  C   -0.120671
    34  C    0.036024
    35  C   -0.122540
    36  C    0.125025
    37  C   -0.305359
    38  C   -0.102687
    39  C   -0.114185
    40  C   -0.385212
    41  C   -0.086248
    42  C   -0.113902
    43  H    0.071811
    44  H    0.099574
    45  H    0.092455
    46  H    0.093601
    47  H    0.103468
    48  H    0.098648
    49  H    0.102729
    50  H    0.106217
    51  H    0.104105
    52  H    0.083728
    53  H    0.112000
    54  H    0.065364
    55  H    0.032399
    56  H    0.083855
    57  H    0.060490
    58  H    0.113420
    59  H    0.134838
    60  H    0.076703
    61  H    0.103105
    62  H    0.111298
    63  H    0.057283
    64  H    0.123502
    65  H    0.096883
    66  H    0.139998
    67  H    0.118982
    68  H    0.097477
    69  H    0.308025
    70  H    0.088072
    71  H    0.083008
    72  H    0.065178
    73  H    0.098373
    74  H    0.117219
    75  H    0.282604
    76  H    0.116571
    77  H    0.111270
    78  H    0.145089
    79  H    0.086735
    80  H    0.074168
    81  H    0.128309
    82  H    0.109819
    83  H    0.081646
    84  H    0.077582
    85  H    0.071398
    86  H    0.093127
    87  H    0.069164
    88  H    0.077900
    89  H    0.117315
    90  H    0.126477
    91  H    0.106717
    92  H    0.094215
    93  H    0.083370
    94  H    0.138295
    95  H    0.097549
    96  H    0.119423
    97  H    0.062519
    98  H    0.083954
 Sum of Mulliken charges =  -0.00000

 Dipole moment (field-independent basis, Debye):
    X=              1.5050    Y=             -0.2636    Z=              0.4153  Tot=              1.5834
 Quadrupole moment (field-independent basis, Debye-Ang):
   XX=           -274.3358   YY=           -246.3198   ZZ=           -262.0232
   XY=             -2.1891   XZ=             41.9459   YZ=             -1.5762

 Normal termination of Gaussian 16 at Tue Jul 16 14:34:32 2019.
