 Gaussian 16, Revision A.03,
 Gaussian 16:  ES64L-G16RevA.03 25-Dec-2016

 -------------------------------------
 # td=(NStates=1) CAM-B3LYP/6-31G(d,p)
 -------------------------------------

 --
 TD
 --
 Symbolic Z-matrix:
 Charge =  0 Multiplicity = 1

                         Standard orientation:
 ---------------------------------------------------------------------
 Center     Atomic      Atomic             Coordinates (Angstroms)
 Number     Number       Type             X           Y           Z
 ---------------------------------------------------------------------
      1          8           0      -13.923744   -2.243492    0.470219
      2          8           0       14.719208    0.844132    0.344364
      3          6           0      -11.720106   -0.086391    1.436976
      4          6           0      -10.909725    0.454011    0.113671
      5          6           0      -11.879829   -1.588077    1.453124
      6          6           0      -12.513106   -2.178815    0.184221
      7          6           0      -11.609170   -0.117435   -1.099799
      8          6           0       11.042956    0.929367    1.135496
      9          6           0      -10.929441    0.243600    2.723740
     10          6           0      -13.043407    0.598704    1.442345
     11          6           0       12.461533    1.437657    1.056425
     12          6           0      -12.235148   -1.369330   -1.056323
     13          6           0       13.475286    0.430971    0.602840
     14          6           0       10.574796    0.025655   -0.042788
     15          6           0       -9.510535   -0.075537    0.090292
     16          6           0       13.023713   -0.088317   -0.739114
     17          6           0       11.530967   -0.508436   -0.805075
     18          6           0       10.188053    2.223814    1.182440
     19          6           0       10.868876    0.136163    2.519614
     20          6           0      -11.460903    0.684826   -2.337553
     21          6           0       -8.475859    0.802738   -0.070373
     22          6           0        9.162930   -0.366882    0.064704
     23          6           0       11.220512   -1.247163   -2.188150
     24          6           0       -7.082175    0.555469   -0.249728
     25          6           0        8.682841   -1.684442   -0.159748
     26          6           0       -6.706173   -0.959817   -0.042989
     27          6           0        7.375024   -2.118044   -0.177377
     28          6           0       -6.190959    1.515033   -0.401264
     29          6           0        7.125594   -3.637148   -0.083049
     30          6           0        6.310288   -1.272234   -0.306280
     31          6           0       -4.769627    1.512719   -0.491119
     32          6           0        4.929168   -1.566299   -0.353983
     33          6           0       -4.014779    2.683056   -0.695968
     34          6           0       -2.507082    2.576309   -0.725689
     35          6           0        3.990897   -0.479303   -0.435751
     36          6           0        2.599514   -0.881531   -0.305443
     37          6           0       -1.869408    3.966900   -0.946869
     38          6           0       -1.771046    1.485644   -0.547511
     39          6           0        1.731038    0.254180   -0.406359
     40          6           0        2.079119   -2.241956   -0.136506
     41          6           0       -0.350120    1.442009   -0.572981
     42          6           0        0.317969    0.294211   -0.462245
     43          1           0      -10.858188    1.459148    0.080784
     44          1           0      -12.781286   -1.964296    2.162845
     45          1           0      -10.969161   -2.006656    1.608442
     46          1           0      -11.853851   -3.120246   -0.284778
     47          1           0       -9.805494   -0.183640    2.719305
     48          1           0      -10.770084    1.335928    2.859848
     49          1           0      -11.460037   -0.032417    3.579558
     50          1           0      -13.450692    0.320006    0.490202
     51          1           0      -13.844327    0.238068    2.243944
     52          1           0      -12.990272    1.670569    1.459525
     53          1           0       12.667058    2.341381    0.482056
     54          1           0       12.677824    1.859853    2.174685
     55          1           0      -12.700058   -1.710786   -2.043209
     56          1           0       13.333092   -0.408087    1.340123
     57          1           0       -9.243987   -1.119881    0.107577
     58          1           0       13.525926   -1.020442   -1.192701
     59          1           0       13.155091    0.453409   -1.617599
     60          1           0        9.099540    2.014598    1.465888
     61          1           0       10.160803    2.957015    0.255882
     62          1           0       10.386238    2.841444    2.093910
     63          1           0       11.576230   -0.687200    2.570354
     64          1           0        9.859487   -0.147860    2.542032
     65          1           0       10.714479    0.929275    3.354699
     66          1           0      -10.381398    0.956232   -2.564369
     67          1           0      -11.889452    1.647645   -2.349700
     68          1           0      -11.861626    0.197597   -3.351608
     69          1           0      -14.382029   -2.038803   -0.429213
     70          1           0        8.571793    0.422984    0.393790
     71          1           0       -8.832068    1.702953   -0.107162
     72          1           0       11.498208   -2.248074   -2.055749
     73          1           0       10.212574   -1.130186   -2.705586
     74          1           0       12.043863   -1.105282   -2.966503
     75          1           0       15.060193    1.116936    1.214944
     76          1           0        9.442474   -2.655229   -0.126312
     77          1           0       -5.608498   -1.122093   -0.600504
     78          1           0       -6.495938   -1.201994    1.028756
     79          1           0       -7.376462   -1.678387   -0.682476
     80          1           0       -6.620858    2.583815   -0.727838
     81          1           0        6.622858   -3.729602    0.857390
     82          1           0        6.715002   -3.924676   -1.020592
     83          1           0        8.122951   -4.035443    0.065037
     84          1           0        6.579855   -0.292952   -0.491125
     85          1           0       -4.376668    0.658547   -0.257797
     86          1           0        4.538681   -2.599064   -0.309264
     87          1           0       -4.524887    3.621838   -0.953952
     88          1           0        4.468036    0.525408   -0.293784
     89          1           0       -0.798467    3.700535   -1.569401
     90          1           0       -1.561966    4.352371    0.241306
     91          1           0       -2.731461    4.728357   -1.249060
     92          1           0       -2.133690    0.456959   -0.690515
     93          1           0        2.334818    1.344903   -0.773628
     94          1           0        2.262417   -2.495593    0.969568
     95          1           0        1.037419   -2.320724   -0.396404
     96          1           0        2.589072   -2.782116   -0.879140
     97          1           0        0.098141    2.449529   -0.802477
     98          1           0       -0.269789   -0.645952   -0.381810
 ---------------------------------------------------------------------

 SCF Done:  E(RCAM-B3LYP) =  -1706.93645939     A.U. after   15 cycles

 Excitation energies and oscillator strengths:

 Excited State   1:      Singlet-A      2.2341 eV  554.96 nm  f=3.0010  <S**2>=0.000
     155 ->158        -0.16783
     156 ->157         0.68280
 This state for optimization and/or second-order correction.
 Total Energy, E(TD-HF/TD-DFT) =  -1706.85435752
 Copying the excited state density for this state as the 1-particle RhoCI density.

 The electronic state is 1-A.
 Alpha  occ. eigenvalues --  -19.23000 -19.22404 -10.32105 -10.30238 -10.29715
 Alpha  occ. eigenvalues --  -10.28209 -10.27866 -10.27814 -10.27723 -10.27634
 Alpha  occ. eigenvalues --  -10.27587 -10.27457 -10.27212 -10.27184 -10.26991
 Alpha  occ. eigenvalues --  -10.26770 -10.26646 -10.26470 -10.26464 -10.26397
 Alpha  occ. eigenvalues --  -10.26362 -10.26314 -10.26187 -10.26161 -10.26076
 Alpha  occ. eigenvalues --  -10.26074 -10.25960 -10.25902 -10.25692 -10.25565
 Alpha  occ. eigenvalues --  -10.25263 -10.25132 -10.25128 -10.24986 -10.24885
 Alpha  occ. eigenvalues --  -10.24773 -10.24610 -10.24463 -10.24352 -10.24255
 Alpha  occ. eigenvalues --  -10.24197 -10.23387  -1.13341  -1.09021  -0.93778
 Alpha  occ. eigenvalues --   -0.92895  -0.91967  -0.91375  -0.90740  -0.89771
 Alpha  occ. eigenvalues --   -0.87392  -0.86617  -0.85736  -0.85122  -0.84470
 Alpha  occ. eigenvalues --   -0.82822  -0.82176  -0.80441  -0.79305  -0.77798
 Alpha  occ. eigenvalues --   -0.76432  -0.76323  -0.75582  -0.75503  -0.75238
 Alpha  occ. eigenvalues --   -0.74899  -0.74831  -0.74681  -0.72447  -0.70140
 Alpha  occ. eigenvalues --   -0.69189  -0.67389  -0.66532  -0.65651  -0.63838
 Alpha  occ. eigenvalues --   -0.63581  -0.62888  -0.61824  -0.60600  -0.60364
 Alpha  occ. eigenvalues --   -0.60195  -0.59557  -0.58360  -0.57152  -0.56102
 Alpha  occ. eigenvalues --   -0.55118  -0.54817  -0.53824  -0.53306  -0.53110
 Alpha  occ. eigenvalues --   -0.52951  -0.52614  -0.52222  -0.51397  -0.51267
 Alpha  occ. eigenvalues --   -0.50955  -0.50761  -0.50235  -0.49332  -0.49231
 Alpha  occ. eigenvalues --   -0.49099  -0.48986  -0.48701  -0.48427  -0.48169
 Alpha  occ. eigenvalues --   -0.47231  -0.47107  -0.46474  -0.46375  -0.46015
 Alpha  occ. eigenvalues --   -0.45554  -0.45325  -0.45075  -0.44984  -0.44682
 Alpha  occ. eigenvalues --   -0.44150  -0.44010  -0.43578  -0.43308  -0.43102
 Alpha  occ. eigenvalues --   -0.42857  -0.42533  -0.42206  -0.42075  -0.41955
 Alpha  occ. eigenvalues --   -0.41558  -0.41324  -0.40999  -0.40544  -0.40362
 Alpha  occ. eigenvalues --   -0.39960  -0.39768  -0.39331  -0.39182  -0.39083
 Alpha  occ. eigenvalues --   -0.38916  -0.38738  -0.38537  -0.38257  -0.37878
 Alpha  occ. eigenvalues --   -0.37850  -0.37380  -0.37334  -0.36663  -0.36158
 Alpha  occ. eigenvalues --   -0.35141  -0.34159  -0.33619  -0.32603  -0.32145
 Alpha  occ. eigenvalues --   -0.31380  -0.29229  -0.28187  -0.26423  -0.23394
 Alpha  occ. eigenvalues --   -0.19290
 Alpha virt. eigenvalues --   -0.05178  -0.01571   0.02555   0.04929   0.07276
 Alpha virt. eigenvalues --    0.09348   0.10389   0.11147   0.11951   0.12212
 Alpha virt. eigenvalues --    0.12534   0.12770   0.12912   0.13334   0.13541

 Mulliken charges:
               1
     1  O   -0.545534
     2  O   -0.523105
     3  C    0.024417
     4  C   -0.140709
     5  C   -0.168273
     6  C    0.169066
     7  C    0.141649
     8  C   -0.022639
     9  C   -0.299480
    10  C   -0.289798
    11  C   -0.178487
    12  C   -0.192782
    13  C    0.179440
    14  C    0.100753
    15  C   -0.062231
    16  C   -0.214212
    17  C   -0.003816
    18  C   -0.321566
    19  C   -0.302714
    20  C   -0.378959
    21  C   -0.066892
    22  C   -0.118844
    23  C   -0.365896
    24  C    0.111242
    25  C   -0.115928
    26  C   -0.373429
    27  C    0.068852
    28  C   -0.133329
    29  C   -0.357533
    30  C   -0.107630
    31  C   -0.029026
    32  C   -0.103325
    33  C   -0.127944
    34  C    0.080796
    35  C   -0.109716
    36  C    0.079291
    37  C   -0.343310
    38  C   -0.107603
    39  C   -0.124867
    40  C   -0.361824
    41  C   -0.057871
    42  C   -0.100362
    43  H    0.092623
    44  H    0.119675
    45  H    0.096704
    46  H    0.064712
    47  H    0.080897
    48  H    0.085661
    49  H    0.110755
    50  H    0.103404
    51  H    0.087625
    52  H    0.090410
    53  H    0.099724
    54  H    0.055179
    55  H    0.076108
    56  H    0.060444
    57  H    0.082823
    58  H    0.090283
    59  H    0.134553
    60  H    0.083896
    61  H    0.104948
    62  H    0.097514
    63  H    0.115381
    64  H    0.116737
    65  H    0.086491
    66  H    0.114562
    67  H    0.126968
    68  H    0.093164
    69  H    0.313749
    70  H    0.088184
    71  H    0.050098
    72  H    0.120554
    73  H    0.121586
    74  H    0.088772
    75  H    0.302992
    76  H    0.071641
    77  H    0.075813
    78  H    0.136292
    79  H    0.119038
    80  H    0.058942
    81  H    0.131667
    82  H    0.133356
    83  H    0.099262
    84  H    0.070893
    85  H    0.072013
    86  H    0.087423
    87  H    0.091879
    88  H    0.105705
    89  H    0.103862
    90  H    0.093500
    91  H    0.110435
    92  H    0.079638
    93  H    0.056733
    94  H    0.130053
    95  H    0.117232
    96  H    0.133846
    97  H    0.073498
    98  H    0.084231
 Sum of Mulliken charges =  -0.00000

 Dipole moment (field-independent basis, Debye):
    X=              0.0842    Y=              0.1778    Z=             -0.4842  Tot=              0.5226
 Quadrupole moment (field-independent basis, Debye-Ang):
   XX=           -269.6035   YY=           -250.5352   ZZ=           -261.2913
   XY=            -11.8656   XZ=             40.5988   YZ=              3.8150

 Normal termination of Gaussian 16 at Mon Jul 15 09:55:11 2019.
