 Gaussian 16, Revision A.03,
 Gaussian 16:  ES64L-G16RevA.03 25-Dec-2016

 -------------------------------------
 # td=(NStates=1) CAM-B3LYP/6-31G(d,p)
 -------------------------------------

 --
 TD
 --
 Symbolic Z-matrix:
 Charge =  0 Multiplicity = 1

                         Standard orientation:
 ---------------------------------------------------------------------
 Center     Atomic      Atomic             Coordinates (Angstroms)
 Number     Number       Type             X           Y           Z
 ---------------------------------------------------------------------
      1          8           0      -14.231715   -1.863584    0.556360
      2          8           0       14.841516    0.811452    0.173964
      3          6           0      -11.798224    0.131745    1.254066
      4          6           0      -11.055073    0.341541   -0.072580
      5          6           0      -12.006779   -1.454660    1.307981
      6          6           0      -12.795881   -2.019833    0.176193
      7          6           0      -11.558572   -0.381596   -1.215203
      8          6           0       11.184363    0.916702    1.149480
      9          6           0      -11.003426    0.526079    2.529892
     10          6           0      -13.099304    0.863886    1.235645
     11          6           0       12.576078    1.497882    0.850588
     12          6           0      -12.438594   -1.430107   -1.108250
     13          6           0       13.504400    0.407555    0.418233
     14          6           0       10.750826   -0.054958   -0.021172
     15          6           0       -9.570611   -0.086533    0.106211
     16          6           0       13.032984   -0.120501   -0.949480
     17          6           0       11.569835   -0.515254   -0.972010
     18          6           0       10.226244    2.206565    1.359740
     19          6           0       11.149677    0.226511    2.447112
     20          6           0      -11.215164    0.059369   -2.605565
     21          6           0       -8.585676    0.716542   -0.134360
     22          6           0        9.297006   -0.464894    0.042905
     23          6           0       11.198577   -1.349597   -2.124511
     24          6           0       -7.151414    0.344873   -0.078823
     25          6           0        8.783131   -1.664888   -0.284714
     26          6           0       -6.787673   -1.043562    0.375129
     27          6           0        7.399958   -2.217247   -0.211844
     28          6           0       -6.162877    1.314000   -0.402364
     29          6           0        7.111368   -3.674631    0.189681
     30          6           0        6.397802   -1.342698   -0.406034
     31          6           0       -4.770465    1.278963   -0.318643
     32          6           0        5.007789   -1.533525   -0.373293
     33          6           0       -4.006611    2.454341   -0.742846
     34          6           0       -2.640236    2.664351   -0.749204
     35          6           0        4.043544   -0.544531   -0.371890
     36          6           0        2.676928   -0.664509   -0.088859
     37          6           0       -2.086604    4.036418   -1.202689
     38          6           0       -1.782454    1.583275   -0.339790
     39          6           0        1.791707    0.391617   -0.286391
     40          6           0        2.115061   -2.133737    0.154471
     41          6           0       -0.436090    1.567555   -0.451353
     42          6           0        0.431007    0.500207   -0.135733
     43          1           0      -10.977216    1.354101   -0.284970
     44          1           0      -12.551827   -1.710603    2.230989
     45          1           0      -10.864987   -1.777528    1.445773
     46          1           0      -12.711882   -3.263325    0.098251
     47          1           0      -10.205702   -0.068155    2.603766
     48          1           0      -10.886209    1.554811    2.455615
     49          1           0      -11.641067    0.306751    3.385173
     50          1           0      -13.749375    0.681698    0.328248
     51          1           0      -13.665843    0.477975    2.131931
     52          1           0      -12.718623    2.002805    1.331160
     53          1           0       12.468954    2.256744    0.009294
     54          1           0       13.095008    1.853936    1.891601
     55          1           0      -12.914295   -1.969371   -1.876987
     56          1           0       13.645494   -0.413926    1.063865
     57          1           0       -9.086101   -1.243871    0.241226
     58          1           0       13.696116   -0.903060   -0.992031
     59          1           0       13.465355    0.628864   -1.718165
     60          1           0        9.362715    1.837577    1.933576
     61          1           0        9.841619    2.661229    0.344807
     62          1           0       10.704977    2.944646    1.908489
     63          1           0       11.774819   -0.659065    2.351141
     64          1           0       10.090728   -0.183523    2.714601
     65          1           0       11.342882    0.991957    3.264696
     66          1           0      -10.074091    0.129725   -2.732984
     67          1           0      -11.604598    1.059333   -2.450297
     68          1           0      -11.856145   -0.663078   -3.325430
     69          1           0      -14.751408   -2.167232   -0.077158
     70          1           0        8.640711    0.241733    0.380496
     71          1           0       -8.634850    1.741388   -0.443425
     72          1           0       11.773589   -2.390916   -2.054644
     73          1           0       10.169075   -1.399596   -2.378870
     74          1           0       11.732290   -0.815481   -2.937668
     75          1           0       15.171413    1.646918    0.764819
     76          1           0        9.610620   -2.264623   -0.450673
     77          1           0       -5.741054   -1.206906    0.499311
     78          1           0       -7.273286   -1.068641    1.348114
     79          1           0       -7.133700   -1.935449   -0.302267
     80          1           0       -6.471081    2.264670   -0.512853
     81          1           0        6.809510   -3.506852    1.399206
     82          1           0        6.177624   -3.941009   -0.291277
     83          1           0        7.926006   -4.227882    0.072057
     84          1           0        6.557390   -0.296387   -0.348681
     85          1           0       -4.015321    0.463206   -0.029201
     86          1           0        4.765698   -2.532164   -0.207617
     87          1           0       -4.647182    3.304419   -1.147655
     88          1           0        4.515528    0.636048   -0.557962
     89          1           0       -1.584532    3.868643   -2.227026
     90          1           0       -1.237096    4.433583   -0.497697
     91          1           0       -2.790176    4.863720   -1.459177
     92          1           0       -2.460500    0.708516    0.171604
     93          1           0        2.290970    1.321567   -0.610816
     94          1           0        2.533463   -2.461837    0.975780
     95          1           0        1.137580   -1.955601    0.259605
     96          1           0        2.277224   -2.796207   -0.690957
     97          1           0        0.187384    2.510374   -0.865261
     98          1           0       -0.174334   -0.503898    0.325621
 ---------------------------------------------------------------------

 SCF Done:  E(RCAM-B3LYP) =  -1706.95397961     A.U. after   16 cycles

 Excitation energies and oscillator strengths:

 Excited State   1:      Singlet-A      1.8185 eV  681.78 nm  f=2.8129  <S**2>=0.000
     155 ->158         0.11837
     156 ->157         0.70729
     156 <-157        -0.13711
 This state for optimization and/or second-order correction.
 Total Energy, E(TD-HF/TD-DFT) =  -1706.88714952
 Copying the excited state density for this state as the 1-particle RhoCI density.

 The electronic state is 1-A.
 Alpha  occ. eigenvalues --  -19.20882 -19.19301 -10.31296 -10.28968 -10.28345
 Alpha  occ. eigenvalues --  -10.28091 -10.28082 -10.27893 -10.27879 -10.27863
 Alpha  occ. eigenvalues --  -10.27820 -10.27762 -10.27711 -10.27675 -10.27670
 Alpha  occ. eigenvalues --  -10.27225 -10.27218 -10.27133 -10.26849 -10.26837
 Alpha  occ. eigenvalues --  -10.26562 -10.26489 -10.26472 -10.26465 -10.26296
 Alpha  occ. eigenvalues --  -10.26185 -10.26086 -10.25948 -10.25642 -10.25481
 Alpha  occ. eigenvalues --  -10.25401 -10.25250 -10.25214 -10.25207 -10.25156
 Alpha  occ. eigenvalues --  -10.25035 -10.24577 -10.24423 -10.24399 -10.24229
 Alpha  occ. eigenvalues --  -10.23597 -10.22695  -1.08765  -1.07276  -0.94774
 Alpha  occ. eigenvalues --   -0.93398  -0.91961  -0.91519  -0.90562  -0.89843
 Alpha  occ. eigenvalues --   -0.87719  -0.87357  -0.86953  -0.85693  -0.84779
 Alpha  occ. eigenvalues --   -0.83343  -0.82388  -0.80838  -0.80583  -0.79143
 Alpha  occ. eigenvalues --   -0.77259  -0.76946  -0.76433  -0.76141  -0.75584
 Alpha  occ. eigenvalues --   -0.75378  -0.75197  -0.74821  -0.73088  -0.70747
 Alpha  occ. eigenvalues --   -0.68674  -0.67041  -0.66400  -0.65233  -0.63402
 Alpha  occ. eigenvalues --   -0.63195  -0.62896  -0.61904  -0.60474  -0.59563
 Alpha  occ. eigenvalues --   -0.58934  -0.58107  -0.57698  -0.57237  -0.56215
 Alpha  occ. eigenvalues --   -0.55549  -0.55066  -0.54555  -0.53859  -0.53462
 Alpha  occ. eigenvalues --   -0.53086  -0.52884  -0.52532  -0.52258  -0.51615
 Alpha  occ. eigenvalues --   -0.50898  -0.50805  -0.49936  -0.49819  -0.49224
 Alpha  occ. eigenvalues --   -0.49052  -0.48918  -0.48086  -0.48006  -0.47953
 Alpha  occ. eigenvalues --   -0.47352  -0.47122  -0.47019  -0.46766  -0.46607
 Alpha  occ. eigenvalues --   -0.46523  -0.45935  -0.45691  -0.45295  -0.44918
 Alpha  occ. eigenvalues --   -0.44793  -0.44524  -0.43816  -0.43791  -0.43671
 Alpha  occ. eigenvalues --   -0.43571  -0.43022  -0.42735  -0.42581  -0.42328
 Alpha  occ. eigenvalues --   -0.41984  -0.41858  -0.41072  -0.41033  -0.40952
 Alpha  occ. eigenvalues --   -0.40530  -0.40236  -0.39697  -0.39524  -0.39355
 Alpha  occ. eigenvalues --   -0.39090  -0.38904  -0.38395  -0.38101  -0.37600
 Alpha  occ. eigenvalues --   -0.37009  -0.36783  -0.36349  -0.36237  -0.35481
 Alpha  occ. eigenvalues --   -0.35110  -0.34685  -0.33807  -0.32667  -0.31704
 Alpha  occ. eigenvalues --   -0.31304  -0.29736  -0.28495  -0.27319  -0.24038
 Alpha  occ. eigenvalues --   -0.18502
 Alpha virt. eigenvalues --   -0.07292  -0.00713   0.03193   0.05062   0.06792
 Alpha virt. eigenvalues --    0.09221   0.10452   0.10845   0.11562   0.12073
 Alpha virt. eigenvalues --    0.12391   0.12823   0.12902   0.13434   0.14195

 Mulliken charges:
               1
     1  O   -0.547696
     2  O   -0.598016
     3  C   -0.011506
     4  C   -0.131607
     5  C   -0.177932
     6  C    0.127429
     7  C    0.127595
     8  C   -0.007529
     9  C   -0.279931
    10  C   -0.263890
    11  C   -0.188545
    12  C   -0.115145
    13  C    0.188982
    14  C    0.042926
    15  C   -0.116723
    16  C   -0.232779
    17  C    0.062594
    18  C   -0.315617
    19  C   -0.287103
    20  C   -0.336856
    21  C   -0.049710
    22  C   -0.097876
    23  C   -0.362725
    24  C    0.087251
    25  C   -0.117999
    26  C   -0.387270
    27  C    0.045092
    28  C   -0.132017
    29  C   -0.335005
    30  C   -0.082442
    31  C   -0.056232
    32  C   -0.082433
    33  C   -0.155174
    34  C    0.121673
    35  C   -0.111593
    36  C    0.063469
    37  C   -0.374841
    38  C   -0.108774
    39  C   -0.111455
    40  C   -0.341635
    41  C   -0.095351
    42  C   -0.082458
    43  H    0.093942
    44  H    0.103541
    45  H    0.081770
    46  H    0.051391
    47  H    0.108196
    48  H    0.101541
    49  H    0.100848
    50  H    0.109690
    51  H    0.105778
    52  H    0.056072
    53  H    0.104506
    54  H    0.055442
    55  H    0.072197
    56  H    0.092614
    57  H    0.087207
    58  H    0.117927
    59  H    0.108049
    60  H    0.100609
    61  H    0.091196
    62  H    0.114607
    63  H    0.106815
    64  H    0.095456
    65  H    0.096808
    66  H    0.121738
    67  H    0.118495
    68  H    0.105064
    69  H    0.283977
    70  H    0.075545
    71  H    0.073964
    72  H    0.101317
    73  H    0.131678
    74  H    0.111640
    75  H    0.302991
    76  H    0.080699
    77  H    0.117232
    78  H    0.131474
    79  H    0.111492
    80  H    0.079303
    81  H    0.103769
    82  H    0.129237
    83  H    0.124085
    84  H    0.072563
    85  H    0.079928
    86  H    0.066296
    87  H    0.075835
    88  H    0.056217
    89  H    0.119478
    90  H    0.117695
    91  H    0.117844
    92  H    0.079092
    93  H    0.077813
    94  H    0.129213
    95  H    0.108321
    96  H    0.123153
    97  H    0.084033
    98  H    0.061468
 Sum of Mulliken charges =  -0.00000

 Dipole moment (field-independent basis, Debye):
    X=              0.5434    Y=              0.2416    Z=             -0.2614  Tot=              0.6496
 Quadrupole moment (field-independent basis, Debye-Ang):
   XX=           -286.1485   YY=           -242.2838   ZZ=           -263.4597
   XY=              9.7154   XZ=             34.6007   YZ=              0.4751

 Normal termination of Gaussian 16 at Sun Jul 14 15:14:04 2019.
