 Gaussian 16, Revision A.03,
 Gaussian 16:  ES64L-G16RevA.03 25-Dec-2016

 -------------------------------------
 # td=(NStates=1) CAM-B3LYP/6-31G(d,p)
 -------------------------------------

 --
 TD
 --
 Symbolic Z-matrix:
 Charge =  0 Multiplicity = 1

                         Standard orientation:
 ---------------------------------------------------------------------
 Center     Atomic      Atomic             Coordinates (Angstroms)
 Number     Number       Type             X           Y           Z
 ---------------------------------------------------------------------
      1          8           0      -13.998460   -2.077832    0.414103
      2          8           0       14.787635    0.775031    0.147765
      3          6           0      -11.640388   -0.127471    1.329736
      4          6           0      -10.968718    0.256954   -0.019251
      5          6           0      -11.837341   -1.549914    1.231625
      6          6           0      -12.647574   -2.098035    0.036697
      7          6           0      -11.454654   -0.352562   -1.212121
      8          6           0       11.025616    0.881366    1.073621
      9          6           0      -10.873315    0.243284    2.565969
     10          6           0      -13.023002    0.585939    1.435656
     11          6           0       12.501441    1.418094    0.880221
     12          6           0      -12.341560   -1.474924   -1.147908
     13          6           0       13.441293    0.292846    0.333879
     14          6           0       10.690198   -0.070460   -0.025088
     15          6           0       -9.464163   -0.013520    0.008677
     16          6           0       12.984222   -0.217791   -0.933441
     17          6           0       11.572245   -0.513829   -1.028169
     18          6           0       10.143803    2.129908    1.005424
     19          6           0       10.800309    0.125820    2.404714
     20          6           0      -11.191567    0.232674   -2.575961
     21          6           0       -8.507119    0.811332   -0.159400
     22          6           0        9.330598   -0.533431    0.047728
     23          6           0       11.085166   -1.335035   -2.095755
     24          6           0       -6.997568    0.487634   -0.112539
     25          6           0        8.692063   -1.726910   -0.186057
     26          6           0       -6.602189   -0.951784   -0.091485
     27          6           0        7.295480   -2.050705   -0.159371
     28          6           0       -6.254646    1.605894   -0.290761
     29          6           0        6.971519   -3.511249    0.062727
     30          6           0        6.350103   -1.158192   -0.118687
     31          6           0       -4.803311    1.516188   -0.401865
     32          6           0        4.920440   -1.433566   -0.031475
     33          6           0       -4.068750    2.709432   -0.523412
     34          6           0       -2.606342    2.844484   -0.587273
     35          6           0        3.961453   -0.491702   -0.064472
     36          6           0        2.572900   -0.680624   -0.116172
     37          6           0       -1.969693    4.218698   -0.871617
     38          6           0       -1.793307    1.596966   -0.439061
     39          6           0        1.827437    0.486752   -0.281110
     40          6           0        1.952629   -2.047163    0.051398
     41          6           0       -0.354286    1.625325   -0.410717
     42          6           0        0.423555    0.485125   -0.306735
     43          1           0      -10.974442    1.136597   -0.100928
     44          1           0      -12.350683   -2.061717    2.181465
     45          1           0      -10.925337   -1.999326    1.262826
     46          1           0      -12.033785   -3.093232    0.098165
     47          1           0       -9.821498   -0.276430    2.520905
     48          1           0      -10.681875    1.313049    2.813187
     49          1           0      -11.479657   -0.202907    3.528620
     50          1           0      -13.772054    0.322615    0.572677
     51          1           0      -13.662650    0.297548    2.324863
     52          1           0      -13.136498    1.821863    1.574905
     53          1           0       12.375425    1.995208    0.037107
     54          1           0       12.960946    1.842265    1.880389
     55          1           0      -12.588670   -1.976745   -2.014986
     56          1           0       13.532094   -0.716867    1.038167
     57          1           0       -9.217119   -1.122941   -0.095324
     58          1           0       13.663198   -1.232967   -1.155389
     59          1           0       13.351447    0.509313   -1.777623
     60          1           0        9.047649    1.961005    1.141997
     61          1           0       10.421244    2.616546    0.074224
     62          1           0       10.648668    2.630527    1.820782
     63          1           0       11.658414   -0.641464    2.638006
     64          1           0        9.784891   -0.337496    2.564287
     65          1           0       10.999091    0.803973    3.190217
     66          1           0      -10.200159    0.296396   -2.601544
     67          1           0      -11.704180    1.160913   -2.651131
     68          1           0      -11.537286   -0.406820   -3.325359
     69          1           0      -14.539312   -2.486981   -0.352302
     70          1           0        8.535851    0.306924    0.274027
     71          1           0       -8.703932    1.979771   -0.025746
     72          1           0       11.591084   -2.421610   -2.143427
     73          1           0       10.112156   -1.312847   -2.218306
     74          1           0       11.721797   -0.942962   -2.943800
     75          1           0       15.252072    0.648439    1.180425
     76          1           0        9.369005   -2.646615   -0.406155
     77          1           0       -5.598544   -1.044788   -0.212476
     78          1           0       -6.971217   -1.627833    0.843525
     79          1           0       -7.140910   -1.562740   -0.948309
     80          1           0       -6.700025    2.798860   -0.254492
     81          1           0        6.583475   -3.750867    1.060119
     82          1           0        6.083509   -4.089992   -0.564921
     83          1           0        7.909062   -3.980290   -0.116970
     84          1           0        6.519628   -0.127624   -0.152134
     85          1           0       -4.249481    0.632651   -0.691237
     86          1           0        4.760790   -2.547932    0.151738
     87          1           0       -4.718959    3.664055   -0.375738
     88          1           0        4.378795    0.587207   -0.298815
     89          1           0       -1.462189    4.448696   -1.912642
     90          1           0       -1.079750    4.114214   -0.171240
     91          1           0       -2.735778    4.999518   -0.433475
     92          1           0       -2.557866    0.714814   -0.203695
     93          1           0        2.417375    1.410662   -0.574484
     94          1           0        2.462826   -2.515994    0.866583
     95          1           0        0.857277   -1.904357    0.374077
     96          1           0        2.231791   -2.988398   -0.682811
     97          1           0        0.167396    2.529622   -0.720505
     98          1           0       -0.024377   -0.395201   -0.051292
 ---------------------------------------------------------------------

 SCF Done:  E(RCAM-B3LYP) =  -1706.87804152     A.U. after   15 cycles

 Excitation energies and oscillator strengths:

 Excited State   1:      Singlet-A      2.2314 eV  555.63 nm  f=2.7186  <S**2>=0.000
     155 ->158         0.14643
     156 ->157         0.69027
 This state for optimization and/or second-order correction.
 Total Energy, E(TD-HF/TD-DFT) =  -1706.79603879
 Copying the excited state density for this state as the 1-particle RhoCI density.

 The electronic state is 1-A.
 Alpha  occ. eigenvalues --  -19.22671 -19.21908 -10.31454 -10.29429 -10.29018
 Alpha  occ. eigenvalues --  -10.28345 -10.28305 -10.27988 -10.27988 -10.27769
 Alpha  occ. eigenvalues --  -10.27659 -10.27491 -10.27443 -10.27228 -10.27138
 Alpha  occ. eigenvalues --  -10.26898 -10.26856 -10.26770 -10.26758 -10.26656
 Alpha  occ. eigenvalues --  -10.26630 -10.26622 -10.26552 -10.26346 -10.26346
 Alpha  occ. eigenvalues --  -10.26292 -10.26157 -10.26130 -10.26075 -10.25769
 Alpha  occ. eigenvalues --  -10.25763 -10.25665 -10.25267 -10.25035 -10.24926
 Alpha  occ. eigenvalues --  -10.24660 -10.24571 -10.24516 -10.23803 -10.23583
 Alpha  occ. eigenvalues --  -10.23435 -10.23256  -1.09276  -1.07024  -0.95154
 Alpha  occ. eigenvalues --   -0.94374  -0.92506  -0.91232  -0.90882  -0.89084
 Alpha  occ. eigenvalues --   -0.88378  -0.87455  -0.86867  -0.85715  -0.85012
 Alpha  occ. eigenvalues --   -0.83193  -0.82217  -0.80853  -0.80258  -0.77813
 Alpha  occ. eigenvalues --   -0.77648  -0.76699  -0.76506  -0.76172  -0.75786
 Alpha  occ. eigenvalues --   -0.75465  -0.75185  -0.73101  -0.72826  -0.69890
 Alpha  occ. eigenvalues --   -0.68340  -0.67406  -0.66020  -0.64175  -0.63629
 Alpha  occ. eigenvalues --   -0.63222  -0.62393  -0.61964  -0.60274  -0.59901
 Alpha  occ. eigenvalues --   -0.59581  -0.58835  -0.58138  -0.57292  -0.56108
 Alpha  occ. eigenvalues --   -0.55921  -0.54832  -0.54664  -0.53802  -0.53723
 Alpha  occ. eigenvalues --   -0.53456  -0.53064  -0.52630  -0.52412  -0.51117
 Alpha  occ. eigenvalues --   -0.50761  -0.50371  -0.49593  -0.49360  -0.49044
 Alpha  occ. eigenvalues --   -0.48521  -0.48271  -0.47918  -0.47403  -0.47230
 Alpha  occ. eigenvalues --   -0.46917  -0.46711  -0.46510  -0.46254  -0.46101
 Alpha  occ. eigenvalues --   -0.45930  -0.45750  -0.45665  -0.45393  -0.45116
 Alpha  occ. eigenvalues --   -0.44449  -0.44356  -0.44173  -0.44062  -0.43948
 Alpha  occ. eigenvalues --   -0.43500  -0.43109  -0.42561  -0.42324  -0.41815
 Alpha  occ. eigenvalues --   -0.41610  -0.41338  -0.40860  -0.40612  -0.40537
 Alpha  occ. eigenvalues --   -0.40378  -0.40173  -0.39351  -0.39202  -0.38847
 Alpha  occ. eigenvalues --   -0.38674  -0.38596  -0.38267  -0.38006  -0.37863
 Alpha  occ. eigenvalues --   -0.37573  -0.37151  -0.36679  -0.36388  -0.36221
 Alpha  occ. eigenvalues --   -0.35334  -0.35046  -0.33867  -0.32029  -0.31662
 Alpha  occ. eigenvalues --   -0.31548  -0.29197  -0.27366  -0.26530  -0.23926
 Alpha  occ. eigenvalues --   -0.19856
 Alpha virt. eigenvalues --   -0.05689  -0.00793   0.02624   0.04708   0.06679
 Alpha virt. eigenvalues --    0.07684   0.08443   0.10680   0.11246   0.11941
 Alpha virt. eigenvalues --    0.12060   0.12224   0.12305   0.13052   0.13483

 Mulliken charges:
               1
     1  O   -0.532661
     2  O   -0.558279
     3  C    0.041785
     4  C   -0.048264
     5  C   -0.179359
     6  C    0.136868
     7  C    0.074709
     8  C   -0.048968
     9  C   -0.290597
    10  C   -0.298614
    11  C   -0.178363
    12  C   -0.117140
    13  C    0.168049
    14  C    0.075309
    15  C   -0.119572
    16  C   -0.241272
    17  C    0.115702
    18  C   -0.284665
    19  C   -0.299206
    20  C   -0.337050
    21  C   -0.078751
    22  C   -0.134817
    23  C   -0.351122
    24  C    0.112940
    25  C   -0.129223
    26  C   -0.363005
    27  C    0.116900
    28  C   -0.120017
    29  C   -0.374949
    30  C   -0.106831
    31  C   -0.089837
    32  C   -0.082390
    33  C   -0.122185
    34  C    0.060397
    35  C   -0.126695
    36  C    0.134003
    37  C   -0.360023
    38  C   -0.106124
    39  C   -0.121655
    40  C   -0.375548
    41  C   -0.103731
    42  C   -0.068454
    43  H    0.049165
    44  H    0.085695
    45  H    0.097229
    46  H    0.063646
    47  H    0.086408
    48  H    0.103082
    49  H    0.082277
    50  H    0.107699
    51  H    0.099866
    52  H    0.051940
    53  H    0.115278
    54  H    0.083306
    55  H    0.067449
    56  H    0.053558
    57  H    0.071621
    58  H    0.089164
    59  H    0.109341
    60  H    0.104280
    61  H    0.105922
    62  H    0.105160
    63  H    0.085789
    64  H    0.118088
    65  H    0.096556
    66  H    0.124778
    67  H    0.123166
    68  H    0.112136
    69  H    0.304138
    70  H    0.066753
    71  H    0.065502
    72  H    0.093094
    73  H    0.128638
    74  H    0.098084
    75  H    0.304834
    76  H    0.077239
    77  H    0.117476
    78  H    0.110672
    79  H    0.113993
    80  H    0.086758
    81  H    0.132125
    82  H    0.091341
    83  H    0.109102
    84  H    0.068499
    85  H    0.102350
    86  H    0.068835
    87  H    0.072058
    88  H    0.075665
    89  H    0.124796
    90  H    0.120931
    91  H    0.106764
    92  H    0.079964
    93  H    0.084965
    94  H    0.129621
    95  H    0.111020
    96  H    0.111316
    97  H    0.090070
    98  H    0.073500
 Sum of Mulliken charges =  -0.00000

 Dipole moment (field-independent basis, Debye):
    X=              1.3310    Y=             -1.2411    Z=             -0.2408  Tot=              1.8357
 Quadrupole moment (field-independent basis, Debye-Ang):
   XX=           -277.6083   YY=           -246.1688   ZZ=           -263.8692
   XY=             -0.7313   XZ=             42.4968   YZ=              2.3896

 Normal termination of Gaussian 16 at Sun Jul 14 03:42:51 2019.
