 Gaussian 16, Revision A.03,
 Gaussian 16:  ES64L-G16RevA.03 25-Dec-2016

 -------------------------------------
 # td=(NStates=1) CAM-B3LYP/6-31G(d,p)
 -------------------------------------

 --
 TD
 --
 Symbolic Z-matrix:
 Charge =  0 Multiplicity = 1

                         Standard orientation:
 ---------------------------------------------------------------------
 Center     Atomic      Atomic             Coordinates (Angstroms)
 Number     Number       Type             X           Y           Z
 ---------------------------------------------------------------------
      1          8           0      -14.101817   -1.985436    0.394799
      2          8           0       14.758947    0.981183    0.271743
      3          6           0      -11.714359    0.092415    1.399725
      4          6           0      -10.990251    0.374774    0.144024
      5          6           0      -11.986666   -1.501315    1.340412
      6          6           0      -12.746404   -2.103117    0.192787
      7          6           0      -11.595877   -0.200724   -1.061380
      8          6           0       11.088629    1.009300    1.095454
      9          6           0      -10.918809    0.380013    2.614269
     10          6           0      -13.165392    0.734661    1.438540
     11          6           0       12.427661    1.585395    0.818235
     12          6           0      -12.336119   -1.251056   -1.026272
     13          6           0       13.450203    0.512408    0.428981
     14          6           0       10.717285   -0.083030    0.046444
     15          6           0       -9.556198    0.047089    0.100631
     16          6           0       13.054169   -0.075795   -0.804973
     17          6           0       11.599173   -0.564173   -0.759646
     18          6           0       10.001995    2.121443    1.216874
     19          6           0       10.957005    0.351205    2.448318
     20          6           0      -11.316899    0.554758   -2.403220
     21          6           0       -8.570379    0.848282   -0.088328
     22          6           0        9.293218   -0.427170    0.018389
     23          6           0       11.302739   -1.386639   -2.006556
     24          6           0       -7.158573    0.465187   -0.184706
     25          6           0        8.805021   -1.691255   -0.157906
     26          6           0       -6.773204   -0.938649    0.045121
     27          6           0        7.441469   -2.150602   -0.056805
     28          6           0       -6.166919    1.362724   -0.469983
     29          6           0        7.173971   -3.507849    0.468077
     30          6           0        6.355547   -1.277712   -0.400931
     31          6           0       -4.837462    1.367579   -0.482369
     32          6           0        4.941892   -1.514709   -0.272150
     33          6           0       -3.939785    2.472823   -0.644410
     34          6           0       -2.550262    2.488919   -0.662348
     35          6           0        3.994184   -0.685426   -0.483912
     36          6           0        2.667945   -0.864149   -0.475907
     37          6           0       -1.824179    3.898898   -0.744550
     38          6           0       -1.773248    1.270896   -0.625114
     39          6           0        1.789431    0.152596   -0.662238
     40          6           0        2.151459   -2.151394   -0.064373
     41          6           0       -0.364846    1.308822   -0.645951
     42          6           0        0.359771    0.092069   -0.599176
     43          1           0      -11.057214    1.585125   -0.003320
     44          1           0      -12.331007   -1.688858    2.344708
     45          1           0      -10.984719   -2.113589    1.380536
     46          1           0      -12.464658   -3.273869    0.047593
     47          1           0       -9.915743   -0.261803    2.469773
     48          1           0      -10.855613    1.293396    2.814847
     49          1           0      -11.291567   -0.157461    3.584113
     50          1           0      -13.838423    0.373854    0.704070
     51          1           0      -13.496879    0.357905    2.559625
     52          1           0      -12.976510    1.782400    1.120191
     53          1           0       12.431681    2.302808    0.042439
     54          1           0       12.834101    2.341654    1.580728
     55          1           0      -12.686789   -1.605979   -1.983629
     56          1           0       13.402108   -0.212895    1.265909
     57          1           0       -9.125377   -1.108843    0.034380
     58          1           0       13.704539   -1.036809   -1.021507
     59          1           0       13.189665    0.518848   -1.733601
     60          1           0        9.008719    1.844994    1.601428
     61          1           0        9.742061    2.562728    0.362408
     62          1           0       10.490266    2.908212    1.911708
     63          1           0       11.564430   -0.557913    2.722346
     64          1           0        9.887515    0.060809    2.635270
     65          1           0       11.198730    1.143375    3.266994
     66          1           0      -10.229686    0.616417   -2.579635
     67          1           0      -11.874041    1.388309   -2.655379
     68          1           0      -11.564575   -0.201523   -3.173054
     69          1           0      -14.615355   -1.425299   -0.581608
     70          1           0        8.554030    0.425481    0.336137
     71          1           0       -8.823262    1.872981   -0.059620
     72          1           0       11.142919   -2.469595   -1.799936
     73          1           0       10.173984   -1.021349   -2.491948
     74          1           0       12.260361   -1.030887   -2.511874
     75          1           0       14.895018    1.668710    1.011923
     76          1           0        9.611388   -2.375716   -0.362656
     77          1           0       -5.694174   -1.055092    0.218576
     78          1           0       -7.255863   -1.183405    1.082725
     79          1           0       -6.953844   -1.623787   -0.928544
     80          1           0       -6.584431    2.343896   -0.398122
     81          1           0        6.262572   -3.516548    1.233650
     82          1           0        6.489145   -3.961247   -0.207063
     83          1           0        8.226423   -4.073092    0.658465
     84          1           0        6.482410   -0.091684   -0.789806
     85          1           0       -4.181730    0.460196   -0.506372
     86          1           0        4.702608   -2.392352    0.259273
     87          1           0       -4.385404    3.658480   -0.822025
     88          1           0        4.220976    0.344319   -1.013720
     89          1           0       -1.021997    3.987431   -1.571969
     90          1           0       -1.172937    4.131541    0.216360
     91          1           0       -2.462872    4.707815   -0.971641
     92          1           0       -2.104740    0.313334   -0.701972
     93          1           0        2.276829    0.957821   -1.097572
     94          1           0        1.899283   -2.082530    1.228251
     95          1           0        1.223225   -2.384345   -0.679095
     96          1           0        3.000013   -3.094925   -0.231621
     97          1           0        0.262333    2.247651   -0.769800
     98          1           0       -0.166577   -0.870035   -0.578146
 ---------------------------------------------------------------------

 SCF Done:  E(RCAM-B3LYP) =  -1706.85353138     A.U. after   15 cycles

 Excitation energies and oscillator strengths:

 Excited State   1:      Singlet-A      2.0000 eV  619.91 nm  f=2.8886  <S**2>=0.000
     155 ->158         0.13669
     156 ->157         0.69843
     156 <-157        -0.10614
 This state for optimization and/or second-order correction.
 Total Energy, E(TD-HF/TD-DFT) =  -1706.78003107
 Copying the excited state density for this state as the 1-particle RhoCI density.

 The electronic state is 1-A.
 Alpha  occ. eigenvalues --  -19.22753 -19.21600 -10.31691 -10.29693 -10.28815
 Alpha  occ. eigenvalues --  -10.28616 -10.28379 -10.28234 -10.27533 -10.27490
 Alpha  occ. eigenvalues --  -10.27457 -10.27427 -10.27353 -10.27331 -10.27206
 Alpha  occ. eigenvalues --  -10.27048 -10.26929 -10.26874 -10.26834 -10.26683
 Alpha  occ. eigenvalues --  -10.26679 -10.26656 -10.26411 -10.26319 -10.26076
 Alpha  occ. eigenvalues --  -10.25741 -10.25493 -10.25488 -10.25307 -10.25265
 Alpha  occ. eigenvalues --  -10.25227 -10.25206 -10.25166 -10.25153 -10.25029
 Alpha  occ. eigenvalues --  -10.24927 -10.24911 -10.24890 -10.24819 -10.24713
 Alpha  occ. eigenvalues --  -10.24521 -10.24257  -1.09622  -1.08100  -0.95019
 Alpha  occ. eigenvalues --   -0.94579  -0.93852  -0.92056  -0.90624  -0.90037
 Alpha  occ. eigenvalues --   -0.87848  -0.87600  -0.87391  -0.86238  -0.85213
 Alpha  occ. eigenvalues --   -0.83658  -0.81903  -0.80422  -0.80224  -0.77927
 Alpha  occ. eigenvalues --   -0.77183  -0.76939  -0.76177  -0.75829  -0.75796
 Alpha  occ. eigenvalues --   -0.75379  -0.75311  -0.75086  -0.72860  -0.70758
 Alpha  occ. eigenvalues --   -0.68945  -0.66887  -0.66246  -0.65411  -0.63921
 Alpha  occ. eigenvalues --   -0.63784  -0.62994  -0.62648  -0.60105  -0.59549
 Alpha  occ. eigenvalues --   -0.59332  -0.58914  -0.58089  -0.57853  -0.56385
 Alpha  occ. eigenvalues --   -0.56242  -0.55463  -0.54690  -0.54147  -0.53982
 Alpha  occ. eigenvalues --   -0.53692  -0.52516  -0.52330  -0.51941  -0.51539
 Alpha  occ. eigenvalues --   -0.51361  -0.50752  -0.50214  -0.49991  -0.49375
 Alpha  occ. eigenvalues --   -0.49074  -0.48795  -0.48471  -0.47943  -0.47740
 Alpha  occ. eigenvalues --   -0.47254  -0.46753  -0.46578  -0.46342  -0.46041
 Alpha  occ. eigenvalues --   -0.45782  -0.45488  -0.45244  -0.45128  -0.44811
 Alpha  occ. eigenvalues --   -0.44667  -0.44447  -0.43854  -0.43758  -0.43556
 Alpha  occ. eigenvalues --   -0.43258  -0.42587  -0.42461  -0.42349  -0.42151
 Alpha  occ. eigenvalues --   -0.41335  -0.41172  -0.41141  -0.40763  -0.40641
 Alpha  occ. eigenvalues --   -0.40170  -0.40104  -0.39404  -0.39223  -0.39005
 Alpha  occ. eigenvalues --   -0.38611  -0.38408  -0.38193  -0.37894  -0.37491
 Alpha  occ. eigenvalues --   -0.37370  -0.37335  -0.36888  -0.36375  -0.35590
 Alpha  occ. eigenvalues --   -0.34920  -0.34523  -0.33876  -0.32376  -0.32060
 Alpha  occ. eigenvalues --   -0.31529  -0.30825  -0.29710  -0.27479  -0.23672
 Alpha  occ. eigenvalues --   -0.19201
 Alpha virt. eigenvalues --   -0.06624  -0.01293   0.03010   0.04250   0.06457
 Alpha virt. eigenvalues --    0.08480   0.09927   0.11025   0.11325   0.11515
 Alpha virt. eigenvalues --    0.11603   0.12194   0.12345   0.12880   0.12979

 Mulliken charges:
               1
     1  O   -0.534429
     2  O   -0.569308
     3  C    0.003598
     4  C   -0.135799
     5  C   -0.188057
     6  C    0.208528
     7  C    0.140060
     8  C   -0.014507
     9  C   -0.276783
    10  C   -0.271128
    11  C   -0.218060
    12  C   -0.189566
    13  C    0.186089
    14  C    0.105357
    15  C   -0.073258
    16  C   -0.226455
    17  C    0.015943
    18  C   -0.311361
    19  C   -0.281199
    20  C   -0.366722
    21  C   -0.055910
    22  C   -0.101786
    23  C   -0.340495
    24  C    0.098817
    25  C   -0.118765
    26  C   -0.382230
    27  C    0.092083
    28  C   -0.105139
    29  C   -0.382111
    30  C   -0.124330
    31  C   -0.077462
    32  C   -0.084863
    33  C   -0.120943
    34  C    0.089961
    35  C   -0.081501
    36  C    0.151856
    37  C   -0.364980
    38  C   -0.110541
    39  C   -0.122822
    40  C   -0.352670
    41  C   -0.068292
    42  C   -0.109014
    43  H    0.062342
    44  H    0.095356
    45  H    0.070231
    46  H    0.067457
    47  H    0.094734
    48  H    0.107040
    49  H    0.084061
    50  H    0.106183
    51  H    0.091737
    52  H    0.084477
    53  H    0.107467
    54  H    0.064905
    55  H    0.073877
    56  H    0.081002
    57  H    0.079522
    58  H    0.101937
    59  H    0.127416
    60  H    0.108530
    61  H    0.112640
    62  H    0.088564
    63  H    0.095599
    64  H    0.108346
    65  H    0.077457
    66  H    0.126344
    67  H    0.129791
    68  H    0.101889
    69  H    0.295440
    70  H    0.080353
    71  H    0.072690
    72  H    0.120645
    73  H    0.095189
    74  H    0.103110
    75  H    0.304906
    76  H    0.078057
    77  H    0.114484
    78  H    0.115152
    79  H    0.109709
    80  H    0.072011
    81  H    0.117929
    82  H    0.140090
    83  H    0.112692
    84  H    0.063718
    85  H    0.076986
    86  H    0.065607
    87  H    0.053568
    88  H    0.055924
    89  H    0.111154
    90  H    0.115256
    91  H    0.119902
    92  H    0.088394
    93  H    0.076618
    94  H    0.087504
    95  H    0.111925
    96  H    0.076452
    97  H    0.091838
    98  H    0.091988
 Sum of Mulliken charges =  -0.00000

 Dipole moment (field-independent basis, Debye):
    X=             -0.5590    Y=              1.2388    Z=             -0.5431  Tot=              1.4636
 Quadrupole moment (field-independent basis, Debye-Ang):
   XX=           -291.4677   YY=           -248.3689   ZZ=           -263.7532
   XY=             -2.9432   XZ=             35.9654   YZ=              1.4555

 Normal termination of Gaussian 16 at Tue Jul 16 03:51:31 2019.
