 Gaussian 16, Revision A.03,
 Gaussian 16:  ES64L-G16RevA.03 25-Dec-2016

 -------------------------------------
 # td=(NStates=1) CAM-B3LYP/6-31G(d,p)
 -------------------------------------

 --
 TD
 --
 Symbolic Z-matrix:
 Charge =  0 Multiplicity = 1

                         Standard orientation:
 ---------------------------------------------------------------------
 Center     Atomic      Atomic             Coordinates (Angstroms)
 Number     Number       Type             X           Y           Z
 ---------------------------------------------------------------------
      1          8           0      -14.072693   -1.996409    0.661207
      2          8           0       14.801451    1.075206   -0.001966
      3          6           0      -11.784742    0.185963    1.363505
      4          6           0      -10.973506    0.384498    0.002201
      5          6           0      -11.964826   -1.387269    1.650173
      6          6           0      -12.634290   -2.088344    0.453485
      7          6           0      -11.576070   -0.364977   -1.182577
      8          6           0       11.143523    0.874152    1.245350
      9          6           0      -10.967339    0.742511    2.463874
     10          6           0      -13.115344    0.853380    1.359263
     11          6           0       12.522133    1.474944    0.851158
     12          6           0      -12.339411   -1.538974   -0.906531
     13          6           0       13.557125    0.521806    0.250762
     14          6           0       10.673614   -0.007057    0.016439
     15          6           0       -9.478292   -0.097851   -0.015993
     16          6           0       12.918751   -0.025147   -1.011254
     17          6           0       11.546604   -0.378998   -0.939939
     18          6           0       10.147799    2.055558    1.487120
     19          6           0       11.235982    0.054624    2.539194
     20          6           0      -11.394838   -0.029048   -2.595928
     21          6           0       -8.545923    0.791835   -0.291198
     22          6           0        9.254662   -0.373564    0.091356
     23          6           0       11.160839   -1.230304   -2.239928
     24          6           0       -7.136791    0.525196   -0.278932
     25          6           0        8.757335   -1.594549   -0.134157
     26          6           0       -6.703639   -0.924028   -0.283807
     27          6           0        7.487236   -2.118005   -0.040640
     28          6           0       -6.253886    1.504033   -0.450196
     29          6           0        7.196921   -3.652736    0.096202
     30          6           0        6.410321   -1.295467   -0.174891
     31          6           0       -4.870028    1.456348   -0.479350
     32          6           0        5.037212   -1.625730   -0.091974
     33          6           0       -4.056257    2.526911   -0.836525
     34          6           0       -2.540472    2.586507   -0.737244
     35          6           0        3.978864   -0.643954   -0.160901
     36          6           0        2.664158   -0.900914   -0.137285
     37          6           0       -2.006853    3.873630   -1.006152
     38          6           0       -1.732365    1.454067   -0.520743
     39          6           0        1.717269    0.151180   -0.294155
     40          6           0        2.053563   -2.256950    0.093184
     41          6           0       -0.367586    1.566038   -0.431428
     42          6           0        0.343702    0.306744   -0.246190
     43          1           0      -10.885186    1.396858   -0.056612
     44          1           0      -12.564595   -1.620620    2.472349
     45          1           0      -11.074392   -1.808666    1.941443
     46          1           0      -12.491585   -3.140944    0.225476
     47          1           0      -10.027124    0.351649    2.616817
     48          1           0      -10.893006    1.912311    2.110798
     49          1           0      -11.475068    0.727942    3.526350
     50          1           0      -13.724564    0.466945    0.474548
     51          1           0      -13.707723    0.653481    2.047524
     52          1           0      -13.023618    1.926466    1.216884
     53          1           0       12.332636    2.365595    0.125618
     54          1           0       12.865419    1.997210    1.869588
     55          1           0      -12.799391   -2.277138   -1.761825
     56          1           0       13.726956   -0.326505    0.944216
     57          1           0       -9.127081   -1.030765    0.189437
     58          1           0       13.535143   -0.762871   -1.331156
     59          1           0       13.220007    0.819808   -1.592700
     60          1           0        9.276512    1.704397    1.815698
     61          1           0        9.923019    2.446356    0.515125
     62          1           0       10.510875    2.947137    2.065484
     63          1           0       12.186785   -0.654847    2.414170
     64          1           0       10.315764   -0.486585    2.678225
     65          1           0       11.523151    0.815949    3.324483
     66          1           0      -10.451076    0.023183   -2.947300
     67          1           0      -11.837060    0.957488   -2.680545
     68          1           0      -11.886861   -0.759811   -3.216556
     69          1           0      -14.577801   -2.022980   -0.272063
     70          1           0        8.460812    0.204549    0.566918
     71          1           0       -8.822107    1.727614   -0.643650
     72          1           0       11.421495   -2.334785   -2.109153
     73          1           0        9.933168   -1.162215   -2.359018
     74          1           0       11.543624   -0.676397   -3.026933
     75          1           0       15.135304    1.489238    0.743479
     76          1           0        9.505598   -2.399061   -0.364320
     77          1           0       -5.580158   -1.163250   -0.293978
     78          1           0       -7.292979   -1.367439    0.557900
     79          1           0       -7.251014   -1.439924   -1.210519
     80          1           0       -6.688481    2.382842   -0.530691
     81          1           0        6.812093   -3.978571    1.176591
     82          1           0        6.410564   -3.872437   -0.428636
     83          1           0        8.048394   -4.246720   -0.309615
     84          1           0        6.848418   -0.420113   -0.316373
     85          1           0       -4.362746    0.607594   -0.024184
     86          1           0        4.645711   -2.718608    0.095924
     87          1           0       -4.302112    3.513310   -1.034513
     88          1           0        4.276964    0.583725   -0.206368
     89          1           0       -1.321233    3.781326   -1.877994
     90          1           0       -1.480977    4.108314   -0.178240
     91          1           0       -2.683754    4.807788   -1.365098
     92          1           0       -2.268072    0.460441   -0.633538
     93          1           0        2.332121    0.986426   -0.416248
     94          1           0        1.603929   -2.265131    1.368278
     95          1           0        1.072650   -2.637313   -1.101476
     96          1           0        3.120076   -3.119797   -0.161031
     97          1           0        0.153057    2.440264   -0.543240
     98          1           0       -0.161468   -0.679445   -0.215757
 ---------------------------------------------------------------------

 SCF Done:  E(RCAM-B3LYP) =  -1706.81621450     A.U. after   15 cycles

 Excitation energies and oscillator strengths:

 Excited State   1:      Singlet-A      1.8264 eV  678.86 nm  f=2.8738  <S**2>=0.000
     155 ->158         0.11884
     156 ->157         0.70456
     156 <-157        -0.12960
 This state for optimization and/or second-order correction.
 Total Energy, E(TD-HF/TD-DFT) =  -1706.74909731
 Copying the excited state density for this state as the 1-particle RhoCI density.

 The electronic state is 1-A.
 Alpha  occ. eigenvalues --  -19.20956 -19.20525 -10.33360 -10.30056 -10.29999
 Alpha  occ. eigenvalues --  -10.28122 -10.28036 -10.27920 -10.27766 -10.27440
 Alpha  occ. eigenvalues --  -10.27343 -10.27298 -10.27293 -10.27221 -10.27024
 Alpha  occ. eigenvalues --  -10.26990 -10.26956 -10.26936 -10.26698 -10.26677
 Alpha  occ. eigenvalues --  -10.26424 -10.26379 -10.26089 -10.26039 -10.26013
 Alpha  occ. eigenvalues --  -10.26012 -10.26001 -10.25874 -10.25517 -10.25315
 Alpha  occ. eigenvalues --  -10.25282 -10.25228 -10.25212 -10.25082 -10.25033
 Alpha  occ. eigenvalues --  -10.24356 -10.24289 -10.24281 -10.24215 -10.23396
 Alpha  occ. eigenvalues --  -10.23191 -10.21869  -1.11524  -1.06242  -0.93861
 Alpha  occ. eigenvalues --   -0.93451  -0.92671  -0.92060  -0.91674  -0.90777
 Alpha  occ. eigenvalues --   -0.87810  -0.87181  -0.87092  -0.86014  -0.84941
 Alpha  occ. eigenvalues --   -0.82801  -0.81883  -0.81328  -0.79939  -0.78266
 Alpha  occ. eigenvalues --   -0.77325  -0.77024  -0.76727  -0.76594  -0.75839
 Alpha  occ. eigenvalues --   -0.74802  -0.74696  -0.73940  -0.72305  -0.71289
 Alpha  occ. eigenvalues --   -0.69714  -0.67794  -0.67458  -0.66102  -0.64666
 Alpha  occ. eigenvalues --   -0.63456  -0.63035  -0.62778  -0.60726  -0.60167
 Alpha  occ. eigenvalues --   -0.59087  -0.58760  -0.57907  -0.57081  -0.56346
 Alpha  occ. eigenvalues --   -0.56028  -0.55476  -0.55022  -0.54245  -0.54109
 Alpha  occ. eigenvalues --   -0.53682  -0.52992  -0.52063  -0.51896  -0.51525
 Alpha  occ. eigenvalues --   -0.51207  -0.50999  -0.50495  -0.50033  -0.49898
 Alpha  occ. eigenvalues --   -0.49419  -0.48951  -0.48085  -0.47744  -0.47675
 Alpha  occ. eigenvalues --   -0.47503  -0.47255  -0.47006  -0.46868  -0.46302
 Alpha  occ. eigenvalues --   -0.46167  -0.45954  -0.45897  -0.45580  -0.45371
 Alpha  occ. eigenvalues --   -0.45143  -0.44634  -0.44557  -0.43973  -0.43804
 Alpha  occ. eigenvalues --   -0.43716  -0.42936  -0.42854  -0.42275  -0.41812
 Alpha  occ. eigenvalues --   -0.41758  -0.41205  -0.41113  -0.40797  -0.40634
 Alpha  occ. eigenvalues --   -0.40163  -0.39586  -0.39439  -0.39350  -0.39189
 Alpha  occ. eigenvalues --   -0.38812  -0.38652  -0.38325  -0.38035  -0.37821
 Alpha  occ. eigenvalues --   -0.37526  -0.36612  -0.36529  -0.36026  -0.35850
 Alpha  occ. eigenvalues --   -0.35352  -0.34354  -0.33668  -0.32150  -0.31926
 Alpha  occ. eigenvalues --   -0.30919  -0.29662  -0.28028  -0.26812  -0.24291
 Alpha  occ. eigenvalues --   -0.18426
 Alpha virt. eigenvalues --   -0.07244  -0.00932   0.02217   0.04770   0.05299
 Alpha virt. eigenvalues --    0.07013   0.08888   0.09482   0.11235   0.11632
 Alpha virt. eigenvalues --    0.12374   0.12833   0.12961   0.13475   0.13842

 Mulliken charges:
               1
     1  O   -0.573624
     2  O   -0.549526
     3  C    0.009937
     4  C   -0.126669
     5  C   -0.187312
     6  C    0.176705
     7  C    0.108582
     8  C   -0.018615
     9  C   -0.278282
    10  C   -0.266995
    11  C   -0.197607
    12  C   -0.177740
    13  C    0.170063
    14  C    0.066495
    15  C   -0.088450
    16  C   -0.224998
    17  C    0.041461
    18  C   -0.310422
    19  C   -0.277877
    20  C   -0.353106
    21  C   -0.073582
    22  C   -0.139539
    23  C   -0.350345
    24  C    0.120201
    25  C   -0.108867
    26  C   -0.376960
    27  C    0.076425
    28  C   -0.095713
    29  C   -0.357520
    30  C   -0.067548
    31  C   -0.090619
    32  C   -0.133012
    33  C   -0.095394
    34  C    0.060494
    35  C   -0.108889
    36  C    0.144132
    37  C   -0.393152
    38  C   -0.098741
    39  C   -0.102955
    40  C   -0.284263
    41  C   -0.075429
    42  C   -0.099590
    43  H    0.090371
    44  H    0.119683
    45  H    0.094555
    46  H    0.083672
    47  H    0.112305
    48  H    0.061049
    49  H    0.087081
    50  H    0.095952
    51  H    0.116815
    52  H    0.079446
    53  H    0.087255
    54  H    0.049671
    55  H    0.063881
    56  H    0.067255
    57  H    0.077192
    58  H    0.116621
    59  H    0.127969
    60  H    0.111626
    61  H    0.106947
    62  H    0.096428
    63  H    0.082567
    64  H    0.114777
    65  H    0.096156
    66  H    0.126245
    67  H    0.112954
    68  H    0.114428
    69  H    0.301189
    70  H    0.087913
    71  H    0.080561
    72  H    0.116539
    73  H    0.093575
    74  H    0.125155
    75  H    0.303072
    76  H    0.073958
    77  H    0.110652
    78  H    0.116405
    79  H    0.111515
    80  H    0.063643
    81  H    0.100750
    82  H    0.133045
    83  H    0.101554
    84  H    0.059749
    85  H    0.094852
    86  H    0.084219
    87  H    0.073631
    88  H    0.077876
    89  H    0.130730
    90  H    0.143970
    91  H    0.102934
    92  H    0.093658
    93  H    0.052550
    94  H    0.106550
    95  H    0.035879
    96  H    0.055547
    97  H    0.100136
    98  H    0.084140
 Sum of Mulliken charges =  -0.00000

 Dipole moment (field-independent basis, Debye):
    X=             -1.5839    Y=              1.3304    Z=             -0.4957  Tot=              2.1270
 Quadrupole moment (field-independent basis, Debye-Ang):
   XX=           -285.3072   YY=           -246.7414   ZZ=           -262.1525
   XY=              0.5487   XZ=             36.4403   YZ=              2.2008

 Normal termination of Gaussian 16 at Tue Jul 16 09:49:15 2019.
