 Gaussian 16, Revision A.03,
 Gaussian 16:  ES64L-G16RevA.03 25-Dec-2016

 -------------------------------------
 # td=(NStates=1) CAM-B3LYP/6-31G(d,p)
 -------------------------------------

 --
 TD
 --
 Symbolic Z-matrix:
 Charge =  0 Multiplicity = 1

                         Standard orientation:
 ---------------------------------------------------------------------
 Center     Atomic      Atomic             Coordinates (Angstroms)
 Number     Number       Type             X           Y           Z
 ---------------------------------------------------------------------
      1          8           0      -14.137739   -2.050330   -0.000276
      2          8           0       14.850634    1.094910   -0.091572
      3          6           0      -11.955386   -0.143227    1.139779
      4          6           0      -11.048371    0.341315   -0.077205
      5          6           0      -12.096661   -1.596386    1.159938
      6          6           0      -12.708622   -2.185291   -0.070828
      7          6           0      -11.554507   -0.218662   -1.259321
      8          6           0       11.060797    1.019079    0.933293
      9          6           0      -11.354803    0.416501    2.429033
     10          6           0      -13.320333    0.626640    1.011575
     11          6           0       12.559500    1.525861    0.593298
     12          6           0      -12.168017   -1.423487   -1.312179
     13          6           0       13.556716    0.525527    0.193257
     14          6           0       10.602852    0.009006   -0.171069
     15          6           0       -9.576655    0.099035    0.065862
     16          6           0       13.108141   -0.226673   -1.151518
     17          6           0       11.560558   -0.482038   -1.031794
     18          6           0       10.155769    2.176056    1.028604
     19          6           0       11.158829    0.225526    2.304338
     20          6           0      -11.161844    0.480842   -2.466271
     21          6           0       -8.558828    0.990082   -0.079862
     22          6           0        9.329592   -0.462161   -0.031399
     23          6           0       11.114677   -1.382581   -2.216533
     24          6           0       -7.099600    0.569150   -0.068041
     25          6           0        8.887268   -1.806790   -0.051084
     26          6           0       -6.817813   -0.874459    0.264845
     27          6           0        7.413946   -2.143126    0.036439
     28          6           0       -6.135958    1.625854   -0.134869
     29          6           0        7.211704   -3.690842    0.022945
     30          6           0        6.422171   -1.272785    0.024666
     31          6           0       -4.689156    1.475552   -0.319463
     32          6           0        4.968176   -1.528993    0.095237
     33          6           0       -3.917569    2.522664   -0.588900
     34          6           0       -2.498483    2.629906   -0.478639
     35          6           0        4.031001   -0.571371    0.085955
     36          6           0        2.583241   -0.866880    0.188794
     37          6           0       -1.845406    3.898800   -0.968732
     38          6           0       -1.763060    1.525862   -0.222690
     39          6           0        1.818818    0.274124    0.003322
     40          6           0        2.020405   -2.241776    0.541318
     41          6           0       -0.362638    1.435095   -0.222451
     42          6           0        0.372439    0.267661    0.003246
     43          1           0      -11.043243    1.461004   -0.232566
     44          1           0      -12.595726   -1.931955    2.153144
     45          1           0      -11.099839   -2.015623    1.398620
     46          1           0      -12.135613   -3.132035   -0.043442
     47          1           0      -10.422966   -0.051625    2.701399
     48          1           0      -11.201953    1.471251    2.619412
     49          1           0      -12.098010    0.239638    3.404817
     50          1           0      -13.970125    0.434994    0.073664
     51          1           0      -14.020095    0.207895    1.912620
     52          1           0      -13.170192    1.689235    1.191512
     53          1           0       12.325449    2.372888   -0.165155
     54          1           0       12.768356    2.368763    1.481839
     55          1           0      -12.217930   -1.953805   -2.186480
     56          1           0       13.727911   -0.347865    1.032325
     57          1           0       -9.138613   -0.770451    0.176711
     58          1           0       13.929222   -1.207643   -1.175406
     59          1           0       13.153009    0.546205   -2.068482
     60          1           0        9.211632    1.927086    1.642441
     61          1           0       10.165623    2.513265    0.065399
     62          1           0       10.551049    2.974852    1.594375
     63          1           0       11.603153   -0.801713    2.141890
     64          1           0       10.075876   -0.042258    2.582224
     65          1           0       11.641171    0.896677    3.134752
     66          1           0      -10.053332    0.870149   -2.256376
     67          1           0      -11.731110    1.417873   -2.711154
     68          1           0      -11.093224   -0.165368   -3.426781
     69          1           0      -14.630986   -2.362026   -0.828536
     70          1           0        8.573654    0.288796    0.209010
     71          1           0       -8.606463    1.922371   -0.362412
     72          1           0       11.553755   -2.402246   -2.196973
     73          1           0       10.193461   -1.521552   -2.375276
     74          1           0       11.568575   -0.973182   -3.099018
     75          1           0       15.301068    1.176777    0.760131
     76          1           0        9.704769   -2.574477   -0.179691
     77          1           0       -5.629257   -1.113341    0.303243
     78          1           0       -7.094932   -1.226479    1.238997
     79          1           0       -7.391264   -1.413339   -0.515641
     80          1           0       -6.495959    2.655862   -0.054791
     81          1           0        6.841794   -4.302311    0.841921
     82          1           0        6.242793   -3.937370   -0.507896
     83          1           0        8.102865   -4.342338   -0.422355
     84          1           0        6.581582   -0.266866   -0.073344
     85          1           0       -4.411723    0.412741   -0.482415
     86          1           0        4.581954   -2.674370    0.221768
     87          1           0       -4.405383    3.538711   -0.759187
     88          1           0        4.409194    0.494683    0.052052
     89          1           0       -1.438255    3.777376   -1.781054
     90          1           0       -1.155448    4.021236   -0.109610
     91          1           0       -2.674177    4.596596   -0.838352
     92          1           0       -2.478826    0.518316   -0.034271
     93          1           0        2.219910    1.275665   -0.336622
     94          1           0        2.645534   -2.605803    1.404673
     95          1           0        0.821035   -2.248487    0.762131
     96          1           0        2.187450   -3.084106   -0.424017
     97          1           0        0.305629    2.381779   -0.270021
     98          1           0       -0.103326   -0.596354    0.333661
 ---------------------------------------------------------------------

 SCF Done:  E(RCAM-B3LYP) =  -1706.91281912     A.U. after   14 cycles

 Excitation energies and oscillator strengths:

 Excited State   1:      Singlet-A      2.4697 eV  502.02 nm  f=2.8728  <S**2>=0.000
     155 ->158        -0.16890
     156 ->157         0.68136
 This state for optimization and/or second-order correction.
 Total Energy, E(TD-HF/TD-DFT) =  -1706.82205927
 Copying the excited state density for this state as the 1-particle RhoCI density.

 The electronic state is 1-A.
 Alpha  occ. eigenvalues --  -19.22138 -19.21134 -10.32391 -10.30958 -10.29781
 Alpha  occ. eigenvalues --  -10.29361 -10.28389 -10.28333 -10.28016 -10.27828
 Alpha  occ. eigenvalues --  -10.27447 -10.27395 -10.27196 -10.27081 -10.27075
 Alpha  occ. eigenvalues --  -10.27072 -10.26887 -10.26765 -10.26748 -10.26665
 Alpha  occ. eigenvalues --  -10.26582 -10.26495 -10.26441 -10.26294 -10.26249
 Alpha  occ. eigenvalues --  -10.26174 -10.25994 -10.25909 -10.25801 -10.25752
 Alpha  occ. eigenvalues --  -10.25684 -10.25650 -10.25380 -10.25163 -10.25155
 Alpha  occ. eigenvalues --  -10.24920 -10.24562 -10.24444 -10.24117 -10.23938
 Alpha  occ. eigenvalues --  -10.23845 -10.22831  -1.08823  -1.08190  -0.94781
 Alpha  occ. eigenvalues --   -0.93193  -0.92366  -0.91097  -0.90009  -0.89331
 Alpha  occ. eigenvalues --   -0.87487  -0.86778  -0.86223  -0.85266  -0.84451
 Alpha  occ. eigenvalues --   -0.83341  -0.81853  -0.80645  -0.79944  -0.78062
 Alpha  occ. eigenvalues --   -0.76804  -0.76262  -0.75715  -0.75668  -0.75327
 Alpha  occ. eigenvalues --   -0.74991  -0.73900  -0.73625  -0.73043  -0.70272
 Alpha  occ. eigenvalues --   -0.68888  -0.68265  -0.66185  -0.64217  -0.63956
 Alpha  occ. eigenvalues --   -0.62997  -0.62196  -0.61659  -0.60406  -0.60003
 Alpha  occ. eigenvalues --   -0.59770  -0.59374  -0.57600  -0.57504  -0.56182
 Alpha  occ. eigenvalues --   -0.55195  -0.54987  -0.54474  -0.54083  -0.53509
 Alpha  occ. eigenvalues --   -0.53127  -0.52780  -0.52539  -0.52141  -0.51981
 Alpha  occ. eigenvalues --   -0.51484  -0.50735  -0.50148  -0.49641  -0.49282
 Alpha  occ. eigenvalues --   -0.48617  -0.48390  -0.47913  -0.47568  -0.47316
 Alpha  occ. eigenvalues --   -0.47085  -0.46715  -0.46141  -0.45789  -0.45621
 Alpha  occ. eigenvalues --   -0.45409  -0.44806  -0.44745  -0.44517  -0.44203
 Alpha  occ. eigenvalues --   -0.44129  -0.44023  -0.43722  -0.43630  -0.43384
 Alpha  occ. eigenvalues --   -0.43118  -0.42934  -0.42723  -0.41945  -0.41816
 Alpha  occ. eigenvalues --   -0.41597  -0.41421  -0.41324  -0.40802  -0.40245
 Alpha  occ. eigenvalues --   -0.40108  -0.40006  -0.39460  -0.39364  -0.39091
 Alpha  occ. eigenvalues --   -0.38859  -0.38638  -0.38179  -0.37950  -0.37655
 Alpha  occ. eigenvalues --   -0.37162  -0.37039  -0.36211  -0.35994  -0.35616
 Alpha  occ. eigenvalues --   -0.34675  -0.33930  -0.33310  -0.32601  -0.32408
 Alpha  occ. eigenvalues --   -0.31737  -0.29354  -0.28299  -0.26519  -0.23787
 Alpha  occ. eigenvalues --   -0.20344
 Alpha virt. eigenvalues --   -0.04811  -0.01072   0.02009   0.05202   0.06820
 Alpha virt. eigenvalues --    0.08781   0.10772   0.11028   0.11284   0.11704
 Alpha virt. eigenvalues --    0.11978   0.12182   0.12558   0.12896   0.13400

 Mulliken charges:
               1
     1  O   -0.551711
     2  O   -0.554106
     3  C    0.036254
     4  C   -0.150119
     5  C   -0.184449
     6  C    0.164796
     7  C    0.198921
     8  C   -0.017852
     9  C   -0.308564
    10  C   -0.280837
    11  C   -0.176658
    12  C   -0.172545
    13  C    0.163365
    14  C    0.078717
    15  C   -0.048637
    16  C   -0.199546
    17  C    0.007284
    18  C   -0.309342
    19  C   -0.290662
    20  C   -0.375748
    21  C   -0.059392
    22  C   -0.114950
    23  C   -0.340814
    24  C    0.061428
    25  C   -0.120070
    26  C   -0.370691
    27  C    0.110107
    28  C   -0.141475
    29  C   -0.385379
    30  C   -0.114627
    31  C   -0.070708
    32  C   -0.087023
    33  C   -0.114126
    34  C    0.052153
    35  C   -0.104631
    36  C    0.103043
    37  C   -0.325004
    38  C   -0.091869
    39  C   -0.123956
    40  C   -0.350797
    41  C   -0.118095
    42  C   -0.066684
    43  H    0.086263
    44  H    0.100279
    45  H    0.093849
    46  H    0.085341
    47  H    0.098862
    48  H    0.109306
    49  H    0.060859
    50  H    0.107086
    51  H    0.077681
    52  H    0.092757
    53  H    0.089086
    54  H    0.060835
    55  H    0.074061
    56  H    0.065585
    57  H    0.058816
    58  H    0.101739
    59  H    0.121320
    60  H    0.101062
    61  H    0.117450
    62  H    0.104096
    63  H    0.103372
    64  H    0.092669
    65  H    0.088794
    66  H    0.095417
    67  H    0.117292
    68  H    0.098054
    69  H    0.312216
    70  H    0.088277
    71  H    0.061158
    72  H    0.096854
    73  H    0.119980
    74  H    0.101179
    75  H    0.306918
    76  H    0.098765
    77  H    0.088388
    78  H    0.140600
    79  H    0.124856
    80  H    0.084296
    81  H    0.122327
    82  H    0.105430
    83  H    0.100934
    84  H    0.076427
    85  H    0.096953
    86  H    0.064435
    87  H    0.070836
    88  H    0.089235
    89  H    0.138821
    90  H    0.118583
    91  H    0.101612
    92  H    0.062310
    93  H    0.084339
    94  H    0.131083
    95  H    0.108150
    96  H    0.093369
    97  H    0.082146
    98  H    0.072591
 Sum of Mulliken charges =  -0.00000

 Dipole moment (field-independent basis, Debye):
    X=              0.2163    Y=             -0.9813    Z=              0.0185  Tot=              1.0050
 Quadrupole moment (field-independent basis, Debye-Ang):
   XX=           -279.9843   YY=           -243.7524   ZZ=           -264.0725
   XY=              3.0150   XZ=             37.2463   YZ=              2.7507

 Normal termination of Gaussian 16 at Sun Jul 14 13:07:34 2019.
