 Gaussian 16, Revision A.03,
 Gaussian 16:  ES64L-G16RevA.03 25-Dec-2016

 -------------------------------------
 # td=(NStates=1) CAM-B3LYP/6-31G(d,p)
 -------------------------------------

 --
 TD
 --
 Symbolic Z-matrix:
 Charge =  0 Multiplicity = 1

                         Standard orientation:
 ---------------------------------------------------------------------
 Center     Atomic      Atomic             Coordinates (Angstroms)
 Number     Number       Type             X           Y           Z
 ---------------------------------------------------------------------
      1          8           0      -14.192044   -2.063170    0.454946
      2          8           0       14.769379    0.737880    0.152931
      3          6           0      -11.860645   -0.060948    1.256464
      4          6           0      -11.014113    0.217537   -0.080179
      5          6           0      -12.023827   -1.578369    1.349609
      6          6           0      -12.817054   -2.235549    0.244228
      7          6           0      -11.446313   -0.461139   -1.281415
      8          6           0       11.127748    0.985290    1.020289
      9          6           0      -11.095019    0.579659    2.552471
     10          6           0      -13.183747    0.649541    1.090900
     11          6           0       12.626420    1.410798    0.823621
     12          6           0      -12.274049   -1.585363   -1.060636
     13          6           0       13.400862    0.239417    0.351565
     14          6           0       10.691179   -0.113376   -0.070093
     15          6           0       -9.485784   -0.154588    0.106177
     16          6           0       12.990582   -0.336282   -0.968044
     17          6           0       11.509890   -0.584988   -0.898457
     18          6           0       10.243907    2.213575    1.051160
     19          6           0       11.081225    0.325876    2.490056
     20          6           0      -11.102791   -0.020701   -2.568793
     21          6           0       -8.610972    0.767733   -0.089330
     22          6           0        9.310209   -0.438458    0.069514
     23          6           0       11.026553   -1.612987   -1.999389
     24          6           0       -7.090386    0.495714    0.058813
     25          6           0        8.778346   -1.752324   -0.043406
     26          6           0       -6.518601   -0.811044    0.362969
     27          6           0        7.375505   -2.138300    0.029445
     28          6           0       -6.293179    1.538931   -0.254181
     29          6           0        7.086265   -3.561226    0.111018
     30          6           0        6.394575   -1.184241   -0.141074
     31          6           0       -4.806892    1.596310   -0.257845
     32          6           0        5.015083   -1.387112    0.019634
     33          6           0       -4.026863    2.651097   -0.481506
     34          6           0       -2.620891    2.683529   -0.669745
     35          6           0        4.086851   -0.420723   -0.261779
     36          6           0        2.680280   -0.573648   -0.315127
     37          6           0       -2.021645    4.018890   -1.145361
     38          6           0       -1.724957    1.730298   -0.424590
     39          6           0        1.849087    0.464575   -0.540594
     40          6           0        2.104559   -1.935941    0.001781
     41          6           0       -0.374728    1.708194   -0.573296
     42          6           0        0.434794    0.544294   -0.316580
     43          1           0      -10.837586    1.362393   -0.058947
     44          1           0      -12.570157   -1.729287    2.378300
     45          1           0      -11.140903   -2.000908    1.308749
     46          1           0      -12.562987   -3.288261    0.015614
     47          1           0      -10.229704   -0.215847    2.967758
     48          1           0      -11.015230    1.599724    2.229407
     49          1           0      -11.777173    0.573039    3.379355
     50          1           0      -13.717549    0.416440    0.057528
     51          1           0      -13.823980    0.443667    1.802796
     52          1           0      -13.033146    1.718284    0.942138
     53          1           0       12.667351    2.189971   -0.100925
     54          1           0       12.954186    1.937893    1.667999
     55          1           0      -12.677232   -2.027595   -1.971383
     56          1           0       13.374456   -0.722989    0.978336
     57          1           0       -9.350198   -1.256437    0.528672
     58          1           0       13.576142   -1.223993   -1.235844
     59          1           0       13.196074    0.294412   -1.830366
     60          1           0        9.308249    2.045702    1.828494
     61          1           0       10.023059    2.476133   -0.054898
     62          1           0       10.769310    3.018107    1.547763
     63          1           0       11.678001   -0.578700    2.540705
     64          1           0        9.986363    0.233013    2.914549
     65          1           0       11.356987    1.063826    3.227646
     66          1           0       -9.950324    0.198159   -2.752995
     67          1           0      -11.512014    0.953835   -2.839437
     68          1           0      -11.631799   -0.683251   -3.312110
     69          1           0      -14.527475   -1.936742   -0.505095
     70          1           0        8.575620    0.325142    0.383850
     71          1           0       -8.730849    1.885963   -0.378860
     72          1           0       11.459341   -2.557864   -1.653437
     73          1           0        9.910376   -1.504642   -2.320258
     74          1           0       11.480253   -1.363924   -2.890814
     75          1           0       15.144312    1.008288    0.933025
     76          1           0        9.319854   -2.677295   -0.304702
     77          1           0       -5.435346   -0.745531    0.420885
     78          1           0       -7.057157   -1.194105    1.400536
     79          1           0       -6.707666   -1.652115   -0.345959
     80          1           0       -6.546944    2.552272   -0.242634
     81          1           0        6.913313   -4.109407    1.073059
     82          1           0        6.226228   -3.815156   -0.411881
     83          1           0        7.802825   -4.348203   -0.356569
     84          1           0        6.743958   -0.075830   -0.286496
     85          1           0       -4.187116    0.609200   -0.409723
     86          1           0        4.714260   -2.527586    0.255524
     87          1           0       -4.556354    3.596772   -0.630143
     88          1           0        4.623585    0.638639   -0.647190
     89          1           0       -1.543079    4.133444   -2.102873
     90          1           0       -1.143826    4.379134   -0.415312
     91          1           0       -2.792544    4.633901   -1.113961
     92          1           0       -2.112448    0.788705    0.088118
     93          1           0        2.419715    1.317591   -0.678230
     94          1           0        2.233348   -2.335661    1.180497
     95          1           0        0.959408   -2.076279   -0.401584
     96          1           0        2.469824   -2.655227   -0.724609
     97          1           0        0.274598    2.589035   -0.959351
     98          1           0       -0.137655   -0.321246   -0.267500
 ---------------------------------------------------------------------

 SCF Done:  E(RCAM-B3LYP) =  -1706.96154094     A.U. after   15 cycles

 Excitation energies and oscillator strengths:

 Excited State   1:      Singlet-A      2.3212 eV  534.14 nm  f=2.9492  <S**2>=0.000
     155 ->158         0.15691
     156 ->157         0.68894
 This state for optimization and/or second-order correction.
 Total Energy, E(TD-HF/TD-DFT) =  -1706.87623804
 Copying the excited state density for this state as the 1-particle RhoCI density.

 The electronic state is 1-A.
 Alpha  occ. eigenvalues --  -19.22035 -19.19649 -10.30935 -10.30862 -10.27754
 Alpha  occ. eigenvalues --  -10.27629 -10.27541 -10.27468 -10.27390 -10.27180
 Alpha  occ. eigenvalues --  -10.27071 -10.27016 -10.26996 -10.26926 -10.26879
 Alpha  occ. eigenvalues --  -10.26832 -10.26817 -10.26719 -10.26686 -10.26678
 Alpha  occ. eigenvalues --  -10.26400 -10.26308 -10.26281 -10.26198 -10.26142
 Alpha  occ. eigenvalues --  -10.26108 -10.26064 -10.26001 -10.25822 -10.25754
 Alpha  occ. eigenvalues --  -10.25740 -10.25567 -10.25385 -10.25298 -10.25204
 Alpha  occ. eigenvalues --  -10.25198 -10.25037 -10.24711 -10.24665 -10.24602
 Alpha  occ. eigenvalues --  -10.24125 -10.22873  -1.09694  -1.08665  -0.93755
 Alpha  occ. eigenvalues --   -0.93698  -0.92329  -0.91704  -0.90523  -0.90063
 Alpha  occ. eigenvalues --   -0.87396  -0.86915  -0.86731  -0.85600  -0.84795
 Alpha  occ. eigenvalues --   -0.83435  -0.82071  -0.81243  -0.79616  -0.78039
 Alpha  occ. eigenvalues --   -0.76517  -0.76486  -0.76162  -0.75784  -0.75341
 Alpha  occ. eigenvalues --   -0.75070  -0.75011  -0.74569  -0.73463  -0.70390
 Alpha  occ. eigenvalues --   -0.69131  -0.67464  -0.66094  -0.65554  -0.63531
 Alpha  occ. eigenvalues --   -0.63168  -0.62488  -0.61930  -0.59974  -0.59700
 Alpha  occ. eigenvalues --   -0.59130  -0.58590  -0.58119  -0.57128  -0.56430
 Alpha  occ. eigenvalues --   -0.55622  -0.55148  -0.54918  -0.53943  -0.53801
 Alpha  occ. eigenvalues --   -0.53341  -0.52885  -0.51914  -0.51584  -0.50628
 Alpha  occ. eigenvalues --   -0.50333  -0.50091  -0.49757  -0.49378  -0.49013
 Alpha  occ. eigenvalues --   -0.48713  -0.48359  -0.48321  -0.48047  -0.47726
 Alpha  occ. eigenvalues --   -0.47374  -0.47253  -0.46902  -0.46719  -0.46422
 Alpha  occ. eigenvalues --   -0.46171  -0.45631  -0.45314  -0.45096  -0.44923
 Alpha  occ. eigenvalues --   -0.44728  -0.44509  -0.43831  -0.43776  -0.43506
 Alpha  occ. eigenvalues --   -0.43072  -0.42774  -0.42736  -0.42605  -0.42447
 Alpha  occ. eigenvalues --   -0.41518  -0.41450  -0.41131  -0.40625  -0.40337
 Alpha  occ. eigenvalues --   -0.40134  -0.40013  -0.39364  -0.38982  -0.38593
 Alpha  occ. eigenvalues --   -0.38485  -0.38422  -0.38404  -0.37840  -0.37694
 Alpha  occ. eigenvalues --   -0.37436  -0.37257  -0.36031  -0.35786  -0.35356
 Alpha  occ. eigenvalues --   -0.34824  -0.34211  -0.33796  -0.32713  -0.32158
 Alpha  occ. eigenvalues --   -0.32104  -0.29946  -0.27984  -0.27418  -0.24092
 Alpha  occ. eigenvalues --   -0.19873
 Alpha virt. eigenvalues --   -0.05440  -0.00620   0.02802   0.04329   0.07193
 Alpha virt. eigenvalues --    0.09857   0.11320   0.11926   0.12107   0.12236
 Alpha virt. eigenvalues --    0.12414   0.12910   0.13449   0.13722   0.14051

 Mulliken charges:
               1
     1  O   -0.532341
     2  O   -0.569450
     3  C    0.013979
     4  C   -0.184482
     5  C   -0.163173
     6  C    0.174675
     7  C    0.217982
     8  C   -0.017437
     9  C   -0.300024
    10  C   -0.269099
    11  C   -0.173824
    12  C   -0.226142
    13  C    0.161231
    14  C    0.118770
    15  C   -0.100791
    16  C   -0.210008
    17  C   -0.003304
    18  C   -0.305091
    19  C   -0.308895
    20  C   -0.383685
    21  C   -0.069436
    22  C   -0.138449
    23  C   -0.359094
    24  C    0.128621
    25  C   -0.098690
    26  C   -0.368351
    27  C    0.105142
    28  C   -0.142580
    29  C   -0.406594
    30  C   -0.113834
    31  C   -0.084199
    32  C   -0.076906
    33  C   -0.120795
    34  C    0.105856
    35  C   -0.127670
    36  C    0.128757
    37  C   -0.364493
    38  C   -0.125881
    39  C   -0.116705
    40  C   -0.366188
    41  C   -0.072266
    42  C   -0.093182
    43  H    0.080629
    44  H    0.083356
    45  H    0.091811
    46  H    0.088474
    47  H    0.086106
    48  H    0.111970
    49  H    0.109554
    50  H    0.078513
    51  H    0.114560
    52  H    0.081151
    53  H    0.085888
    54  H    0.096699
    55  H    0.058931
    56  H    0.081685
    57  H    0.096038
    58  H    0.114146
    59  H    0.122263
    60  H    0.080580
    61  H    0.104196
    62  H    0.107504
    63  H    0.108432
    64  H    0.088772
    65  H    0.097573
    66  H    0.116107
    67  H    0.123625
    68  H    0.107753
    69  H    0.309642
    70  H    0.096876
    71  H    0.093196
    72  H    0.115127
    73  H    0.116181
    74  H    0.107908
    75  H    0.291619
    76  H    0.084945
    77  H    0.120480
    78  H    0.094214
    79  H    0.121018
    80  H    0.079410
    81  H    0.120574
    82  H    0.127937
    83  H    0.102050
    84  H    0.077297
    85  H    0.073153
    86  H    0.085425
    87  H    0.076328
    88  H    0.071982
    89  H    0.124887
    90  H    0.099187
    91  H    0.107454
    92  H    0.072585
    93  H    0.072953
    94  H    0.104662
    95  H    0.085583
    96  H    0.124385
    97  H    0.081632
    98  H    0.083041
 Sum of Mulliken charges =  -0.00000

 Dipole moment (field-independent basis, Debye):
    X=             -0.0605    Y=             -0.2224    Z=             -0.6440  Tot=              0.6840
 Quadrupole moment (field-independent basis, Debye-Ang):
   XX=           -269.8708   YY=           -245.9505   ZZ=           -259.8541
   XY=             -9.2262   XZ=             36.7992   YZ=              1.9670

 Normal termination of Gaussian 16 at Tue Jul 16 12:00:17 2019.
