 Gaussian 16, Revision A.03,
 Gaussian 16:  ES64L-G16RevA.03 25-Dec-2016

 -------------------------------------
 # td=(NStates=1) CAM-B3LYP/6-31G(d,p)
 -------------------------------------

 --
 TD
 --
 Symbolic Z-matrix:
 Charge =  0 Multiplicity = 1

                         Standard orientation:
 ---------------------------------------------------------------------
 Center     Atomic      Atomic             Coordinates (Angstroms)
 Number     Number       Type             X           Y           Z
 ---------------------------------------------------------------------
      1          8           0      -14.008315   -2.209130    0.432551
      2          8           0       14.815400    0.659549    0.486640
      3          6           0      -11.761450   -0.225432    1.407396
      4          6           0      -11.032205    0.191443    0.150585
      5          6           0      -11.905631   -1.630697    1.431461
      6          6           0      -12.598036   -2.281655    0.262512
      7          6           0      -11.624331   -0.331729   -1.072136
      8          6           0       11.126444    0.866084    1.089788
      9          6           0      -10.890476    0.281742    2.592403
     10          6           0      -13.130114    0.605722    1.372718
     11          6           0       12.608284    1.321655    0.997760
     12          6           0      -12.288308   -1.515832   -1.048781
     13          6           0       13.547565    0.206468    0.608185
     14          6           0       10.709696   -0.063154    0.042597
     15          6           0       -9.569752   -0.055780    0.040116
     16          6           0       13.087852   -0.275313   -0.818927
     17          6           0       11.610519   -0.562289   -0.802808
     18          6           0       10.211096    2.202696    1.069146
     19          6           0       10.893296    0.265081    2.562378
     20          6           0      -11.332611    0.338328   -2.374083
     21          6           0       -8.563487    0.838269   -0.173304
     22          6           0        9.289551   -0.457229   -0.061330
     23          6           0       11.281426   -1.389412   -2.088009
     24          6           0       -7.133382    0.552772   -0.144414
     25          6           0        8.843059   -1.714113   -0.170707
     26          6           0       -6.647926   -0.920200   -0.175327
     27          6           0        7.393408   -2.047383   -0.267777
     28          6           0       -6.236302    1.578836   -0.303744
     29          6           0        7.051100   -3.481258   -0.098703
     30          6           0        6.283699   -1.266035   -0.422802
     31          6           0       -4.724865    1.543478   -0.457841
     32          6           0        4.913292   -1.348472   -0.282426
     33          6           0       -4.048284    2.676258   -0.790592
     34          6           0       -2.647441    2.776446   -0.687479
     35          6           0        3.941920   -0.352804   -0.365312
     36          6           0        2.654993   -0.528969   -0.285787
     37          6           0       -2.058630    4.082744   -1.006136
     38          6           0       -1.948521    1.730998   -0.419240
     39          6           0        1.699049    0.543759   -0.427701
     40          6           0        2.217618   -1.995135   -0.093373
     41          6           0       -0.544850    1.620435   -0.418293
     42          6           0        0.237456    0.506397   -0.368837
     43          1           0      -11.244016    1.388483    0.241631
     44          1           0      -12.432788   -1.966128    2.324040
     45          1           0      -10.960416   -2.243369    1.716693
     46          1           0      -12.132825   -3.368227    0.170144
     47          1           0      -10.021411   -0.565187    2.667083
     48          1           0      -10.491506    1.369211    2.589797
     49          1           0      -11.669608    0.334028    3.455596
     50          1           0      -13.681338    0.384908    0.516370
     51          1           0      -13.629809    0.329475    2.511992
     52          1           0      -12.988516    1.698969    1.430460
     53          1           0       12.685209    2.137536    0.122507
     54          1           0       12.773709    1.779101    1.908060
     55          1           0      -12.824108   -1.743717   -2.148880
     56          1           0       13.597289   -0.697469    1.251717
     57          1           0       -9.169013   -1.156870   -0.055524
     58          1           0       13.401737   -1.224381   -1.138538
     59          1           0       13.420650    0.606653   -1.473579
     60          1           0        9.253656    1.905664    1.386902
     61          1           0        9.917000    2.475586   -0.069878
     62          1           0       10.753569    2.906051    1.708434
     63          1           0       11.649367   -0.468980    2.637060
     64          1           0       10.064585   -0.328698    2.500230
     65          1           0       10.880748    1.086654    3.497773
     66          1           0      -10.298893    0.169134   -2.412907
     67          1           0      -11.447493    1.379064   -2.306519
     68          1           0      -11.695838   -0.085382   -3.255590
     69          1           0      -14.521908   -2.377125   -0.460524
     70          1           0        8.572964    0.347270    0.166904
     71          1           0       -8.767854    1.790486   -0.416511
     72          1           0       11.573425   -2.504228   -2.053493
     73          1           0       10.140810   -1.096308   -2.517320
     74          1           0       11.925524   -1.133920   -2.854525
     75          1           0       15.402760    0.506863    1.316206
     76          1           0        9.502424   -2.564095   -0.297899
     77          1           0       -5.497579   -0.821936   -0.079928
     78          1           0       -7.065003   -1.211578    0.841700
     79          1           0       -6.814157   -1.592492   -1.004446
     80          1           0       -6.873996    2.506021   -0.354852
     81          1           0        6.616618   -3.660103    0.851888
     82          1           0        6.443174   -3.876723   -0.825097
     83          1           0        7.960171   -4.161858   -0.385575
     84          1           0        6.751193   -0.175831   -0.506407
     85          1           0       -4.139731    0.640046   -0.063996
     86          1           0        4.320090   -2.432803   -0.069064
     87          1           0       -4.614594    3.636417   -0.864791
     88          1           0        4.620006    0.529157   -0.486845
     89          1           0       -1.507453    4.112209   -1.975559
     90          1           0       -1.294209    4.323065   -0.295554
     91          1           0       -2.793924    5.036209   -1.089939
     92          1           0       -2.215386    0.764935   -0.217842
     93          1           0        2.203924    1.495426   -0.670194
     94          1           0        2.379080   -2.371630    0.999158
     95          1           0        1.153599   -2.151793   -0.445766
     96          1           0        2.878141   -2.735373   -0.720913
     97          1           0        0.072681    2.324600   -0.410484
     98          1           0       -0.065734   -0.570712   -0.243991
 ---------------------------------------------------------------------

 SCF Done:  E(RCAM-B3LYP) =  -1706.90652040     A.U. after   15 cycles

 Excitation energies and oscillator strengths:

 Excited State   1:      Singlet-A      2.2987 eV  539.37 nm  f=3.0182  <S**2>=0.000
     155 ->158        -0.14934
     156 ->157         0.68992
 This state for optimization and/or second-order correction.
 Total Energy, E(TD-HF/TD-DFT) =  -1706.82204544
 Copying the excited state density for this state as the 1-particle RhoCI density.

 The electronic state is 1-A.
 Alpha  occ. eigenvalues --  -19.21769 -19.21197 -10.32033 -10.30303 -10.27876
 Alpha  occ. eigenvalues --  -10.27379 -10.27337 -10.27290 -10.27227 -10.27068
 Alpha  occ. eigenvalues --  -10.27014 -10.27008 -10.26991 -10.26907 -10.26866
 Alpha  occ. eigenvalues --  -10.26722 -10.26547 -10.26479 -10.26455 -10.26367
 Alpha  occ. eigenvalues --  -10.26323 -10.26302 -10.26273 -10.26209 -10.26173
 Alpha  occ. eigenvalues --  -10.26137 -10.26135 -10.26036 -10.25938 -10.25375
 Alpha  occ. eigenvalues --  -10.25341 -10.25315 -10.25292 -10.25279 -10.24988
 Alpha  occ. eigenvalues --  -10.24910 -10.24731 -10.24648 -10.24616 -10.24250
 Alpha  occ. eigenvalues --  -10.23801 -10.23417  -1.10480  -1.08160  -0.95025
 Alpha  occ. eigenvalues --   -0.93678  -0.93576  -0.92176  -0.90239  -0.89963
 Alpha  occ. eigenvalues --   -0.87935  -0.87475  -0.86101  -0.85187  -0.84338
 Alpha  occ. eigenvalues --   -0.82657  -0.81761  -0.80253  -0.79753  -0.78475
 Alpha  occ. eigenvalues --   -0.77270  -0.76218  -0.76124  -0.75447  -0.75400
 Alpha  occ. eigenvalues --   -0.74976  -0.74524  -0.73870  -0.73540  -0.70455
 Alpha  occ. eigenvalues --   -0.69115  -0.67906  -0.67094  -0.65420  -0.63924
 Alpha  occ. eigenvalues --   -0.63832  -0.63137  -0.62637  -0.61478  -0.59634
 Alpha  occ. eigenvalues --   -0.59074  -0.58693  -0.57971  -0.57415  -0.56522
 Alpha  occ. eigenvalues --   -0.55571  -0.55261  -0.55091  -0.54271  -0.53762
 Alpha  occ. eigenvalues --   -0.53247  -0.52649  -0.51998  -0.51595  -0.51201
 Alpha  occ. eigenvalues --   -0.50736  -0.50312  -0.49585  -0.49341  -0.48878
 Alpha  occ. eigenvalues --   -0.48812  -0.48728  -0.47934  -0.47848  -0.47641
 Alpha  occ. eigenvalues --   -0.47508  -0.47338  -0.47123  -0.46784  -0.46687
 Alpha  occ. eigenvalues --   -0.46400  -0.45980  -0.45387  -0.45134  -0.44855
 Alpha  occ. eigenvalues --   -0.44234  -0.44003  -0.43534  -0.43476  -0.43380
 Alpha  occ. eigenvalues --   -0.43059  -0.42731  -0.42465  -0.42011  -0.41812
 Alpha  occ. eigenvalues --   -0.41305  -0.41172  -0.41035  -0.40791  -0.40294
 Alpha  occ. eigenvalues --   -0.40103  -0.40030  -0.39574  -0.39276  -0.38969
 Alpha  occ. eigenvalues --   -0.38819  -0.38739  -0.38070  -0.37696  -0.37389
 Alpha  occ. eigenvalues --   -0.37194  -0.36753  -0.35700  -0.35528  -0.35147
 Alpha  occ. eigenvalues --   -0.34511  -0.34295  -0.33731  -0.32190  -0.31901
 Alpha  occ. eigenvalues --   -0.31179  -0.29379  -0.28555  -0.27139  -0.24211
 Alpha  occ. eigenvalues --   -0.19780
 Alpha virt. eigenvalues --   -0.05653  -0.00860   0.03015   0.05446   0.07433
 Alpha virt. eigenvalues --    0.08794   0.10750   0.10847   0.11521   0.11948
 Alpha virt. eigenvalues --    0.12370   0.13021   0.13140   0.13269   0.13727

 Mulliken charges:
               1
     1  O   -0.551598
     2  O   -0.558715
     3  C    0.020985
     4  C   -0.128384
     5  C   -0.178652
     6  C    0.163683
     7  C    0.111943
     8  C   -0.042293
     9  C   -0.285558
    10  C   -0.279634
    11  C   -0.163589
    12  C   -0.160583
    13  C    0.169964
    14  C    0.095896
    15  C   -0.099205
    16  C   -0.211159
    17  C    0.026343
    18  C   -0.304686
    19  C   -0.302884
    20  C   -0.347157
    21  C   -0.064213
    22  C   -0.130045
    23  C   -0.366834
    24  C    0.087904
    25  C   -0.061860
    26  C   -0.359700
    27  C    0.063600
    28  C   -0.142463
    29  C   -0.376084
    30  C   -0.126261
    31  C   -0.084137
    32  C   -0.075724
    33  C   -0.116630
    34  C    0.139693
    35  C   -0.076397
    36  C    0.107997
    37  C   -0.385948
    38  C   -0.083030
    39  C   -0.140296
    40  C   -0.386637
    41  C   -0.061921
    42  C   -0.098418
    43  H    0.071804
    44  H    0.116931
    45  H    0.089942
    46  H    0.067607
    47  H    0.088651
    48  H    0.100613
    49  H    0.085235
    50  H    0.129787
    51  H    0.065061
    52  H    0.096761
    53  H    0.085223
    54  H    0.090169
    55  H    0.050383
    56  H    0.067400
    57  H    0.084943
    58  H    0.104310
    59  H    0.119230
    60  H    0.113224
    61  H    0.081234
    62  H    0.106728
    63  H    0.099832
    64  H    0.117569
    65  H    0.079413
    66  H    0.133006
    67  H    0.110321
    68  H    0.109880
    69  H    0.314714
    70  H    0.091340
    71  H    0.069980
    72  H    0.099973
    73  H    0.100324
    74  H    0.123063
    75  H    0.312341
    76  H    0.097502
    77  H    0.089820
    78  H    0.115746
    79  H    0.131327
    80  H    0.073210
    81  H    0.131796
    82  H    0.128708
    83  H    0.074958
    84  H    0.042597
    85  H    0.108349
    86  H    0.051932
    87  H    0.088135
    88  H    0.080122
    89  H    0.128878
    90  H    0.129438
    91  H    0.095577
    92  H    0.074504
    93  H    0.081894
    94  H    0.121195
    95  H    0.104500
    96  H    0.119633
    97  H    0.045857
    98  H    0.070012
 Sum of Mulliken charges =  -0.00000

 Dipole moment (field-independent basis, Debye):
    X=              0.9673    Y=             -0.4952    Z=             -0.1275  Tot=              1.0942
 Quadrupole moment (field-independent basis, Debye-Ang):
   XX=           -247.6978   YY=           -247.3115   ZZ=           -261.4755
   XY=            -13.8759   XZ=             39.0023   YZ=              2.5773

 Normal termination of Gaussian 16 at Tue Jul 16 11:35:03 2019.
