 Gaussian 16, Revision A.03,
 Gaussian 16:  ES64L-G16RevA.03 25-Dec-2016

 -------------------------------------
 # td=(NStates=1) CAM-B3LYP/6-31G(d,p)
 -------------------------------------

 --
 TD
 --
 Symbolic Z-matrix:
 Charge =  0 Multiplicity = 1

                         Standard orientation:
 ---------------------------------------------------------------------
 Center     Atomic      Atomic             Coordinates (Angstroms)
 Number     Number       Type             X           Y           Z
 ---------------------------------------------------------------------
      1          8           0      -13.942426   -2.268958    0.562429
      2          8           0       14.852517    0.870735    0.019128
      3          6           0      -11.787791    0.049976    1.263314
      4          6           0      -11.010904    0.226023   -0.022714
      5          6           0      -11.907912   -1.454361    1.444717
      6          6           0      -12.504987   -2.272683    0.303620
      7          6           0      -11.635850   -0.465733   -1.257143
      8          6           0       11.097054    0.777485    1.108842
      9          6           0      -11.092926    0.545055    2.498797
     10          6           0      -13.199933    0.701017    1.178857
     11          6           0       12.592462    1.311331    0.975369
     12          6           0      -12.314614   -1.660008   -1.066805
     13          6           0       13.559853    0.362823    0.277376
     14          6           0       10.638416   -0.057528   -0.060746
     15          6           0       -9.512279   -0.025876    0.012765
     16          6           0       12.908076   -0.202432   -1.045193
     17          6           0       11.452068   -0.388053   -0.968153
     18          6           0       10.250736    2.135250    1.312217
     19          6           0       11.065915   -0.050400    2.389814
     20          6           0      -11.190090    0.033710   -2.578691
     21          6           0       -8.533158    0.928130   -0.143418
     22          6           0        9.259941   -0.370733   -0.019248
     23          6           0       10.967823   -1.091621   -2.254850
     24          6           0       -7.175617    0.578581   -0.230041
     25          6           0        8.749580   -1.714200    0.034850
     26          6           0       -6.655505   -0.759860    0.045081
     27          6           0        7.431074   -2.112993   -0.001734
     28          6           0       -6.174393    1.600022   -0.367946
     29          6           0        7.214292   -3.607683    0.249997
     30          6           0        6.317304   -1.260804   -0.162771
     31          6           0       -4.833468    1.536632   -0.403467
     32          6           0        4.948447   -1.493572   -0.144060
     33          6           0       -4.017993    2.724996   -0.505060
     34          6           0       -2.613176    2.807211   -0.624866
     35          6           0        4.027950   -0.490935   -0.233019
     36          6           0        2.653317   -0.792997   -0.146634
     37          6           0       -1.913400    4.172725   -0.737738
     38          6           0       -1.790711    1.646040   -0.505107
     39          6           0        1.732438    0.338884   -0.177293
     40          6           0        2.001389   -2.180997   -0.149640
     41          6           0       -0.425585    1.528839   -0.533886
     42          6           0        0.321919    0.381123   -0.368471
     43          1           0      -11.140594    1.293345   -0.126810
     44          1           0      -12.266575   -1.734749    2.387862
     45          1           0      -10.950072   -1.901822    1.606065
     46          1           0      -11.996118   -3.185614    0.254200
     47          1           0      -10.043936    0.085820    2.533648
     48          1           0      -10.950823    1.701664    2.232218
     49          1           0      -11.621481    0.413053    3.427313
     50          1           0      -13.650124    0.461319    0.229617
     51          1           0      -13.682239    0.560947    2.112034
     52          1           0      -13.162904    1.900918    1.034324
     53          1           0       12.713111    2.139712    0.252036
     54          1           0       13.005411    1.823552    2.080983
     55          1           0      -12.846986   -2.199793   -2.107966
     56          1           0       13.578183   -0.574378    0.843313
     57          1           0       -9.355237   -0.928445    0.465065
     58          1           0       13.415039   -1.157239   -1.172122
     59          1           0       13.335007    0.560735   -1.793038
     60          1           0        9.277115    1.942333    1.710483
     61          1           0        9.996500    2.664126    0.394354
     62          1           0       10.919599    2.906543    1.932654
     63          1           0       11.842684   -0.872179    2.205511
     64          1           0       10.271890   -0.543679    2.664819
     65          1           0       11.513186    0.672677    3.264308
     66          1           0      -10.244975    0.222573   -2.696559
     67          1           0      -11.538147    1.059583   -2.682767
     68          1           0      -11.448065   -0.669210   -3.392959
     69          1           0      -14.351814   -2.381534   -0.403952
     70          1           0        8.511032    0.532551    0.252506
     71          1           0       -9.083101    1.891169   -0.367966
     72          1           0       11.446347   -2.099249   -2.120776
     73          1           0        9.976052   -1.177993   -2.659112
     74          1           0       11.321369   -0.407746   -3.178066
     75          1           0       15.329646    0.897324    0.825188
     76          1           0        9.442464   -2.667792    0.025614
     77          1           0       -5.664243   -0.818088   -0.430573
     78          1           0       -6.608691   -1.292022    1.208469
     79          1           0       -7.369615   -1.589165   -0.484346
     80          1           0       -6.552295    2.626784   -0.538207
     81          1           0        6.824093   -4.044659    1.297906
     82          1           0        6.315654   -3.729864   -0.389721
     83          1           0        8.012343   -4.269119   -0.090836
     84          1           0        6.792201   -0.262532   -0.260402
     85          1           0       -4.215344    0.596263   -0.039020
     86          1           0        4.505015   -2.541166   -0.251379
     87          1           0       -4.559541    3.623258   -0.652444
     88          1           0        4.445186    0.451687   -0.140015
     89          1           0       -1.404726    4.082952   -1.591047
     90          1           0       -1.554286    4.263158    0.355909
     91          1           0       -2.581930    4.934323   -0.875524
     92          1           0       -2.417538    0.656377   -0.530847
     93          1           0        2.284313    1.319014   -0.179550
     94          1           0        2.572377   -3.029761    0.548012
     95          1           0        1.033391   -2.199632    0.078727
     96          1           0        2.078934   -2.703298   -1.125662
     97          1           0        0.180482    2.738961   -0.670032
     98          1           0       -0.356533   -0.450517   -0.245431
 ---------------------------------------------------------------------

 SCF Done:  E(RCAM-B3LYP) =  -1706.89667710     A.U. after   17 cycles

 Excitation energies and oscillator strengths:

 Excited State   1:      Singlet-A      1.6829 eV  736.71 nm  f=3.0824  <S**2>=0.000
     155 ->158         0.13739
     156 ->157         0.70273
     156 <-157        -0.13067
 This state for optimization and/or second-order correction.
 Total Energy, E(TD-HF/TD-DFT) =  -1706.83483008
 Copying the excited state density for this state as the 1-particle RhoCI density.

 The electronic state is 1-A.
 Alpha  occ. eigenvalues --  -19.21776 -19.21087 -10.30341 -10.30239 -10.28859
 Alpha  occ. eigenvalues --  -10.28577 -10.28102 -10.28076 -10.28061 -10.27866
 Alpha  occ. eigenvalues --  -10.27749 -10.27642 -10.27565 -10.27551 -10.27526
 Alpha  occ. eigenvalues --  -10.27448 -10.27253 -10.27196 -10.27054 -10.27048
 Alpha  occ. eigenvalues --  -10.26833 -10.26765 -10.26725 -10.26598 -10.26441
 Alpha  occ. eigenvalues --  -10.26271 -10.26140 -10.26076 -10.26026 -10.25972
 Alpha  occ. eigenvalues --  -10.25953 -10.25916 -10.25627 -10.25541 -10.25499
 Alpha  occ. eigenvalues --  -10.25086 -10.24956 -10.24845 -10.24671 -10.24063
 Alpha  occ. eigenvalues --  -10.24059 -10.23457  -1.10589  -1.06611  -0.94518
 Alpha  occ. eigenvalues --   -0.93898  -0.92174  -0.91878  -0.90739  -0.89872
 Alpha  occ. eigenvalues --   -0.87562  -0.86995  -0.86582  -0.85665  -0.84919
 Alpha  occ. eigenvalues --   -0.83334  -0.82707  -0.80825  -0.79296  -0.78608
 Alpha  occ. eigenvalues --   -0.77275  -0.76799  -0.76130  -0.76087  -0.75986
 Alpha  occ. eigenvalues --   -0.75306  -0.74517  -0.74457  -0.72713  -0.70656
 Alpha  occ. eigenvalues --   -0.69936  -0.67854  -0.66532  -0.65306  -0.64059
 Alpha  occ. eigenvalues --   -0.63597  -0.62685  -0.62262  -0.61284  -0.59909
 Alpha  occ. eigenvalues --   -0.59623  -0.58781  -0.57559  -0.57037  -0.56207
 Alpha  occ. eigenvalues --   -0.55618  -0.55251  -0.54693  -0.54074  -0.53628
 Alpha  occ. eigenvalues --   -0.53453  -0.53283  -0.52838  -0.52423  -0.51949
 Alpha  occ. eigenvalues --   -0.51427  -0.50210  -0.49903  -0.49586  -0.48933
 Alpha  occ. eigenvalues --   -0.48805  -0.48402  -0.48118  -0.47837  -0.47798
 Alpha  occ. eigenvalues --   -0.47046  -0.46953  -0.46579  -0.46158  -0.45977
 Alpha  occ. eigenvalues --   -0.45828  -0.45703  -0.45436  -0.45270  -0.44692
 Alpha  occ. eigenvalues --   -0.44328  -0.44250  -0.43990  -0.43852  -0.43308
 Alpha  occ. eigenvalues --   -0.42976  -0.42720  -0.42594  -0.42402  -0.41971
 Alpha  occ. eigenvalues --   -0.41779  -0.41536  -0.40926  -0.40850  -0.40770
 Alpha  occ. eigenvalues --   -0.40529  -0.40471  -0.39846  -0.39832  -0.39571
 Alpha  occ. eigenvalues --   -0.39055  -0.38564  -0.38218  -0.37960  -0.37822
 Alpha  occ. eigenvalues --   -0.37586  -0.36590  -0.36184  -0.36133  -0.35656
 Alpha  occ. eigenvalues --   -0.35224  -0.34323  -0.33868  -0.32193  -0.31971
 Alpha  occ. eigenvalues --   -0.31647  -0.30258  -0.28812  -0.27285  -0.23123
 Alpha  occ. eigenvalues --   -0.18355
 Alpha virt. eigenvalues --   -0.07804  -0.02675   0.02249   0.05253   0.06884
 Alpha virt. eigenvalues --    0.08914   0.10272   0.10647   0.11175   0.11446
 Alpha virt. eigenvalues --    0.12033   0.12278   0.12928   0.13422   0.13542

 Mulliken charges:
               1
     1  O   -0.553076
     2  O   -0.548488
     3  C    0.015382
     4  C   -0.150791
     5  C   -0.174272
     6  C    0.162908
     7  C    0.111999
     8  C   -0.028849
     9  C   -0.287549
    10  C   -0.271796
    11  C   -0.174776
    12  C   -0.175954
    13  C    0.143202
    14  C    0.113415
    15  C   -0.073496
    16  C   -0.236436
    17  C    0.038940
    18  C   -0.313198
    19  C   -0.265067
    20  C   -0.352832
    21  C   -0.092389
    22  C   -0.160125
    23  C   -0.337882
    24  C    0.107104
    25  C   -0.099510
    26  C   -0.356600
    27  C    0.096349
    28  C   -0.109251
    29  C   -0.369980
    30  C   -0.108071
    31  C   -0.068777
    32  C   -0.083400
    33  C   -0.129113
    34  C    0.043091
    35  C   -0.091863
    36  C    0.106222
    37  C   -0.349456
    38  C   -0.108592
    39  C   -0.139764
    40  C   -0.363923
    41  C   -0.060204
    42  C   -0.096747
    43  H    0.078546
    44  H    0.106571
    45  H    0.081380
    46  H    0.097570
    47  H    0.093936
    48  H    0.074584
    49  H    0.109995
    50  H    0.117018
    51  H    0.111600
    52  H    0.052730
    53  H    0.101679
    54  H    0.049174
    55  H    0.057731
    56  H    0.070469
    57  H    0.085709
    58  H    0.118662
    59  H    0.120812
    60  H    0.104408
    61  H    0.107042
    62  H    0.092083
    63  H    0.083866
    64  H    0.116850
    65  H    0.074577
    66  H    0.138405
    67  H    0.106773
    68  H    0.105727
    69  H    0.301700
    70  H    0.093401
    71  H    0.087035
    72  H    0.105628
    73  H    0.122720
    74  H    0.084629
    75  H    0.309920
    76  H    0.081589
    77  H    0.118070
    78  H    0.091312
    79  H    0.089430
    80  H    0.078811
    81  H    0.106493
    82  H    0.111971
    83  H    0.109145
    84  H    0.070169
    85  H    0.089223
    86  H    0.087542
    87  H    0.080701
    88  H    0.090054
    89  H    0.141328
    90  H    0.136224
    91  H    0.111608
    92  H    0.071370
    93  H    0.083570
    94  H    0.087762
    95  H    0.126347
    96  H    0.126945
    97  H    0.051466
    98  H    0.089551
 Sum of Mulliken charges =  -0.00000

 Dipole moment (field-independent basis, Debye):
    X=              1.4420    Y=             -0.3913    Z=             -0.3847  Tot=              1.5429
 Quadrupole moment (field-independent basis, Debye-Ang):
   XX=           -291.2328   YY=           -246.0623   ZZ=           -263.5839
   XY=            -11.3582   XZ=             35.7408   YZ=              1.4824

 Normal termination of Gaussian 16 at Sun Jul 14 11:36:02 2019.
