 Gaussian 16, Revision A.03,
 Gaussian 16:  ES64L-G16RevA.03 25-Dec-2016

 -------------------------------------
 # td=(NStates=1) CAM-B3LYP/6-31G(d,p)
 -------------------------------------

 --
 TD
 --
 Symbolic Z-matrix:
 Charge =  0 Multiplicity = 1

                         Standard orientation:
 ---------------------------------------------------------------------
 Center     Atomic      Atomic             Coordinates (Angstroms)
 Number     Number       Type             X           Y           Z
 ---------------------------------------------------------------------
      1          8           0      -14.126660   -1.743023    0.584395
      2          8           0       14.839486    0.876877    0.129496
      3          6           0      -11.669543    0.035973    1.279446
      4          6           0      -10.870796    0.273669   -0.111474
      5          6           0      -11.957632   -1.452948    1.387514
      6          6           0      -12.708248   -2.050019    0.234696
      7          6           0      -11.661832   -0.366578   -1.158036
      8          6           0       11.051689    1.058399    0.939377
      9          6           0      -10.901434    0.568159    2.544090
     10          6           0      -13.054753    0.750397    1.309409
     11          6           0       12.467888    1.634704    0.605607
     12          6           0      -12.411227   -1.457632   -1.041403
     13          6           0       13.510546    0.466366    0.345129
     14          6           0       10.638516    0.074104   -0.154952
     15          6           0       -9.526526   -0.050116   -0.026999
     16          6           0       13.039291   -0.226400   -0.947964
     17          6           0       11.582841   -0.459809   -0.977733
     18          6           0       10.075933    2.299650    1.030467
     19          6           0       10.990478    0.495939    2.377861
     20          6           0      -11.348278    0.135939   -2.571712
     21          6           0       -8.503794    0.772671   -0.228907
     22          6           0        9.245490   -0.398352    0.027891
     23          6           0       11.140112   -1.520111   -1.972815
     24          6           0       -7.092995    0.466323   -0.202388
     25          6           0        8.821494   -1.702575   -0.172616
     26          6           0       -6.603687   -0.956619   -0.082544
     27          6           0        7.499904   -2.183694   -0.081520
     28          6           0       -6.234280    1.490936   -0.407640
     29          6           0        7.344344   -3.603202    0.411673
     30          6           0        6.413565   -1.318944    0.030078
     31          6           0       -4.846438    1.399441   -0.437299
     32          6           0        5.005411   -1.616434    0.057195
     33          6           0       -4.040330    2.532338   -0.611167
     34          6           0       -2.730849    2.583375   -0.606389
     35          6           0        4.023090   -0.585071   -0.133707
     36          6           0        2.655599   -0.810290    0.012252
     37          6           0       -1.938326    3.873929   -0.925375
     38          6           0       -1.836389    1.442425   -0.423402
     39          6           0        1.790325    0.252745   -0.319255
     40          6           0        2.056569   -2.237218    0.174027
     41          6           0       -0.440576    1.393332   -0.468182
     42          6           0        0.421572    0.239327   -0.480578
     43          1           0      -11.134420    1.404933   -0.333880
     44          1           0      -12.771544   -1.650254    2.038404
     45          1           0      -10.972889   -1.914205    1.569915
     46          1           0      -12.583847   -3.155851    0.447156
     47          1           0      -10.005944    0.163941    2.747221
     48          1           0      -10.893961    1.780466    2.430869
     49          1           0      -11.539285    0.123486    3.392947
     50          1           0      -13.726650    0.604744    0.412515
     51          1           0      -13.653325    0.744019    2.264470
     52          1           0      -12.800483    1.831424    1.271361
     53          1           0       12.493044    2.419202    0.080701
     54          1           0       12.938342    2.117330    1.370126
     55          1           0      -12.862432   -2.027025   -1.827291
     56          1           0       13.390734   -0.173543    1.205302
     57          1           0       -9.175802   -1.062090    0.009101
     58          1           0       13.659348   -1.234437   -0.981945
     59          1           0       13.231450    0.368955   -1.885430
     60          1           0        9.106190    2.162147    1.606705
     61          1           0        9.994645    2.537560   -0.028215
     62          1           0       10.563567    3.183554    1.586796
     63          1           0       11.931095   -0.114322    2.670162
     64          1           0        9.890100   -0.166963    2.260511
     65          1           0       10.622397    1.392427    3.148607
     66          1           0      -10.251972    0.434877   -3.026032
     67          1           0      -11.877211    1.108725   -2.728102
     68          1           0      -11.537449   -0.543825   -3.447306
     69          1           0      -14.567107   -2.410751   -0.129640
     70          1           0        8.760317    0.509868    0.402881
     71          1           0       -8.817739    1.870603   -0.385912
     72          1           0       11.211263   -2.453402   -1.664270
     73          1           0       10.077339   -1.307218   -2.501120
     74          1           0       11.881731   -1.398316   -2.818629
     75          1           0       15.204371    1.120482    0.946237
     76          1           0        9.656872   -2.383589   -0.313424
     77          1           0       -5.609190   -0.885419    0.176258
     78          1           0       -7.279525   -1.671557    0.806902
     79          1           0       -6.933694   -1.387213   -1.251067
     80          1           0       -6.396687    2.553521   -0.494992
     81          1           0        7.108376   -3.952312    1.419540
     82          1           0        6.361658   -3.832740   -0.179156
     83          1           0        8.006431   -4.281099   -0.025707
     84          1           0        6.460920   -0.391983   -0.417127
     85          1           0       -4.339337    0.357719   -0.554596
     86          1           0        4.688181   -2.716079    0.257486
     87          1           0       -4.697950    3.369549   -0.707000
     88          1           0        4.433151    0.445919   -0.188662
     89          1           0       -1.270390    3.677093   -1.709499
     90          1           0       -1.093652    3.967450    0.095036
     91          1           0       -2.585430    4.737289   -0.853231
     92          1           0       -2.226446    0.516375   -0.243381
     93          1           0        2.215358    1.257467   -0.587507
     94          1           0        2.546254   -2.604639    1.097525
     95          1           0        1.034598   -2.270773    0.439840
     96          1           0        2.274380   -2.993582   -0.631902
     97          1           0       -0.039707    2.422405   -0.575805
     98          1           0       -0.180998   -0.735974   -0.710786
 ---------------------------------------------------------------------

 SCF Done:  E(RCAM-B3LYP) =  -1706.87506263     A.U. after   17 cycles

 Excitation energies and oscillator strengths:

 Excited State   1:      Singlet-A      1.6540 eV  749.60 nm  f=2.9223  <S**2>=0.000
     155 ->158        -0.12463
     156 ->157         0.70839
     156 <-157        -0.14517
 This state for optimization and/or second-order correction.
 Total Energy, E(TD-HF/TD-DFT) =  -1706.81427922
 Copying the excited state density for this state as the 1-particle RhoCI density.

 The electronic state is 1-A.
 Alpha  occ. eigenvalues --  -19.21823 -19.21474 -10.30711 -10.30082 -10.29511
 Alpha  occ. eigenvalues --  -10.27920 -10.27814 -10.27707 -10.27607 -10.27557
 Alpha  occ. eigenvalues --  -10.27473 -10.27311 -10.27259 -10.27182 -10.27136
 Alpha  occ. eigenvalues --  -10.27128 -10.26935 -10.26897 -10.26784 -10.26727
 Alpha  occ. eigenvalues --  -10.26697 -10.26624 -10.26353 -10.26234 -10.26131
 Alpha  occ. eigenvalues --  -10.26004 -10.25952 -10.25910 -10.25898 -10.25791
 Alpha  occ. eigenvalues --  -10.25518 -10.25479 -10.25162 -10.25149 -10.25024
 Alpha  occ. eigenvalues --  -10.25018 -10.24962 -10.24761 -10.24676 -10.23422
 Alpha  occ. eigenvalues --  -10.23245 -10.22284  -1.10900  -1.06991  -0.94519
 Alpha  occ. eigenvalues --   -0.93163  -0.92966  -0.91350  -0.90812  -0.89905
 Alpha  occ. eigenvalues --   -0.87367  -0.86643  -0.86375  -0.86020  -0.84729
 Alpha  occ. eigenvalues --   -0.83364  -0.81939  -0.80683  -0.79564  -0.78409
 Alpha  occ. eigenvalues --   -0.76472  -0.76430  -0.76238  -0.76188  -0.75555
 Alpha  occ. eigenvalues --   -0.75435  -0.74225  -0.73616  -0.72144  -0.71048
 Alpha  occ. eigenvalues --   -0.69501  -0.67345  -0.66697  -0.65588  -0.63743
 Alpha  occ. eigenvalues --   -0.63281  -0.62918  -0.62030  -0.60433  -0.60180
 Alpha  occ. eigenvalues --   -0.59867  -0.59657  -0.58963  -0.57510  -0.56564
 Alpha  occ. eigenvalues --   -0.55300  -0.54952  -0.54888  -0.54293  -0.53443
 Alpha  occ. eigenvalues --   -0.53287  -0.52644  -0.52227  -0.52032  -0.51074
 Alpha  occ. eigenvalues --   -0.50428  -0.50305  -0.50135  -0.49519  -0.49261
 Alpha  occ. eigenvalues --   -0.48641  -0.48270  -0.48127  -0.47987  -0.47823
 Alpha  occ. eigenvalues --   -0.47464  -0.46932  -0.46612  -0.46267  -0.45747
 Alpha  occ. eigenvalues --   -0.45527  -0.45062  -0.44735  -0.44686  -0.44416
 Alpha  occ. eigenvalues --   -0.44117  -0.44088  -0.43888  -0.43442  -0.43413
 Alpha  occ. eigenvalues --   -0.43133  -0.42728  -0.42349  -0.42248  -0.42088
 Alpha  occ. eigenvalues --   -0.41726  -0.41510  -0.41369  -0.40988  -0.40823
 Alpha  occ. eigenvalues --   -0.40354  -0.40121  -0.39414  -0.39138  -0.38980
 Alpha  occ. eigenvalues --   -0.38515  -0.38364  -0.38253  -0.37726  -0.37514
 Alpha  occ. eigenvalues --   -0.37334  -0.36305  -0.35966  -0.35580  -0.35350
 Alpha  occ. eigenvalues --   -0.35132  -0.34042  -0.33318  -0.32600  -0.31709
 Alpha  occ. eigenvalues --   -0.31124  -0.29930  -0.29173  -0.27048  -0.23400
 Alpha  occ. eigenvalues --   -0.18085
 Alpha virt. eigenvalues --   -0.07778  -0.01785   0.02645   0.04857   0.06507
 Alpha virt. eigenvalues --    0.08719   0.10342   0.10821   0.11097   0.11886
 Alpha virt. eigenvalues --    0.12041   0.12640   0.12926   0.13317   0.13649

 Mulliken charges:
               1
     1  O   -0.545276
     2  O   -0.545890
     3  C    0.009406
     4  C   -0.157841
     5  C   -0.184946
     6  C    0.073604
     7  C    0.109886
     8  C   -0.009173
     9  C   -0.289422
    10  C   -0.301086
    11  C   -0.175477
    12  C   -0.064989
    13  C    0.154945
    14  C    0.073464
    15  C   -0.029065
    16  C   -0.206667
    17  C    0.025393
    18  C   -0.335219
    19  C   -0.272043
    20  C   -0.366458
    21  C   -0.083098
    22  C   -0.094351
    23  C   -0.363902
    24  C    0.072826
    25  C   -0.105631
    26  C   -0.325070
    27  C    0.064840
    28  C   -0.088207
    29  C   -0.369201
    30  C   -0.100413
    31  C   -0.070998
    32  C   -0.106953
    33  C   -0.145022
    34  C    0.109344
    35  C   -0.122846
    36  C    0.097763
    37  C   -0.362539
    38  C   -0.103175
    39  C   -0.111802
    40  C   -0.369830
    41  C   -0.082239
    42  C   -0.110949
    43  H    0.087672
    44  H    0.127817
    45  H    0.082857
    46  H    0.090414
    47  H    0.109560
    48  H    0.082626
    49  H    0.091779
    50  H    0.120224
    51  H    0.103574
    52  H    0.068859
    53  H    0.092240
    54  H    0.067761
    55  H    0.078814
    56  H    0.081871
    57  H    0.079773
    58  H    0.096797
    59  H    0.124909
    60  H    0.105454
    61  H    0.110542
    62  H    0.094632
    63  H    0.089720
    64  H    0.078695
    65  H    0.083412
    66  H    0.094903
    67  H    0.114064
    68  H    0.108132
    69  H    0.296561
    70  H    0.089410
    71  H    0.070302
    72  H    0.133806
    73  H    0.110274
    74  H    0.085408
    75  H    0.301105
    76  H    0.090445
    77  H    0.127313
    78  H    0.082365
    79  H    0.105561
    80  H    0.082516
    81  H    0.133646
    82  H    0.095128
    83  H    0.113155
    84  H    0.085118
    85  H    0.086015
    86  H    0.082661
    87  H    0.080567
    88  H    0.094966
    89  H    0.150007
    90  H    0.075348
    91  H    0.114464
    92  H    0.059981
    93  H    0.086840
    94  H    0.116631
    95  H    0.118478
    96  H    0.123766
    97  H    0.065275
    98  H    0.084093
 Sum of Mulliken charges =  -0.00000

 Dipole moment (field-independent basis, Debye):
    X=             -0.2497    Y=             -1.3606    Z=             -0.5737  Tot=              1.4975
 Quadrupole moment (field-independent basis, Debye-Ang):
   XX=           -270.5653   YY=           -241.6770   ZZ=           -264.4173
   XY=             15.0119   XZ=             39.4240   YZ=              1.5024

 Normal termination of Gaussian 16 at Tue Jul 16 13:00:12 2019.
