 Gaussian 16, Revision A.03,
 Gaussian 16:  ES64L-G16RevA.03 25-Dec-2016

 -------------------------------------
 # td=(NStates=1) CAM-B3LYP/6-31G(d,p)
 -------------------------------------

 --
 TD
 --
 Symbolic Z-matrix:
 Charge =  0 Multiplicity = 1

                         Standard orientation:
 ---------------------------------------------------------------------
 Center     Atomic      Atomic             Coordinates (Angstroms)
 Number     Number       Type             X           Y           Z
 ---------------------------------------------------------------------
      1          8           0      -14.307177   -1.772160    0.528821
      2          8           0       14.883583    0.933734    0.260026
      3          6           0      -11.752515   -0.034275    1.342628
      4          6           0      -10.956207    0.319884    0.032082
      5          6           0      -12.032531   -1.520215    1.304149
      6          6           0      -12.837238   -2.016755    0.136688
      7          6           0      -11.679220   -0.249587   -1.223554
      8          6           0       11.040183    1.032812    0.992733
      9          6           0      -10.816127    0.331778    2.514758
     10          6           0      -13.058287    0.800052    1.281469
     11          6           0       12.487703    1.634491    0.795391
     12          6           0      -12.513508   -1.311975   -1.147753
     13          6           0       13.536619    0.495110    0.397695
     14          6           0       10.680086    0.017517   -0.042460
     15          6           0       -9.506681   -0.098353    0.052321
     16          6           0       13.021770   -0.083442   -0.935489
     17          6           0       11.577096   -0.487802   -0.996616
     18          6           0       10.123830    2.263024    0.879191
     19          6           0       10.986698    0.395675    2.390874
     20          6           0      -11.342259    0.457660   -2.584398
     21          6           0       -8.540970    0.773518   -0.180885
     22          6           0        9.286025   -0.362243   -0.112895
     23          6           0       11.201399   -1.555217   -2.050611
     24          6           0       -7.135258    0.455092   -0.104232
     25          6           0        8.868776   -1.727597   -0.060665
     26          6           0       -6.684761   -0.849723    0.064166
     27          6           0        7.419239   -2.178128    0.018037
     28          6           0       -6.241189    1.457828   -0.365795
     29          6           0        7.212118   -3.721711    0.202728
     30          6           0        6.316732   -1.270253   -0.056292
     31          6           0       -4.817815    1.417285   -0.360762
     32          6           0        4.961241   -1.608557   -0.033511
     33          6           0       -3.961480    2.562314   -0.649007
     34          6           0       -2.486618    2.652237   -0.575896
     35          6           0        4.037671   -0.587621   -0.212511
     36          6           0        2.677377   -0.884030   -0.151616
     37          6           0       -1.869723    3.935257   -0.853564
     38          6           0       -1.672463    1.452996   -0.433335
     39          6           0        1.834424    0.190945   -0.313312
     40          6           0        2.120430   -2.301881   -0.079735
     41          6           0       -0.334030    1.367602   -0.478901
     42          6           0        0.406760    0.257104   -0.341322
     43          1           0      -11.047984    1.252460   -0.082115
     44          1           0      -12.450014   -1.899475    2.425756
     45          1           0      -11.126827   -2.120905    1.187379
     46          1           0      -12.837061   -3.054960    0.114078
     47          1           0       -9.830166   -0.316442    2.603374
     48          1           0      -10.489449    1.438666    2.730410
     49          1           0      -11.184055   -0.010619    3.487262
     50          1           0      -13.876611    0.402951    0.627939
     51          1           0      -13.563198    0.577455    2.257980
     52          1           0      -12.840278    1.746743    1.244920
     53          1           0       12.438898    2.400003   -0.088456
     54          1           0       13.047014    2.129202    1.537584
     55          1           0      -12.928821   -1.911501   -2.050095
     56          1           0       13.595974   -0.356815    1.177891
     57          1           0       -9.353409   -1.155616    0.291552
     58          1           0       13.725025   -0.965430   -1.233610
     59          1           0       13.137091    0.548311   -1.798527
     60          1           0        9.163373    2.077914    1.254633
     61          1           0        9.990524    2.878153    0.034865
     62          1           0       10.609946    3.000393    1.649201
     63          1           0       11.524727   -0.408248    2.565576
     64          1           0        9.911111    0.084751    2.640612
     65          1           0       11.130904    1.052043    3.228897
     66          1           0      -10.228949    0.359486   -2.800215
     67          1           0      -11.760954    1.451291   -2.642673
     68          1           0      -11.782594   -0.429433   -3.290651
     69          1           0      -14.869927   -1.998465   -0.149822
     70          1           0        8.519887    0.453620   -0.006735
     71          1           0       -9.012020    1.890615   -0.464152
     72          1           0       11.566728   -2.546985   -1.704651
     73          1           0       10.108028   -1.744838   -2.158055
     74          1           0       11.664483   -1.246724   -3.003041
     75          1           0       15.126255    1.276288    1.133659
     76          1           0        9.505707   -2.688742   -0.044081
     77          1           0       -5.576547   -1.238761   -0.356328
     78          1           0       -6.722333   -1.302682    0.961308
     79          1           0       -7.539263   -1.545728   -0.525617
     80          1           0       -6.520514    2.589135   -0.422171
     81          1           0        6.717068   -3.694768    1.209551
     82          1           0        6.414404   -4.127553   -0.488430
     83          1           0        7.975872   -4.451415    0.080387
     84          1           0        6.661887   -0.314008   -0.157217
     85          1           0       -4.058546    0.513218   -0.158659
     86          1           0        4.615117   -2.572757    0.360489
     87          1           0       -4.509806    3.412492   -0.557446
     88          1           0        4.262284    0.462125   -0.274226
     89          1           0       -1.071628    3.641328   -1.643322
     90          1           0       -1.218052    4.314234   -0.048754
     91          1           0       -2.474802    4.772787   -1.166546
     92          1           0       -2.505226    0.605759   -0.325415
     93          1           0        2.172459    1.018768   -0.651671
     94          1           0        2.384351   -2.773620    0.840419
     95          1           0        1.107436   -2.178320   -0.212021
     96          1           0        2.472320   -2.935093   -0.900700
     97          1           0        0.280553    2.373158   -0.615270
     98          1           0       -0.405433   -0.550954   -0.294568
 ---------------------------------------------------------------------

 SCF Done:  E(RCAM-B3LYP) =  -1706.94525670     A.U. after   15 cycles

 Excitation energies and oscillator strengths:

 Excited State   1:      Singlet-A      1.9608 eV  632.32 nm  f=2.9079  <S**2>=0.000
     155 ->158         0.15396
     156 ->157         0.69204
 This state for optimization and/or second-order correction.
 Total Energy, E(TD-HF/TD-DFT) =  -1706.87319874
 Copying the excited state density for this state as the 1-particle RhoCI density.

 The electronic state is 1-A.
 Alpha  occ. eigenvalues --  -19.21463 -19.19100 -10.31359 -10.30515 -10.28388
 Alpha  occ. eigenvalues --  -10.28297 -10.28104 -10.27952 -10.27941 -10.27843
 Alpha  occ. eigenvalues --  -10.27331 -10.27254 -10.27204 -10.27153 -10.27062
 Alpha  occ. eigenvalues --  -10.27055 -10.27044 -10.26743 -10.26722 -10.26570
 Alpha  occ. eigenvalues --  -10.26440 -10.26336 -10.26315 -10.26307 -10.26225
 Alpha  occ. eigenvalues --  -10.26144 -10.26080 -10.25828 -10.25804 -10.25781
 Alpha  occ. eigenvalues --  -10.25625 -10.25579 -10.25506 -10.25457 -10.25379
 Alpha  occ. eigenvalues --  -10.25034 -10.24750 -10.24693 -10.24667 -10.24612
 Alpha  occ. eigenvalues --  -10.23787 -10.22020  -1.09513  -1.06627  -0.93833
 Alpha  occ. eigenvalues --   -0.93180  -0.92467  -0.91949  -0.90777  -0.88839
 Alpha  occ. eigenvalues --   -0.87116  -0.86483  -0.85740  -0.85691  -0.84480
 Alpha  occ. eigenvalues --   -0.83140  -0.82139  -0.80855  -0.79110  -0.79014
 Alpha  occ. eigenvalues --   -0.77443  -0.76721  -0.76265  -0.75689  -0.75625
 Alpha  occ. eigenvalues --   -0.75392  -0.74990  -0.74389  -0.72860  -0.70026
 Alpha  occ. eigenvalues --   -0.68988  -0.68194  -0.66557  -0.65043  -0.64505
 Alpha  occ. eigenvalues --   -0.63015  -0.62231  -0.62112  -0.61207  -0.59809
 Alpha  occ. eigenvalues --   -0.59715  -0.57965  -0.57423  -0.57007  -0.56081
 Alpha  occ. eigenvalues --   -0.55754  -0.54825  -0.54709  -0.54612  -0.53890
 Alpha  occ. eigenvalues --   -0.53120  -0.52950  -0.52271  -0.51974  -0.51061
 Alpha  occ. eigenvalues --   -0.50692  -0.50447  -0.49866  -0.49417  -0.49175
 Alpha  occ. eigenvalues --   -0.48768  -0.48402  -0.48189  -0.48099  -0.47863
 Alpha  occ. eigenvalues --   -0.47394  -0.47162  -0.47111  -0.46407  -0.46234
 Alpha  occ. eigenvalues --   -0.46098  -0.45557  -0.45156  -0.45016  -0.44632
 Alpha  occ. eigenvalues --   -0.44384  -0.44271  -0.43971  -0.43710  -0.43640
 Alpha  occ. eigenvalues --   -0.43201  -0.42864  -0.42182  -0.42105  -0.41998
 Alpha  occ. eigenvalues --   -0.41746  -0.41624  -0.41395  -0.40957  -0.40710
 Alpha  occ. eigenvalues --   -0.40456  -0.40168  -0.39772  -0.39306  -0.39225
 Alpha  occ. eigenvalues --   -0.39053  -0.38971  -0.38415  -0.38122  -0.37655
 Alpha  occ. eigenvalues --   -0.37414  -0.36962  -0.36277  -0.35967  -0.35327
 Alpha  occ. eigenvalues --   -0.34984  -0.34464  -0.33034  -0.32189  -0.31748
 Alpha  occ. eigenvalues --   -0.31343  -0.29981  -0.28416  -0.26564  -0.23071
 Alpha  occ. eigenvalues --   -0.18728
 Alpha virt. eigenvalues --   -0.06180  -0.01448   0.02810   0.05248   0.06676
 Alpha virt. eigenvalues --    0.08809   0.10550   0.10995   0.11879   0.12203
 Alpha virt. eigenvalues --    0.12385   0.12964   0.13179   0.13472   0.13985

 Mulliken charges:
               1
     1  O   -0.568423
     2  O   -0.554874
     3  C    0.027694
     4  C   -0.088860
     5  C   -0.167200
     6  C    0.125040
     7  C    0.071790
     8  C   -0.013784
     9  C   -0.315480
    10  C   -0.302593
    11  C   -0.189888
    12  C   -0.120545
    13  C    0.160280
    14  C    0.065856
    15  C   -0.068476
    16  C   -0.224893
    17  C    0.054400
    18  C   -0.318221
    19  C   -0.302633
    20  C   -0.351293
    21  C   -0.087321
    22  C   -0.142078
    23  C   -0.356815
    24  C    0.157682
    25  C   -0.099386
    26  C   -0.386808
    27  C    0.043399
    28  C   -0.143756
    29  C   -0.380683
    30  C   -0.090382
    31  C   -0.065520
    32  C   -0.100905
    33  C   -0.136979
    34  C    0.091936
    35  C   -0.094566
    36  C    0.111244
    37  C   -0.386810
    38  C   -0.093272
    39  C   -0.136558
    40  C   -0.367452
    41  C   -0.090452
    42  C   -0.083516
    43  H    0.069218
    44  H    0.081119
    45  H    0.091742
    46  H    0.100145
    47  H    0.087279
    48  H    0.095100
    49  H    0.098082
    50  H    0.136783
    51  H    0.093232
    52  H    0.096116
    53  H    0.091861
    54  H    0.079360
    55  H    0.075640
    56  H    0.070853
    57  H    0.087861
    58  H    0.092005
    59  H    0.123749
    60  H    0.105386
    61  H    0.120792
    62  H    0.085338
    63  H    0.119445
    64  H    0.093171
    65  H    0.100842
    66  H    0.126719
    67  H    0.130947
    68  H    0.092970
    69  H    0.287616
    70  H    0.099416
    71  H    0.078307
    72  H    0.115190
    73  H    0.124211
    74  H    0.105240
    75  H    0.306246
    76  H    0.090584
    77  H    0.104074
    78  H    0.143266
    79  H    0.078505
    80  H    0.081593
    81  H    0.127952
    82  H    0.114372
    83  H    0.117748
    84  H    0.066960
    85  H    0.068334
    86  H    0.096078
    87  H    0.077260
    88  H    0.088155
    89  H    0.118827
    90  H    0.125346
    91  H    0.117165
    92  H    0.060198
    93  H    0.070418
    94  H    0.121030
    95  H    0.120873
    96  H    0.124446
    97  H    0.068603
    98  H    0.077336
 Sum of Mulliken charges =  -0.00000

 Dipole moment (field-independent basis, Debye):
    X=              0.7117    Y=             -0.7665    Z=              0.3892  Tot=              1.1160
 Quadrupole moment (field-independent basis, Debye-Ang):
   XX=           -284.9649   YY=           -239.2125   ZZ=           -263.4349
   XY=              6.2914   XZ=             39.1235   YZ=              2.0685

 Normal termination of Gaussian 16 at Fri Jul 12 22:00:39 2019.
