 Gaussian 16, Revision A.03,
 Gaussian 16:  ES64L-G16RevA.03 25-Dec-2016

 -------------------------------------
 # td=(NStates=1) CAM-B3LYP/6-31G(d,p)
 -------------------------------------

 --
 TD
 --
 Symbolic Z-matrix:
 Charge =  0 Multiplicity = 1

                         Standard orientation:
 ---------------------------------------------------------------------
 Center     Atomic      Atomic             Coordinates (Angstroms)
 Number     Number       Type             X           Y           Z
 ---------------------------------------------------------------------
      1          8           0      -14.294346   -1.892873    0.512584
      2          8           0       14.961484    0.893537    0.428111
      3          6           0      -11.865751   -0.024796    1.535875
      4          6           0      -10.988188    0.299588    0.136082
      5          6           0      -12.156277   -1.622772    1.446589
      6          6           0      -12.892748   -2.124900    0.219198
      7          6           0      -11.806541   -0.230415   -1.087170
      8          6           0       11.164505    0.859274    1.256527
      9          6           0      -10.895804    0.226731    2.704176
     10          6           0      -13.172110    0.917194    1.569707
     11          6           0       12.599656    1.397744    1.029514
     12          6           0      -12.606192   -1.361472   -0.955900
     13          6           0       13.557307    0.332209    0.658284
     14          6           0       10.785610   -0.102026    0.094928
     15          6           0       -9.525394   -0.064708    0.008251
     16          6           0       13.081998   -0.271360   -0.610825
     17          6           0       11.651773   -0.406086   -0.871849
     18          6           0       10.082103    2.094709    1.246289
     19          6           0       10.955413   -0.019063    2.612111
     20          6           0      -11.456746    0.438371   -2.402723
     21          6           0       -8.499325    0.811336   -0.191069
     22          6           0        9.340040   -0.351970    0.001359
     23          6           0       11.353928   -1.159419   -2.121593
     24          6           0       -7.118870    0.407960   -0.109384
     25          6           0        8.811081   -1.583955   -0.213267
     26          6           0       -6.736707   -1.059073   -0.048219
     27          6           0        7.467057   -2.050751   -0.264361
     28          6           0       -6.249808    1.358153   -0.431157
     29          6           0        7.274729   -3.537094   -0.359437
     30          6           0        6.417164   -1.027333   -0.247045
     31          6           0       -4.825793    1.299864   -0.538487
     32          6           0        5.046204   -1.309958   -0.250152
     33          6           0       -3.984440    2.410714   -0.768125
     34          6           0       -2.578141    2.595084   -0.809409
     35          6           0        4.033749   -0.429578   -0.349878
     36          6           0        2.697042   -0.722874   -0.370251
     37          6           0       -2.019523    3.947886   -1.100149
     38          6           0       -1.788406    1.464899   -0.595196
     39          6           0        1.751108    0.298725   -0.625332
     40          6           0        2.148128   -2.056781   -0.209028
     41          6           0       -0.398504    1.405598   -0.756679
     42          6           0        0.415468    0.274470   -0.643806
     43          1           0      -10.927063    1.390669    0.191380
     44          1           0      -12.432120   -1.919456    2.446359
     45          1           0      -11.098364   -1.943522    1.502538
     46          1           0      -12.730368   -3.170112    0.261564
     47          1           0      -10.017461   -0.566530    2.629192
     48          1           0      -10.278872    1.267033    2.977554
     49          1           0      -11.173157    0.022430    3.669470
     50          1           0      -13.693150    0.568853    0.697827
     51          1           0      -13.915220    0.613284    2.463502
     52          1           0      -12.734175    1.957036    1.670400
     53          1           0       12.679182    2.198720    0.332424
     54          1           0       13.064002    1.968592    1.998958
     55          1           0      -13.278647   -1.415367   -1.916384
     56          1           0       13.719465   -0.494988    1.642337
     57          1           0       -9.238601   -1.139075    0.212749
     58          1           0       13.499303   -1.244969   -0.876460
     59          1           0       13.473178    0.448052   -1.419001
     60          1           0        9.011717    1.726784    1.529946
     61          1           0       10.386246    2.942241    0.329810
     62          1           0       10.490114    2.690244    2.262844
     63          1           0       11.546870   -1.019964    2.732031
     64          1           0        9.993377   -0.139903    2.745051
     65          1           0       11.413573    0.634271    3.346439
     66          1           0      -10.366424    0.676961   -2.358716
     67          1           0      -12.181385    1.433220   -2.260932
     68          1           0      -11.632483   -0.254122   -3.217119
     69          1           0      -14.909155   -1.880294   -0.366451
     70          1           0        8.737461    0.415123    0.161393
     71          1           0       -8.645111    1.788487   -0.114578
     72          1           0       11.652394   -2.254247   -2.128612
     73          1           0       10.160628   -0.913074   -2.310481
     74          1           0       11.856719   -0.597334   -3.065580
     75          1           0       15.459382    1.095447    1.278083
     76          1           0        9.637418   -2.346932   -0.279410
     77          1           0       -5.654949   -1.218521    0.068608
     78          1           0       -7.316263   -1.666246    0.642946
     79          1           0       -7.122940   -1.449712   -0.815721
     80          1           0       -6.594011    2.394800   -0.410642
     81          1           0        6.656975   -3.932510    0.411093
     82          1           0        6.645397   -3.809461   -1.409250
     83          1           0        8.242607   -4.008654   -0.263291
     84          1           0        7.086741   -0.044845   -0.211825
     85          1           0       -4.226665    0.344632   -0.238700
     86          1           0        4.509947   -2.275415   -0.318273
     87          1           0       -4.591932    3.367400   -1.078120
     88          1           0        4.259947    0.661755   -0.316533
     89          1           0       -1.310800    3.894093   -1.976189
     90          1           0       -1.466440    4.480024   -0.333702
     91          1           0       -2.820132    4.526501   -1.073679
     92          1           0       -2.205500    0.555326   -0.746230
     93          1           0        2.179748    1.292751   -0.443120
     94          1           0        2.712988   -2.514442    0.728578
     95          1           0        1.074307   -1.912400    0.219391
     96          1           0        2.404212   -2.705995   -1.064386
     97          1           0        0.319135    2.304805   -0.635542
     98          1           0       -0.061504   -0.771523   -0.559486
 ---------------------------------------------------------------------

 SCF Done:  E(RCAM-B3LYP) =  -1706.87385864     A.U. after   15 cycles

 Excitation energies and oscillator strengths:

 Excited State   1:      Singlet-A      1.8875 eV  656.86 nm  f=3.1415  <S**2>=0.000
     155 ->158         0.14040
     156 ->157         0.69830
     156 <-157        -0.11195
 This state for optimization and/or second-order correction.
 Total Energy, E(TD-HF/TD-DFT) =  -1706.80449282
 Copying the excited state density for this state as the 1-particle RhoCI density.

 The electronic state is 1-A.
 Alpha  occ. eigenvalues --  -19.21093 -19.20783 -10.32565 -10.30723 -10.29694
 Alpha  occ. eigenvalues --  -10.29207 -10.28566 -10.27878 -10.27812 -10.27735
 Alpha  occ. eigenvalues --  -10.27644 -10.27537 -10.27345 -10.27140 -10.26885
 Alpha  occ. eigenvalues --  -10.26882 -10.26859 -10.26827 -10.26806 -10.26684
 Alpha  occ. eigenvalues --  -10.26683 -10.26614 -10.26382 -10.26380 -10.26126
 Alpha  occ. eigenvalues --  -10.26097 -10.26016 -10.25697 -10.25641 -10.25413
 Alpha  occ. eigenvalues --  -10.25379 -10.25340 -10.25337 -10.25219 -10.25156
 Alpha  occ. eigenvalues --  -10.25125 -10.25115 -10.25101 -10.24798 -10.24795
 Alpha  occ. eigenvalues --  -10.24748 -10.24174  -1.06902  -1.05223  -0.93878
 Alpha  occ. eigenvalues --   -0.93180  -0.92592  -0.91489  -0.90724  -0.90256
 Alpha  occ. eigenvalues --   -0.87828  -0.86277  -0.85563  -0.85269  -0.84972
 Alpha  occ. eigenvalues --   -0.83422  -0.82605  -0.80742  -0.80318  -0.79608
 Alpha  occ. eigenvalues --   -0.78301  -0.76532  -0.76063  -0.75580  -0.75062
 Alpha  occ. eigenvalues --   -0.74820  -0.74377  -0.74028  -0.72901  -0.70656
 Alpha  occ. eigenvalues --   -0.69130  -0.67991  -0.66191  -0.64572  -0.63286
 Alpha  occ. eigenvalues --   -0.63001  -0.61583  -0.61575  -0.60692  -0.60247
 Alpha  occ. eigenvalues --   -0.59118  -0.58034  -0.57566  -0.57410  -0.56126
 Alpha  occ. eigenvalues --   -0.55740  -0.55310  -0.54940  -0.54006  -0.53673
 Alpha  occ. eigenvalues --   -0.53186  -0.52429  -0.51939  -0.51636  -0.51451
 Alpha  occ. eigenvalues --   -0.50769  -0.50439  -0.49918  -0.49594  -0.49515
 Alpha  occ. eigenvalues --   -0.48934  -0.48621  -0.48430  -0.48328  -0.48188
 Alpha  occ. eigenvalues --   -0.47905  -0.47313  -0.46742  -0.45988  -0.45816
 Alpha  occ. eigenvalues --   -0.45393  -0.45300  -0.45056  -0.44847  -0.44545
 Alpha  occ. eigenvalues --   -0.44428  -0.43489  -0.43346  -0.43298  -0.43201
 Alpha  occ. eigenvalues --   -0.42602  -0.42311  -0.42193  -0.41992  -0.41731
 Alpha  occ. eigenvalues --   -0.41635  -0.41377  -0.40851  -0.40604  -0.40436
 Alpha  occ. eigenvalues --   -0.39919  -0.39713  -0.39661  -0.39317  -0.39246
 Alpha  occ. eigenvalues --   -0.39086  -0.38749  -0.38469  -0.38082  -0.37920
 Alpha  occ. eigenvalues --   -0.37692  -0.37247  -0.36207  -0.36149  -0.35618
 Alpha  occ. eigenvalues --   -0.35113  -0.34346  -0.33587  -0.32254  -0.32146
 Alpha  occ. eigenvalues --   -0.31519  -0.29084  -0.28177  -0.26798  -0.23702
 Alpha  occ. eigenvalues --   -0.18700
 Alpha virt. eigenvalues --   -0.06943  -0.01327   0.02691   0.05154   0.06829
 Alpha virt. eigenvalues --    0.08461   0.10301   0.10817   0.11058   0.11553
 Alpha virt. eigenvalues --    0.12415   0.12780   0.13019   0.13260   0.13403

 Mulliken charges:
               1
     1  O   -0.571274
     2  O   -0.588337
     3  C    0.016679
     4  C   -0.135451
     5  C   -0.190888
     6  C    0.174569
     7  C    0.077247
     8  C   -0.027479
     9  C   -0.307615
    10  C   -0.286079
    11  C   -0.176745
    12  C   -0.136719
    13  C    0.171556
    14  C    0.061306
    15  C   -0.091892
    16  C   -0.209955
    17  C    0.079274
    18  C   -0.300877
    19  C   -0.298133
    20  C   -0.334505
    21  C   -0.075744
    22  C   -0.118520
    23  C   -0.359913
    24  C    0.109331
    25  C   -0.116574
    26  C   -0.368308
    27  C    0.104622
    28  C   -0.130074
    29  C   -0.364228
    30  C   -0.113104
    31  C   -0.079960
    32  C   -0.102709
    33  C   -0.136838
    34  C    0.102665
    35  C   -0.078161
    36  C    0.109503
    37  C   -0.361006
    38  C   -0.116608
    39  C   -0.114797
    40  C   -0.389332
    41  C   -0.105980
    42  C   -0.075709
    43  H    0.086475
    44  H    0.112909
    45  H    0.087766
    46  H    0.101212
    47  H    0.076006
    48  H    0.075312
    49  H    0.112864
    50  H    0.123512
    51  H    0.091569
    52  H    0.095498
    53  H    0.116827
    54  H    0.058060
    55  H    0.059063
    56  H    0.045816
    57  H    0.072548
    58  H    0.112121
    59  H    0.115774
    60  H    0.118376
    61  H    0.100952
    62  H    0.075685
    63  H    0.098677
    64  H    0.121190
    65  H    0.101257
    66  H    0.127692
    67  H    0.102744
    68  H    0.118166
    69  H    0.304139
    70  H    0.074040
    71  H    0.079587
    72  H    0.116910
    73  H    0.105910
    74  H    0.090223
    75  H    0.307910
    76  H    0.078638
    77  H    0.112105
    78  H    0.110080
    79  H    0.144925
    80  H    0.081607
    81  H    0.132242
    82  H    0.099124
    83  H    0.116649
    84  H    0.082031
    85  H    0.077895
    86  H    0.079253
    87  H    0.062866
    88  H    0.070514
    89  H    0.129962
    90  H    0.123567
    91  H    0.114861
    92  H    0.085165
    93  H    0.070142
    94  H    0.101375
    95  H    0.117204
    96  H    0.134199
    97  H    0.073464
    98  H    0.072109
 Sum of Mulliken charges =  -0.00000

 Dipole moment (field-independent basis, Debye):
    X=              0.1176    Y=             -0.6869    Z=              0.5610  Tot=              0.8947
 Quadrupole moment (field-independent basis, Debye-Ang):
   XX=           -280.8638   YY=           -245.4614   ZZ=           -263.1972
   XY=             -1.1513   XZ=             38.5034   YZ=              3.0942

 Normal termination of Gaussian 16 at Sat Jul 13 00:05:22 2019.
