 Gaussian 16, Revision A.03,
 Gaussian 16:  ES64L-G16RevA.03 25-Dec-2016

 -------------------------------------
 # td=(NStates=1) CAM-B3LYP/6-31G(d,p)
 -------------------------------------

 --
 TD
 --
 Symbolic Z-matrix:
 Charge =  0 Multiplicity = 1

                         Standard orientation:
 ---------------------------------------------------------------------
 Center     Atomic      Atomic             Coordinates (Angstroms)
 Number     Number       Type             X           Y           Z
 ---------------------------------------------------------------------
      1          8           0       14.186597   -1.800477   -0.703472
      2          8           0      -14.755086    0.883856    0.143514
      3          6           0       11.761227    0.220575   -1.103930
      4          6           0       11.010081    0.331691    0.216452
      5          6           0       11.909260   -1.374349   -1.363404
      6          6           0       12.742241   -2.095188   -0.261539
      7          6           0       11.605174   -0.576292    1.306869
      8          6           0      -11.185144    1.082314   -0.907939
      9          6           0       11.112069    0.890795   -2.331602
     10          6           0       13.184944    0.910283   -1.060874
     11          6           0      -12.661020    1.494894   -0.479261
     12          6           0       12.319146   -1.659923    1.039561
     13          6           0      -13.472324    0.467343   -0.065205
     14          6           0      -10.654146   -0.025370   -0.021300
     15          6           0        9.504919    0.043491    0.033038
     16          6           0      -12.884691   -0.161699    1.115200
     17          6           0      -11.446147   -0.542189    0.966616
     18          6           0      -10.332208    2.343054   -0.910695
     19          6           0      -11.304112    0.526722   -2.352781
     20          6           0       11.190191   -0.190525    2.716420
     21          6           0        8.483823    0.804695    0.264703
     22          6           0       -9.213242   -0.351278   -0.109356
     23          6           0      -11.023453   -1.454726    2.154635
     24          6           0        7.102802    0.538689    0.120680
     25          6           0       -8.786616   -1.639189    0.035991
     26          6           0        6.718895   -0.796424   -0.240266
     27          6           0       -7.397779   -2.056659   -0.060498
     28          6           0        6.145705    1.522718    0.283760
     29          6           0       -7.249178   -3.524145   -0.389980
     30          6           0       -6.344977   -1.195654   -0.017736
     31          6           0        4.774330    1.387669    0.345832
     32          6           0       -4.966054   -1.599647   -0.102665
     33          6           0        3.964418    2.480563    0.663289
     34          6           0        2.520652    2.522495    0.575111
     35          6           0       -3.928151   -0.684855    0.165728
     36          6           0       -2.540142   -0.882332   -0.041291
     37          6           0        1.882449    3.829578    0.936719
     38          6           0        1.908321    1.308528    0.360226
     39          6           0       -1.637334    0.063173    0.156107
     40          6           0       -2.206662   -2.216960   -0.569600
     41          6           0        0.378318    1.306041    0.429027
     42          6           0       -0.324076    0.193138    0.103924
     43          1           0       11.119602    1.354936    0.596089
     44          1           0       12.245963   -1.584274   -2.502451
     45          1           0       10.808019   -1.759070   -1.299396
     46          1           0       12.626809   -3.054780   -0.356339
     47          1           0       10.068777    0.502117   -2.519964
     48          1           0       10.808130    1.942875   -1.977149
     49          1           0       11.617386    1.148744   -3.273326
     50          1           0       13.838552    0.546562   -0.095643
     51          1           0       13.905171    0.481442   -1.943680
     52          1           0       13.275156    2.055146   -1.105814
     53          1           0      -12.443233    2.157305    0.271277
     54          1           0      -12.808714    1.925705   -1.480812
     55          1           0       12.781805   -2.132955    1.970174
     56          1           0      -13.456231   -0.244598   -0.849966
     57          1           0        9.264052   -1.047124   -0.489707
     58          1           0      -13.562569   -1.025341    1.181133
     59          1           0      -13.299677    0.381590    1.900232
     60          1           0       -9.319160    2.181558   -1.435550
     61          1           0       -9.981646    2.594711    0.026593
     62          1           0      -10.662048    3.047784   -1.826337
     63          1           0      -12.192371   -0.253000   -2.586293
     64          1           0      -10.346385    0.016821   -2.974421
     65          1           0      -11.806290    1.316725   -3.231112
     66          1           0       10.100650   -0.310338    2.856564
     67          1           0       11.425028    0.789931    3.034592
     68          1           0       11.425985   -0.928350    3.443578
     69          1           0       14.768029   -1.331038    0.409668
     70          1           0       -8.381337    0.267418   -0.631191
     71          1           0        8.573774    1.832500    0.721589
     72          1           0      -11.499347   -2.524799    1.990180
     73          1           0       -9.837401   -1.612015    2.062695
     74          1           0      -11.401600   -1.041072    3.126132
     75          1           0      -15.201309    1.236650   -0.721538
     76          1           0       -9.493298   -2.363340    0.391364
     77          1           0        5.580704   -1.160251    0.052083
     78          1           0        6.929605   -1.043614   -1.258504
     79          1           0        7.374708   -1.608524    0.355058
     80          1           0        6.542369    2.465531    0.651046
     81          1           0       -6.496445   -3.504893   -1.360092
     82          1           0       -6.773224   -4.269777    0.339597
     83          1           0       -8.285480   -3.828990   -0.543827
     84          1           0       -6.657271   -0.168328    0.253913
     85          1           0        4.346585    0.522478    0.096569
     86          1           0       -4.625038   -2.435851   -0.437248
     87          1           0        4.457458    3.506082    0.953862
     88          1           0       -4.364825    0.276780    0.182703
     89          1           0        1.208080    3.601014    1.626807
     90          1           0        1.336551    4.034283   -0.147304
     91          1           0        2.708404    4.524056    1.371316
     92          1           0        2.184085    0.266406    0.311433
     93          1           0       -2.080920    1.011597    0.521717
     94          1           0       -2.775795   -2.934193   -1.440576
     95          1           0       -1.259023   -2.266632   -0.930924
     96          1           0       -1.993582   -3.047047    0.598624
     97          1           0       -0.041708    2.126035    0.823741
     98          1           0        0.303352   -0.747896    0.178692
 ---------------------------------------------------------------------

 SCF Done:  E(RCAM-B3LYP) =  -1706.77715719     A.U. after   15 cycles

 Excitation energies and oscillator strengths:

 Excited State   1:      Singlet-A      2.3171 eV  535.08 nm  f=2.9636  <S**2>=0.000
     155 ->158        -0.17276
     156 ->157         0.68216
 This state for optimization and/or second-order correction.
 Total Energy, E(TD-HF/TD-DFT) =  -1706.69200417
 Copying the excited state density for this state as the 1-particle RhoCI density.

 The electronic state is 1-A.
 Alpha  occ. eigenvalues --  -19.22675 -19.21118 -10.29482 -10.28626 -10.28623
 Alpha  occ. eigenvalues --  -10.28121 -10.28008 -10.27972 -10.27967 -10.27556
 Alpha  occ. eigenvalues --  -10.27549 -10.27537 -10.27430 -10.27364 -10.27252
 Alpha  occ. eigenvalues --  -10.27178 -10.26993 -10.26854 -10.26802 -10.26781
 Alpha  occ. eigenvalues --  -10.26765 -10.26741 -10.26716 -10.26647 -10.26604
 Alpha  occ. eigenvalues --  -10.26144 -10.26081 -10.25846 -10.25811 -10.25761
 Alpha  occ. eigenvalues --  -10.25754 -10.25736 -10.25666 -10.25597 -10.25492
 Alpha  occ. eigenvalues --  -10.25218 -10.25209 -10.25110 -10.25001 -10.24887
 Alpha  occ. eigenvalues --  -10.23838 -10.22586  -1.10197  -1.02037  -0.94364
 Alpha  occ. eigenvalues --   -0.93628  -0.93125  -0.92377  -0.91242  -0.90719
 Alpha  occ. eigenvalues --   -0.87920  -0.86902  -0.86731  -0.86077  -0.85493
 Alpha  occ. eigenvalues --   -0.83303  -0.82784  -0.80871  -0.79954  -0.78522
 Alpha  occ. eigenvalues --   -0.76594  -0.76513  -0.76451  -0.75551  -0.75320
 Alpha  occ. eigenvalues --   -0.74964  -0.74132  -0.73649  -0.72942  -0.70766
 Alpha  occ. eigenvalues --   -0.68835  -0.68204  -0.66981  -0.65350  -0.63772
 Alpha  occ. eigenvalues --   -0.63448  -0.63186  -0.62615  -0.61873  -0.60645
 Alpha  occ. eigenvalues --   -0.60426  -0.59189  -0.57799  -0.56832  -0.56709
 Alpha  occ. eigenvalues --   -0.55739  -0.55670  -0.55365  -0.54604  -0.53817
 Alpha  occ. eigenvalues --   -0.53234  -0.52661  -0.52297  -0.52021  -0.51420
 Alpha  occ. eigenvalues --   -0.50798  -0.50679  -0.50036  -0.49701  -0.49224
 Alpha  occ. eigenvalues --   -0.48992  -0.48631  -0.48339  -0.48074  -0.47309
 Alpha  occ. eigenvalues --   -0.47078  -0.46947  -0.46605  -0.46311  -0.46144
 Alpha  occ. eigenvalues --   -0.45697  -0.45367  -0.45088  -0.44638  -0.44439
 Alpha  occ. eigenvalues --   -0.44370  -0.43960  -0.43729  -0.43262  -0.42913
 Alpha  occ. eigenvalues --   -0.42708  -0.42243  -0.42043  -0.41691  -0.41453
 Alpha  occ. eigenvalues --   -0.40951  -0.40912  -0.40648  -0.40505  -0.40306
 Alpha  occ. eigenvalues --   -0.39964  -0.39820  -0.39668  -0.39586  -0.39239
 Alpha  occ. eigenvalues --   -0.38614  -0.38527  -0.37967  -0.37513  -0.37382
 Alpha  occ. eigenvalues --   -0.37257  -0.37098  -0.36277  -0.35558  -0.35307
 Alpha  occ. eigenvalues --   -0.35102  -0.34709  -0.33699  -0.32238  -0.31692
 Alpha  occ. eigenvalues --   -0.31509  -0.30211  -0.29564  -0.26957  -0.23577
 Alpha  occ. eigenvalues --   -0.20156
 Alpha virt. eigenvalues --   -0.05468  -0.01499   0.02109   0.02839   0.05892
 Alpha virt. eigenvalues --    0.06887   0.08220   0.09849   0.10755   0.11126
 Alpha virt. eigenvalues --    0.11599   0.12235   0.12349   0.12734   0.13404

 Mulliken charges:
               1
     1  O   -0.526292
     2  O   -0.578299
     3  C    0.053464
     4  C   -0.140528
     5  C   -0.190812
     6  C    0.185538
     7  C    0.143399
     8  C   -0.040346
     9  C   -0.314209
    10  C   -0.273281
    11  C   -0.152398
    12  C   -0.176322
    13  C    0.199820
    14  C    0.079326
    15  C   -0.094791
    16  C   -0.238694
    17  C    0.046936
    18  C   -0.308102
    19  C   -0.297298
    20  C   -0.373463
    21  C   -0.065983
    22  C   -0.119259
    23  C   -0.352315
    24  C    0.146597
    25  C   -0.128021
    26  C   -0.393460
    27  C    0.103059
    28  C   -0.131885
    29  C   -0.359514
    30  C   -0.134549
    31  C   -0.025574
    32  C   -0.050193
    33  C   -0.138365
    34  C    0.066802
    35  C   -0.134513
    36  C    0.148429
    37  C   -0.347062
    38  C   -0.109641
    39  C   -0.118467
    40  C   -0.345729
    41  C   -0.094754
    42  C   -0.083749
    43  H    0.096765
    44  H    0.091829
    45  H    0.074625
    46  H    0.105420
    47  H    0.093321
    48  H    0.084938
    49  H    0.117596
    50  H    0.051562
    51  H    0.103688
    52  H    0.085080
    53  H    0.096107
    54  H    0.078352
    55  H    0.075371
    56  H    0.062187
    57  H    0.074193
    58  H    0.108253
    59  H    0.124028
    60  H    0.092072
    61  H    0.122614
    62  H    0.102997
    63  H    0.094406
    64  H    0.092188
    65  H    0.055175
    66  H    0.125722
    67  H    0.123960
    68  H    0.113414
    69  H    0.250662
    70  H    0.098595
    71  H    0.070616
    72  H    0.102746
    73  H    0.108050
    74  H    0.118005
    75  H    0.312739
    76  H    0.097871
    77  H    0.087972
    78  H    0.135709
    79  H    0.096215
    80  H    0.070153
    81  H    0.101808
    82  H    0.116788
    83  H    0.110378
    84  H    0.083580
    85  H    0.075844
    86  H    0.065691
    87  H    0.068369
    88  H    0.076797
    89  H    0.146845
    90  H    0.122199
    91  H    0.112863
    92  H    0.100595
    93  H    0.072151
    94  H    0.104486
    95  H    0.124331
    96  H    0.035026
    97  H    0.076748
    98  H    0.074803
 Sum of Mulliken charges =  -0.00000

 Dipole moment (field-independent basis, Debye):
    X=             -0.7346    Y=              0.9153    Z=              0.8672  Tot=              1.4593
 Quadrupole moment (field-independent basis, Debye-Ang):
   XX=           -296.5285   YY=           -250.9590   ZZ=           -259.5068
   XY=              9.4741   XZ=             45.3222   YZ=              0.2860

 Normal termination of Gaussian 16 at Sun Jul 14 20:53:36 2019.
