 Gaussian 16, Revision A.03,
 Gaussian 16:  ES64L-G16RevA.03 25-Dec-2016

 -------------------------------------
 # td=(NStates=1) CAM-B3LYP/6-31G(d,p)
 -------------------------------------

 --
 TD
 --
 Symbolic Z-matrix:
 Charge =  0 Multiplicity = 1

                         Standard orientation:
 ---------------------------------------------------------------------
 Center     Atomic      Atomic             Coordinates (Angstroms)
 Number     Number       Type             X           Y           Z
 ---------------------------------------------------------------------
      1          8           0      -14.103293   -1.953599    0.714702
      2          8           0       14.758963    0.770759    0.296186
      3          6           0      -11.700358    0.249377    1.364453
      4          6           0      -10.907955    0.456336   -0.015763
      5          6           0      -11.935143   -1.241940    1.654042
      6          6           0      -12.706298   -2.005016    0.483697
      7          6           0      -11.532652   -0.484128   -1.138137
      8          6           0       11.057974    1.039884    1.243328
      9          6           0      -10.839366    0.884897    2.552813
     10          6           0      -13.040541    0.960557    1.361964
     11          6           0       12.487918    1.407059    1.088817
     12          6           0      -12.317539   -1.514410   -0.817818
     13          6           0       13.424436    0.328021    0.400657
     14          6           0       10.528313    0.130496    0.038594
     15          6           0       -9.430993   -0.063428    0.055916
     16          6           0       12.830569    0.136351   -1.050772
     17          6           0       11.378448   -0.337394   -0.975668
     18          6           0       10.235222    2.259884    1.427997
     19          6           0       10.953652    0.231748    2.501288
     20          6           0      -11.383304   -0.092690   -2.580990
     21          6           0       -8.469802    0.720758   -0.341128
     22          6           0        9.199158   -0.368830    0.126635
     23          6           0       11.069139   -1.023354   -2.279372
     24          6           0       -6.996911    0.533909   -0.392594
     25          6           0        8.759970   -1.684129   -0.188408
     26          6           0       -6.592780   -0.935836   -0.081494
     27          6           0        7.413131   -2.204923   -0.097019
     28          6           0       -6.173502    1.509016   -0.640234
     29          6           0        7.149197   -3.587302    0.002702
     30          6           0        6.362778   -1.311803   -0.198045
     31          6           0       -4.825466    1.314560   -0.541870
     32          6           0        4.992104   -1.647613   -0.164670
     33          6           0       -3.931536    2.424798   -0.746684
     34          6           0       -2.537967    2.508611   -0.900877
     35          6           0        3.949298   -0.693578   -0.360202
     36          6           0        2.564274   -0.922648   -0.152416
     37          6           0       -1.892562    3.823720   -1.128353
     38          6           0       -1.713145    1.354342   -0.683450
     39          6           0        1.770771    0.144611   -0.411873
     40          6           0        2.071730   -2.244208    0.325906
     41          6           0       -0.356670    1.269410   -0.645663
     42          6           0        0.400166    0.161524   -0.417404
     43          1           0      -11.186902    1.564525   -0.235268
     44          1           0      -12.580621   -1.369439    2.520797
     45          1           0      -11.191999   -1.694770    1.782767
     46          1           0      -12.270561   -3.046538    0.657266
     47          1           0       -9.799980    0.315331    2.683862
     48          1           0      -10.598099    1.826620    2.438815
     49          1           0      -11.252272    0.983035    3.712430
     50          1           0      -13.802471    0.109479    0.774735
     51          1           0      -13.480899    1.001002    2.501574
     52          1           0      -13.060691    1.854241    0.888247
     53          1           0       12.724686    2.238292    0.465433
     54          1           0       12.841309    1.851186    2.069959
     55          1           0      -12.637902   -2.030645   -1.486958
     56          1           0       13.568698   -0.479997    1.254158
     57          1           0       -9.265457   -1.161669    0.321768
     58          1           0       13.412480   -0.547618   -1.454726
     59          1           0       12.822010    0.997124   -1.736820
     60          1           0        9.396639    2.099147    1.727050
     61          1           0       10.389786    2.535626    0.279554
     62          1           0       10.717976    3.276564    1.966503
     63          1           0       11.532051   -0.697334    2.428835
     64          1           0        9.808071   -0.053251    2.496049
     65          1           0       10.931624    0.803256    3.393144
     66          1           0      -10.422799   -0.061033   -2.928172
     67          1           0      -11.805103    0.898708   -2.915197
     68          1           0      -11.610543   -0.819169   -3.257181
     69          1           0      -14.410783   -2.470155    0.012766
     70          1           0        8.343649    0.338629    0.624260
     71          1           0       -8.599712    1.687663   -0.661725
     72          1           0       11.470860   -2.153910   -2.194192
     73          1           0        9.957347   -1.092954   -2.327381
     74          1           0       11.460027   -0.461839   -3.112034
     75          1           0       15.260316    0.549041    1.327959
     76          1           0        9.624386   -2.337709   -0.428038
     77          1           0       -5.433645   -0.959246   -0.048407
     78          1           0       -6.863748   -1.092679    0.974099
     79          1           0       -6.896178   -1.692727   -0.942818
     80          1           0       -6.601887    2.491480   -0.758031
     81          1           0        6.784111   -3.865018    0.939453
     82          1           0        6.506346   -4.029776   -0.735581
     83          1           0        8.086469   -4.089486   -0.234502
     84          1           0        6.471156   -0.234841   -0.514562
     85          1           0       -4.418756    0.361202   -0.515451
     86          1           0        4.636025   -2.683106   -0.322655
     87          1           0       -4.448262    3.350798   -1.093530
     88          1           0        4.281147    0.536281   -0.104680
     89          1           0       -1.568944    3.937027   -2.172124
     90          1           0       -1.224378    3.931548   -0.429861
     91          1           0       -2.560591    4.830514   -1.003170
     92          1           0       -2.341157    0.492479   -0.305220
     93          1           0        2.331244    1.027399   -0.643699
     94          1           0        2.814571   -2.669383    1.092950
     95          1           0        0.933018   -2.302081    0.946694
     96          1           0        2.166583   -2.907665   -0.608848
     97          1           0        0.066571    2.292430   -1.111140
     98          1           0       -0.132736   -0.633713   -0.153702
 ---------------------------------------------------------------------

 SCF Done:  E(RCAM-B3LYP) =  -1706.77749568     A.U. after   15 cycles

 Excitation energies and oscillator strengths:

 Excited State   1:      Singlet-A      1.9754 eV  627.63 nm  f=3.0593  <S**2>=0.000
     155 ->158        -0.15130
     156 ->157         0.69405
     156 <-157        -0.10001
 This state for optimization and/or second-order correction.
 Total Energy, E(TD-HF/TD-DFT) =  -1706.70489993
 Copying the excited state density for this state as the 1-particle RhoCI density.

 The electronic state is 1-A.
 Alpha  occ. eigenvalues --  -19.22194 -19.21957 -10.31594 -10.30517 -10.28457
 Alpha  occ. eigenvalues --  -10.28305 -10.27844 -10.27501 -10.27458 -10.27430
 Alpha  occ. eigenvalues --  -10.27324 -10.26997 -10.26904 -10.26893 -10.26762
 Alpha  occ. eigenvalues --  -10.26691 -10.26664 -10.26650 -10.26618 -10.26496
 Alpha  occ. eigenvalues --  -10.26465 -10.26401 -10.26392 -10.26311 -10.26032
 Alpha  occ. eigenvalues --  -10.25930 -10.25578 -10.25263 -10.24958 -10.24951
 Alpha  occ. eigenvalues --  -10.24909 -10.24758 -10.24627 -10.24598 -10.24364
 Alpha  occ. eigenvalues --  -10.24286 -10.24076 -10.24070 -10.23767 -10.23574
 Alpha  occ. eigenvalues --  -10.22761 -10.22155  -1.11733  -1.07021  -0.93472
 Alpha  occ. eigenvalues --   -0.92990  -0.92507  -0.92082  -0.91270  -0.90323
 Alpha  occ. eigenvalues --   -0.88039  -0.87151  -0.86746  -0.85869  -0.84350
 Alpha  occ. eigenvalues --   -0.82837  -0.82330  -0.80398  -0.79614  -0.78697
 Alpha  occ. eigenvalues --   -0.77570  -0.76561  -0.76496  -0.76072  -0.75363
 Alpha  occ. eigenvalues --   -0.75284  -0.74979  -0.74008  -0.72691  -0.70923
 Alpha  occ. eigenvalues --   -0.68426  -0.68000  -0.65836  -0.64756  -0.63818
 Alpha  occ. eigenvalues --   -0.63433  -0.62960  -0.62103  -0.60384  -0.59996
 Alpha  occ. eigenvalues --   -0.59223  -0.58727  -0.57582  -0.57168  -0.56339
 Alpha  occ. eigenvalues --   -0.55698  -0.55050  -0.54675  -0.54072  -0.53728
 Alpha  occ. eigenvalues --   -0.53398  -0.52840  -0.52166  -0.51918  -0.51603
 Alpha  occ. eigenvalues --   -0.51304  -0.50896  -0.50401  -0.50165  -0.49799
 Alpha  occ. eigenvalues --   -0.49607  -0.49466  -0.49283  -0.49237  -0.48447
 Alpha  occ. eigenvalues --   -0.48224  -0.47333  -0.47256  -0.46725  -0.46085
 Alpha  occ. eigenvalues --   -0.45702  -0.45483  -0.45380  -0.44980  -0.44733
 Alpha  occ. eigenvalues --   -0.44362  -0.43980  -0.43699  -0.43543  -0.43267
 Alpha  occ. eigenvalues --   -0.42859  -0.42715  -0.42078  -0.41885  -0.41731
 Alpha  occ. eigenvalues --   -0.41560  -0.41436  -0.41282  -0.40690  -0.40509
 Alpha  occ. eigenvalues --   -0.40171  -0.39953  -0.39520  -0.39322  -0.39129
 Alpha  occ. eigenvalues --   -0.38991  -0.38404  -0.38019  -0.37350  -0.37142
 Alpha  occ. eigenvalues --   -0.36398  -0.36350  -0.36173  -0.35822  -0.35468
 Alpha  occ. eigenvalues --   -0.34972  -0.34225  -0.33681  -0.32331  -0.32068
 Alpha  occ. eigenvalues --   -0.30109  -0.29808  -0.29140  -0.27068  -0.23126
 Alpha  occ. eigenvalues --   -0.18727
 Alpha virt. eigenvalues --   -0.06280  -0.01345   0.03047   0.05444   0.06500
 Alpha virt. eigenvalues --    0.07097   0.09209   0.10183   0.12086   0.12378
 Alpha virt. eigenvalues --    0.12859   0.13155   0.13450   0.13564   0.14019

 Mulliken charges:
               1
     1  O   -0.505767
     2  O   -0.562493
     3  C    0.030708
     4  C   -0.149336
     5  C   -0.132134
     6  C    0.066954
     7  C    0.100219
     8  C   -0.004920
     9  C   -0.295004
    10  C   -0.298721
    11  C   -0.183712
    12  C   -0.054717
    13  C    0.166429
    14  C    0.072163
    15  C   -0.104927
    16  C   -0.211827
    17  C    0.011464
    18  C   -0.257647
    19  C   -0.289624
    20  C   -0.367141
    21  C   -0.042772
    22  C   -0.121656
    23  C   -0.352670
    24  C    0.083226
    25  C   -0.129059
    26  C   -0.366720
    27  C    0.103093
    28  C   -0.092360
    29  C   -0.387108
    30  C   -0.117069
    31  C   -0.072956
    32  C   -0.106630
    33  C   -0.149619
    34  C    0.086079
    35  C   -0.141125
    36  C    0.130615
    37  C   -0.376775
    38  C   -0.112114
    39  C   -0.097750
    40  C   -0.366643
    41  C   -0.078543
    42  C   -0.069272
    43  H    0.092940
    44  H    0.107689
    45  H    0.076042
    46  H    0.073693
    47  H    0.073934
    48  H    0.111774
    49  H    0.067397
    50  H    0.107545
    51  H    0.081722
    52  H    0.095298
    53  H    0.094007
    54  H    0.069269
    55  H    0.039646
    56  H    0.059191
    57  H    0.102844
    58  H    0.118999
    59  H    0.128938
    60  H    0.095657
    61  H    0.090916
    62  H    0.080101
    63  H    0.101038
    64  H    0.078062
    65  H    0.106366
    66  H    0.121018
    67  H    0.113198
    68  H    0.111117
    69  H    0.300450
    70  H    0.077334
    71  H    0.064011
    72  H    0.102051
    73  H    0.122155
    74  H    0.119477
    75  H    0.299710
    76  H    0.086423
    77  H    0.086448
    78  H    0.131411
    79  H    0.116356
    80  H    0.086627
    81  H    0.137186
    82  H    0.124245
    83  H    0.105924
    84  H    0.092232
    85  H    0.093764
    86  H    0.083886
    87  H    0.073955
    88  H    0.063281
    89  H    0.129771
    90  H    0.144783
    91  H    0.088095
    92  H    0.065057
    93  H    0.077887
    94  H    0.119645
    95  H    0.091667
    96  H    0.123886
    97  H    0.071001
    98  H    0.070742
 Sum of Mulliken charges =  -0.00000

 Dipole moment (field-independent basis, Debye):
    X=              0.2300    Y=             -2.0000    Z=             -0.9434  Tot=              2.2232
 Quadrupole moment (field-independent basis, Debye-Ang):
   XX=           -280.3862   YY=           -242.8056   ZZ=           -258.8327
   XY=             -1.7000   XZ=             37.8896   YZ=              1.3897

 Normal termination of Gaussian 16 at Mon Jul 15 05:56:07 2019.
