 Gaussian 16, Revision A.03,
 Gaussian 16:  ES64L-G16RevA.03 25-Dec-2016

 -------------------------------------
 # td=(NStates=1) CAM-B3LYP/6-31G(d,p)
 -------------------------------------

 --
 TD
 --
 Symbolic Z-matrix:
 Charge =  0 Multiplicity = 1

                         Standard orientation:
 ---------------------------------------------------------------------
 Center     Atomic      Atomic             Coordinates (Angstroms)
 Number     Number       Type             X           Y           Z
 ---------------------------------------------------------------------
      1          8           0      -14.150591   -1.817124    0.872174
      2          8           0       14.755774    1.014826    0.047727
      3          6           0      -11.618417    0.069619    1.221372
      4          6           0      -10.928417    0.214747   -0.108158
      5          6           0      -11.823362   -1.444073    1.552538
      6          6           0      -12.760758   -2.075167    0.499494
      7          6           0      -11.643727   -0.630390   -1.186015
      8          6           0       11.039679    0.950442    1.086327
      9          6           0      -10.899022    0.728308    2.404518
     10          6           0      -12.984608    0.980429    1.118955
     11          6           0       12.478849    1.496957    0.842094
     12          6           0      -12.369163   -1.703598   -0.930802
     13          6           0       13.492808    0.451089    0.403881
     14          6           0       10.603777   -0.106212    0.089736
     15          6           0       -9.505058   -0.060130   -0.089816
     16          6           0       12.969782   -0.262532   -0.838510
     17          6           0       11.535854   -0.601104   -0.782679
     18          6           0       10.070695    2.069829    1.129202
     19          6           0       10.978220    0.235727    2.489175
     20          6           0      -11.456146   -0.196666   -2.687274
     21          6           0       -8.506479    0.764053   -0.361983
     22          6           0        9.224792   -0.407056    0.058890
     23          6           0       11.184660   -1.407382   -2.017763
     24          6           0       -7.105708    0.500761   -0.173640
     25          6           0        8.808049   -1.678690   -0.071884
     26          6           0       -6.668548   -0.910184    0.158888
     27          6           0        7.364230   -2.130017   -0.139743
     28          6           0       -6.237256    1.528606   -0.441950
     29          6           0        7.034748   -3.563586    0.130044
     30          6           0        6.365349   -1.208528   -0.352640
     31          6           0       -4.774417    1.444181   -0.426201
     32          6           0        5.027518   -1.521611   -0.183947
     33          6           0       -3.989874    2.548814   -0.757167
     34          6           0       -2.586358    2.687400   -0.759891
     35          6           0        3.995100   -0.500561   -0.306295
     36          6           0        2.620033   -0.785684   -0.327591
     37          6           0       -1.956374    4.067169   -0.831285
     38          6           0       -1.768875    1.525693   -0.494056
     39          6           0        1.721408    0.269354   -0.598647
     40          6           0        2.302642   -2.172647    0.232951
     41          6           0       -0.341072    1.554684   -0.570839
     42          6           0        0.425324    0.324443   -0.400988
     43          1           0      -10.969583    1.309021   -0.267001
     44          1           0      -12.262288   -1.613573    2.551557
     45          1           0      -10.652205   -1.841929    1.645625
     46          1           0      -12.547018   -3.134236    0.620003
     47          1           0       -9.965962    0.092345    2.501169
     48          1           0      -10.528837    1.881348    2.291316
     49          1           0      -11.546543    1.000376    3.342924
     50          1           0      -13.684162    0.449346    0.565859
     51          1           0      -13.487238    1.015373    2.132303
     52          1           0      -12.664508    1.994155    0.703166
     53          1           0       12.396760    2.289618    0.068963
     54          1           0       12.814877    1.954435    1.791205
     55          1           0      -12.537308   -2.292742   -1.796049
     56          1           0       13.416692   -0.245836    1.267761
     57          1           0       -8.941849   -1.045360    0.132926
     58          1           0       13.394411   -1.154043   -1.065577
     59          1           0       13.183137    0.452972   -1.710450
     60          1           0        8.972897    1.794067    1.473236
     61          1           0        9.631011    2.462836    0.185793
     62          1           0       10.478756    2.842220    1.651099
     63          1           0       11.607196   -0.660561    2.498391
     64          1           0        9.949539   -0.114698    2.802978
     65          1           0       11.500721    0.951654    3.393386
     66          1           0      -10.259809   -0.002098   -2.928077
     67          1           0      -12.120775    0.666287   -2.827172
     68          1           0      -11.721082   -0.977503   -3.369064
     69          1           0      -14.530144   -2.707014    0.263590
     70          1           0        8.550020    0.428947    0.189903
     71          1           0       -8.831819    1.831925   -0.326584
     72          1           0       11.826991   -2.319758   -2.101385
     73          1           0       10.136652   -1.728279   -2.116053
     74          1           0       11.581515   -0.840219   -2.748570
     75          1           0       15.284749    1.493931    0.800881
     76          1           0        9.457930   -2.509714   -0.108793
     77          1           0       -5.474686   -1.085366    0.377445
     78          1           0       -7.086468   -1.055475    1.124930
     79          1           0       -7.051567   -1.735396   -0.512223
     80          1           0       -6.548408    2.551931   -0.682382
     81          1           0        6.286117   -3.664107    0.942603
     82          1           0        6.632106   -4.197064   -0.725050
     83          1           0        7.982063   -4.023058    0.446160
     84          1           0        6.645815   -0.150503   -0.598989
     85          1           0       -4.282281    0.507581    0.056824
     86          1           0        4.687878   -2.403085    0.357860
     87          1           0       -4.571215    3.472838   -1.084795
     88          1           0        4.389899    0.379421   -0.334041
     89          1           0       -1.254873    4.167709   -1.633890
     90          1           0       -1.294547    4.543507    0.124404
     91          1           0       -2.699356    4.795734   -0.939073
     92          1           0       -2.456621    0.676544   -0.368103
     93          1           0        2.199969    1.333738   -0.748724
     94          1           0        2.859832   -2.419405    1.161685
     95          1           0        1.177609   -2.404442    0.274934
     96          1           0        2.428229   -2.728400   -0.662678
     97          1           0        0.096025    2.445503   -0.707828
     98          1           0       -0.358986   -0.592030   -0.207363
 ---------------------------------------------------------------------

 SCF Done:  E(RCAM-B3LYP) =  -1706.98095791     A.U. after   16 cycles

 Excitation energies and oscillator strengths:

 Excited State   1:      Singlet-A      1.7919 eV  691.93 nm  f=2.8715  <S**2>=0.000
     155 ->158         0.12507
     156 ->157         0.70527
     156 <-157        -0.13515
 This state for optimization and/or second-order correction.
 Total Energy, E(TD-HF/TD-DFT) =  -1706.91510794
 Copying the excited state density for this state as the 1-particle RhoCI density.

 The electronic state is 1-A.
 Alpha  occ. eigenvalues --  -19.23331 -19.22198 -10.31099 -10.30902 -10.27705
 Alpha  occ. eigenvalues --  -10.27371 -10.27345 -10.27231 -10.27164 -10.27152
 Alpha  occ. eigenvalues --  -10.27060 -10.27005 -10.27004 -10.26709 -10.26562
 Alpha  occ. eigenvalues --  -10.26458 -10.26417 -10.26412 -10.26377 -10.26357
 Alpha  occ. eigenvalues --  -10.26342 -10.26325 -10.26263 -10.26243 -10.26236
 Alpha  occ. eigenvalues --  -10.26082 -10.26081 -10.25997 -10.25923 -10.25667
 Alpha  occ. eigenvalues --  -10.25664 -10.25465 -10.25274 -10.25222 -10.25191
 Alpha  occ. eigenvalues --  -10.24995 -10.24871 -10.24804 -10.24656 -10.24577
 Alpha  occ. eigenvalues --  -10.23956 -10.23439  -1.08036  -1.06922  -0.94302
 Alpha  occ. eigenvalues --   -0.93534  -0.91884  -0.90993  -0.90316  -0.89539
 Alpha  occ. eigenvalues --   -0.87896  -0.87025  -0.85915  -0.85642  -0.84573
 Alpha  occ. eigenvalues --   -0.82438  -0.81588  -0.80487  -0.79596  -0.78664
 Alpha  occ. eigenvalues --   -0.76616  -0.76380  -0.76081  -0.76026  -0.75525
 Alpha  occ. eigenvalues --   -0.74900  -0.74522  -0.73252  -0.72255  -0.70284
 Alpha  occ. eigenvalues --   -0.68772  -0.67228  -0.66302  -0.65571  -0.63807
 Alpha  occ. eigenvalues --   -0.62491  -0.62392  -0.61618  -0.60723  -0.59536
 Alpha  occ. eigenvalues --   -0.59089  -0.58940  -0.58093  -0.56847  -0.56075
 Alpha  occ. eigenvalues --   -0.55940  -0.55122  -0.54320  -0.53861  -0.53764
 Alpha  occ. eigenvalues --   -0.53232  -0.51918  -0.51776  -0.51210  -0.50980
 Alpha  occ. eigenvalues --   -0.50560  -0.50429  -0.49913  -0.49549  -0.49328
 Alpha  occ. eigenvalues --   -0.49057  -0.48562  -0.48540  -0.48256  -0.47956
 Alpha  occ. eigenvalues --   -0.47464  -0.47087  -0.46630  -0.46458  -0.46054
 Alpha  occ. eigenvalues --   -0.45720  -0.45569  -0.45276  -0.44720  -0.44527
 Alpha  occ. eigenvalues --   -0.44061  -0.43746  -0.43696  -0.43233  -0.42877
 Alpha  occ. eigenvalues --   -0.42766  -0.42565  -0.42271  -0.42151  -0.41893
 Alpha  occ. eigenvalues --   -0.41713  -0.41507  -0.41253  -0.40899  -0.40868
 Alpha  occ. eigenvalues --   -0.40645  -0.40378  -0.39711  -0.39686  -0.39388
 Alpha  occ. eigenvalues --   -0.38842  -0.38679  -0.38190  -0.37957  -0.37749
 Alpha  occ. eigenvalues --   -0.37588  -0.36949  -0.36778  -0.35554  -0.34954
 Alpha  occ. eigenvalues --   -0.34667  -0.33907  -0.33706  -0.32624  -0.32418
 Alpha  occ. eigenvalues --   -0.31586  -0.30162  -0.28555  -0.26390  -0.23592
 Alpha  occ. eigenvalues --   -0.17913
 Alpha virt. eigenvalues --   -0.06878  -0.00518   0.02847   0.05489   0.06478
 Alpha virt. eigenvalues --    0.08311   0.09474   0.11064   0.11289   0.11508
 Alpha virt. eigenvalues --    0.12604   0.12796   0.12900   0.13357   0.13695

 Mulliken charges:
               1
     1  O   -0.526585
     2  O   -0.578022
     3  C    0.007917
     4  C   -0.121235
     5  C   -0.176102
     6  C    0.096388
     7  C    0.117350
     8  C   -0.017256
     9  C   -0.283442
    10  C   -0.308898
    11  C   -0.195781
    12  C   -0.120393
    13  C    0.183611
    14  C    0.074915
    15  C   -0.068288
    16  C   -0.208500
    17  C    0.023580
    18  C   -0.309546
    19  C   -0.286804
    20  C   -0.350226
    21  C   -0.084594
    22  C   -0.088706
    23  C   -0.357617
    24  C    0.099757
    25  C   -0.115966
    26  C   -0.384905
    27  C    0.067211
    28  C   -0.126442
    29  C   -0.374725
    30  C   -0.101203
    31  C   -0.075492
    32  C   -0.093883
    33  C   -0.135760
    34  C    0.082877
    35  C   -0.108647
    36  C    0.088029
    37  C   -0.367946
    38  C   -0.097843
    39  C   -0.130860
    40  C   -0.373311
    41  C   -0.085713
    42  C   -0.061036
    43  H    0.091752
    44  H    0.111145
    45  H    0.076003
    46  H    0.088687
    47  H    0.087413
    48  H    0.066622
    49  H    0.099718
    50  H    0.133475
    51  H    0.091111
    52  H    0.086862
    53  H    0.098113
    54  H    0.080969
    55  H    0.078797
    56  H    0.076721
    57  H    0.061211
    58  H    0.117276
    59  H    0.117114
    60  H    0.086601
    61  H    0.101574
    62  H    0.108965
    63  H    0.104977
    64  H    0.110565
    65  H    0.056027
    66  H    0.095307
    67  H    0.128044
    68  H    0.111303
    69  H    0.305705
    70  H    0.088548
    71  H    0.069538
    72  H    0.096385
    73  H    0.118481
    74  H    0.125206
    75  H    0.312365
    76  H    0.087243
    77  H    0.090888
    78  H    0.137384
    79  H    0.129591
    80  H    0.085689
    81  H    0.122142
    82  H    0.122059
    83  H    0.104551
    84  H    0.080162
    85  H    0.082417
    86  H    0.083776
    87  H    0.077115
    88  H    0.065509
    89  H    0.126571
    90  H    0.089265
    91  H    0.114235
    92  H    0.073933
    93  H    0.082377
    94  H    0.133583
    95  H    0.097238
    96  H    0.146006
    97  H    0.081550
    98  H    0.078232
 Sum of Mulliken charges =  -0.00000

 Dipole moment (field-independent basis, Debye):
    X=              2.1711    Y=             -1.6319    Z=              0.4564  Tot=              2.7541
 Quadrupole moment (field-independent basis, Debye-Ang):
   XX=           -259.8580   YY=           -238.6330   ZZ=           -265.7353
   XY=             22.0852   XZ=             31.8568   YZ=              1.3252

 Normal termination of Gaussian 16 at Mon Jul 15 22:00:08 2019.
