 Gaussian 16, Revision A.03,
 Gaussian 16:  ES64L-G16RevA.03 25-Dec-2016

 -------------------------------------
 # td=(NStates=1) CAM-B3LYP/6-31G(d,p)
 -------------------------------------

 --
 TD
 --
 Symbolic Z-matrix:
 Charge =  0 Multiplicity = 1

                         Standard orientation:
 ---------------------------------------------------------------------
 Center     Atomic      Atomic             Coordinates (Angstroms)
 Number     Number       Type             X           Y           Z
 ---------------------------------------------------------------------
      1          8           0      -14.031033   -2.081479    0.390835
      2          8           0       14.717031    0.816498    0.156332
      3          6           0      -11.711109   -0.071104    1.267091
      4          6           0      -10.912710    0.346906   -0.033083
      5          6           0      -11.943832   -1.526103    1.389682
      6          6           0      -12.583696   -2.267866    0.225563
      7          6           0      -11.422488   -0.413754   -1.273673
      8          6           0       10.921527    1.136749    0.936550
      9          6           0      -11.052157    0.523454    2.552950
     10          6           0      -13.074796    0.721802    1.144779
     11          6           0       12.436372    1.547385    0.508741
     12          6           0      -12.184873   -1.563504   -1.205240
     13          6           0       13.412166    0.340213    0.381307
     14          6           0       10.613179   -0.094060   -0.051098
     15          6           0       -9.462646   -0.087821    0.038308
     16          6           0       13.048193   -0.512132   -0.772835
     17          6           0       11.571700   -0.741095   -0.874403
     18          6           0       10.085258    2.347605    0.833887
     19          6           0       10.824640    0.729953    2.356641
     20          6           0      -11.156286    0.157795   -2.622161
     21          6           0       -8.477299    0.893182   -0.152485
     22          6           0        9.213834   -0.470752    0.099362
     23          6           0       11.135404   -1.711725   -1.863402
     24          6           0       -7.062500    0.579374   -0.051033
     25          6           0        8.682810   -1.769886   -0.027896
     26          6           0       -6.630492   -0.918361    0.272183
     27          6           0        7.367543   -2.081942    0.042325
     28          6           0       -6.120159    1.527418   -0.341260
     29          6           0        7.069711   -3.626269    0.220095
     30          6           0        6.315103   -1.241226   -0.191877
     31          6           0       -4.673486    1.517182   -0.240258
     32          6           0        4.938541   -1.499239   -0.146114
     33          6           0       -3.989541    2.629528   -0.692413
     34          6           0       -2.555265    2.740614   -0.716594
     35          6           0        3.939593   -0.530068   -0.345134
     36          6           0        2.621526   -0.791351   -0.192265
     37          6           0       -1.943160    4.111203   -0.938421
     38          6           0       -1.754521    1.534762   -0.502067
     39          6           0        1.748219    0.300652   -0.339046
     40          6           0        2.156099   -2.130472    0.225077
     41          6           0       -0.378240    1.582770   -0.481731
     42          6           0        0.412063    0.435752   -0.284969
     43          1           0      -10.972222    1.375578   -0.176414
     44          1           0      -12.734476   -1.624671    2.090974
     45          1           0      -11.088832   -2.087121    1.562121
     46          1           0      -12.359426   -3.378509    0.214547
     47          1           0       -9.857256    0.058716    2.862052
     48          1           0      -10.964127    1.574266    2.634973
     49          1           0      -11.411574    0.306942    3.519916
     50          1           0      -13.685089    0.608925    0.199051
     51          1           0      -13.594249    0.484885    2.099668
     52          1           0      -12.859956    1.829033    1.107727
     53          1           0       12.153341    1.993056   -0.672656
     54          1           0       12.964658    2.279762    1.081370
     55          1           0      -12.404365   -2.103676   -2.045347
     56          1           0       13.404938   -0.155236    1.194297
     57          1           0       -9.387673   -1.113324    0.129989
     58          1           0       13.741758   -1.443477   -0.850172
     59          1           0       13.271144    0.070009   -1.629296
     60          1           0        9.016271    2.158986    1.007825
     61          1           0       10.275267    2.907462   -0.128541
     62          1           0       10.603091    3.053650    1.370533
     63          1           0       11.486591   -0.360372    2.778984
     64          1           0        9.691474    0.670112    2.742834
     65          1           0       11.188429    1.463293    3.244190
     66          1           0      -10.212958    0.372651   -2.732462
     67          1           0      -11.791281    0.995227   -2.852863
     68          1           0      -11.453763   -0.698764   -3.219331
     69          1           0      -14.554502   -2.277797   -0.378915
     70          1           0        8.470534    0.304057    0.488430
     71          1           0       -8.855457    1.875672   -0.197603
     72          1           0       11.275888   -2.828486   -1.479165
     73          1           0       10.133811   -1.558085   -2.142175
     74          1           0       11.753298   -1.715645   -2.796434
     75          1           0       14.980615    1.318891    0.959836
     76          1           0        9.217720   -2.677839   -0.099900
     77          1           0       -5.507890   -1.023636    0.506652
     78          1           0       -7.177831   -1.196349    1.274861
     79          1           0       -7.071862   -1.430690   -0.457792
     80          1           0       -6.410967    2.541676   -0.389194
     81          1           0        6.595999   -3.940124    1.278858
     82          1           0        6.599371   -3.991297   -0.572587
     83          1           0        8.136216   -4.072545    0.143465
     84          1           0        6.658612   -0.079582   -0.341362
     85          1           0       -4.246634    0.655076    0.081003
     86          1           0        4.702867   -2.568002    0.019685
     87          1           0       -4.548697    3.435011   -1.060276
     88          1           0        4.296368    0.587900   -0.457151
     89          1           0       -1.189323    4.146358   -1.793358
     90          1           0       -1.610788    4.525926    0.131380
     91          1           0       -2.692916    4.730306   -1.184345
     92          1           0       -2.214645    0.610566   -0.251483
     93          1           0        2.304585    1.157422   -0.692087
     94          1           0        2.672700   -2.389245    1.152962
     95          1           0        0.945842   -2.153954    0.505607
     96          1           0        2.261136   -3.059717   -0.606098
     97          1           0        0.315730    2.389489   -0.576758
     98          1           0       -0.292826   -0.366316    0.092150
 ---------------------------------------------------------------------

 SCF Done:  E(RCAM-B3LYP) =  -1706.93829126     A.U. after   16 cycles

 Excitation energies and oscillator strengths:

 Excited State   1:      Singlet-A      1.7426 eV  711.48 nm  f=3.1607  <S**2>=0.000
     155 ->158        -0.13903
     156 ->157         0.70065
     156 <-157        -0.12543
 This state for optimization and/or second-order correction.
 Total Energy, E(TD-HF/TD-DFT) =  -1706.87425078
 Copying the excited state density for this state as the 1-particle RhoCI density.

 The electronic state is 1-A.
 Alpha  occ. eigenvalues --  -19.20968 -19.20178 -10.31903 -10.28482 -10.28268
 Alpha  occ. eigenvalues --  -10.28153 -10.28048 -10.27697 -10.27587 -10.27536
 Alpha  occ. eigenvalues --  -10.27461 -10.27188 -10.26871 -10.26729 -10.26653
 Alpha  occ. eigenvalues --  -10.26574 -10.26396 -10.26357 -10.26323 -10.26298
 Alpha  occ. eigenvalues --  -10.26219 -10.26170 -10.26088 -10.26069 -10.25995
 Alpha  occ. eigenvalues --  -10.25933 -10.25901 -10.25848 -10.25828 -10.25820
 Alpha  occ. eigenvalues --  -10.25600 -10.25485 -10.25454 -10.25213 -10.25182
 Alpha  occ. eigenvalues --  -10.25148 -10.25105 -10.24921 -10.24440 -10.24284
 Alpha  occ. eigenvalues --  -10.23784 -10.23492  -1.09691  -1.07519  -0.93208
 Alpha  occ. eigenvalues --   -0.93015  -0.92312  -0.91276  -0.90534  -0.89402
 Alpha  occ. eigenvalues --   -0.88177  -0.87478  -0.87045  -0.84914  -0.84214
 Alpha  occ. eigenvalues --   -0.82791  -0.82091  -0.80441  -0.79939  -0.78699
 Alpha  occ. eigenvalues --   -0.76553  -0.76208  -0.76054  -0.75305  -0.75116
 Alpha  occ. eigenvalues --   -0.75025  -0.74260  -0.74196  -0.72364  -0.70084
 Alpha  occ. eigenvalues --   -0.69272  -0.68144  -0.66861  -0.65601  -0.64521
 Alpha  occ. eigenvalues --   -0.63268  -0.62919  -0.62055  -0.61511  -0.60168
 Alpha  occ. eigenvalues --   -0.59521  -0.58719  -0.58333  -0.57372  -0.56427
 Alpha  occ. eigenvalues --   -0.55765  -0.55052  -0.54540  -0.54053  -0.53578
 Alpha  occ. eigenvalues --   -0.53060  -0.52959  -0.52617  -0.51590  -0.51310
 Alpha  occ. eigenvalues --   -0.50109  -0.49874  -0.49483  -0.49273  -0.49157
 Alpha  occ. eigenvalues --   -0.48898  -0.48700  -0.48458  -0.48337  -0.48200
 Alpha  occ. eigenvalues --   -0.47745  -0.47583  -0.47376  -0.46537  -0.46315
 Alpha  occ. eigenvalues --   -0.46164  -0.45501  -0.45466  -0.45115  -0.44928
 Alpha  occ. eigenvalues --   -0.44169  -0.44043  -0.43791  -0.43472  -0.43260
 Alpha  occ. eigenvalues --   -0.43099  -0.42461  -0.42406  -0.41794  -0.41714
 Alpha  occ. eigenvalues --   -0.41452  -0.41288  -0.41106  -0.40923  -0.40306
 Alpha  occ. eigenvalues --   -0.40214  -0.39833  -0.39584  -0.39498  -0.39467
 Alpha  occ. eigenvalues --   -0.39137  -0.38900  -0.38414  -0.38112  -0.37679
 Alpha  occ. eigenvalues --   -0.37454  -0.37282  -0.36483  -0.35837  -0.35344
 Alpha  occ. eigenvalues --   -0.34804  -0.34419  -0.33781  -0.32078  -0.32007
 Alpha  occ. eigenvalues --   -0.31676  -0.29314  -0.28731  -0.26001  -0.22955
 Alpha  occ. eigenvalues --   -0.17715
 Alpha virt. eigenvalues --   -0.06900  -0.01301   0.02144   0.05232   0.07352
 Alpha virt. eigenvalues --    0.09060   0.11131   0.11889   0.12353   0.12504
 Alpha virt. eigenvalues --    0.12838   0.13198   0.13481   0.13974   0.14125

 Mulliken charges:
               1
     1  O   -0.563885
     2  O   -0.565474
     3  C    0.033565
     4  C   -0.136406
     5  C   -0.170329
     6  C    0.139243
     7  C    0.081190
     8  C   -0.005122
     9  C   -0.301243
    10  C   -0.290686
    11  C   -0.201725
    12  C   -0.157783
    13  C    0.199161
    14  C    0.065371
    15  C   -0.053333
    16  C   -0.225875
    17  C    0.069172
    18  C   -0.294316
    19  C   -0.259887
    20  C   -0.337734
    21  C   -0.104419
    22  C   -0.141489
    23  C   -0.368791
    24  C    0.072446
    25  C   -0.081150
    26  C   -0.354486
    27  C    0.070998
    28  C   -0.136970
    29  C   -0.367166
    30  C   -0.104157
    31  C   -0.033238
    32  C   -0.110107
    33  C   -0.126789
    34  C    0.061505
    35  C   -0.123287
    36  C    0.168141
    37  C   -0.358213
    38  C   -0.117172
    39  C   -0.139096
    40  C   -0.368648
    41  C   -0.055313
    42  C   -0.091402
    43  H    0.082851
    44  H    0.127081
    45  H    0.098170
    46  H    0.081433
    47  H    0.044274
    48  H    0.109359
    49  H    0.114320
    50  H    0.112253
    51  H    0.099686
    52  H    0.078118
    53  H    0.064134
    54  H    0.071777
    55  H    0.075379
    56  H    0.090802
    57  H    0.090826
    58  H    0.104989
    59  H    0.133002
    60  H    0.105968
    61  H    0.093371
    62  H    0.120336
    63  H    0.053940
    64  H    0.090414
    65  H    0.082736
    66  H    0.124859
    67  H    0.118901
    68  H    0.104157
    69  H    0.300984
    70  H    0.084704
    71  H    0.088769
    72  H    0.096680
    73  H    0.135117
    74  H    0.101861
    75  H    0.302240
    76  H    0.081791
    77  H    0.105962
    78  H    0.105365
    79  H    0.140312
    80  H    0.073693
    81  H    0.106766
    82  H    0.139581
    83  H    0.085628
    84  H    0.053185
    85  H    0.073332
    86  H    0.091254
    87  H    0.083496
    88  H    0.084494
    89  H    0.122475
    90  H    0.116054
    91  H    0.119923
    92  H    0.086511
    93  H    0.072305
    94  H    0.129831
    95  H    0.087129
    96  H    0.097874
    97  H    0.082347
    98  H    0.062099
 Sum of Mulliken charges =  -0.00000

 Dipole moment (field-independent basis, Debye):
    X=             -1.1621    Y=              0.2958    Z=              0.2647  Tot=              1.2280
 Quadrupole moment (field-independent basis, Debye-Ang):
   XX=           -267.0986   YY=           -240.8982   ZZ=           -261.0408
   XY=              5.0153   XZ=             34.9219   YZ=              3.4701

 Normal termination of Gaussian 16 at Mon Jul 15 23:59:25 2019.
