 Gaussian 16, Revision A.03,
 Gaussian 16:  ES64L-G16RevA.03 25-Dec-2016

 -------------------------------------
 # td=(NStates=1) CAM-B3LYP/6-31G(d,p)
 -------------------------------------

 --
 TD
 --
 Symbolic Z-matrix:
 Charge =  0 Multiplicity = 1

                         Standard orientation:
 ---------------------------------------------------------------------
 Center     Atomic      Atomic             Coordinates (Angstroms)
 Number     Number       Type             X           Y           Z
 ---------------------------------------------------------------------
      1          8           0      -14.227111   -1.806603    0.702858
      2          8           0       14.760273    1.072052    0.326289
      3          6           0      -11.705160   -0.045146    1.419616
      4          6           0      -10.882243    0.201054    0.040300
      5          6           0      -11.994075   -1.467552    1.528745
      6          6           0      -12.742751   -1.984110    0.298239
      7          6           0      -11.579390   -0.442573   -1.137710
      8          6           0       11.050115    1.001618    1.171281
      9          6           0      -10.886756    0.570028    2.562859
     10          6           0      -13.137408    0.770663    1.338997
     11          6           0       12.545936    1.557939    1.017948
     12          6           0      -12.430972   -1.476179   -1.030479
     13          6           0       13.473965    0.503374    0.531511
     14          6           0       10.613504    0.040359    0.009404
     15          6           0       -9.500154   -0.159899    0.012228
     16          6           0       12.982660   -0.187702   -0.794237
     17          6           0       11.520853   -0.520175   -0.849823
     18          6           0       10.044070    2.224281    1.063769
     19          6           0       10.864268    0.223180    2.503954
     20          6           0      -11.175739    0.246758   -2.500148
     21          6           0       -8.424696    0.770795   -0.047352
     22          6           0        9.246021   -0.448916    0.073310
     23          6           0       11.364922   -1.379522   -2.001118
     24          6           0       -7.002806    0.491993   -0.240822
     25          6           0        8.827292   -1.689547   -0.137092
     26          6           0       -6.619048   -1.001241   -0.060313
     27          6           0        7.463488   -2.141282   -0.134757
     28          6           0       -6.246792    1.517066   -0.379616
     29          6           0        7.250695   -3.661393    0.039389
     30          6           0        6.419071   -1.266142   -0.417300
     31          6           0       -4.775503    1.408105   -0.514921
     32          6           0        5.011312   -1.608696   -0.371876
     33          6           0       -3.968352    2.552347   -0.699897
     34          6           0       -2.607776    2.615388   -0.831883
     35          6           0        4.036558   -0.596889   -0.442004
     36          6           0        2.599269   -0.804390   -0.303452
     37          6           0       -2.029866    4.006616   -1.108947
     38          6           0       -1.789597    1.545470   -0.538948
     39          6           0        1.689961    0.206239   -0.497218
     40          6           0        2.105212   -2.181061    0.137916
     41          6           0       -0.406023    1.516921   -0.563543
     42          6           0        0.276671    0.319742   -0.501913
     43          1           0      -10.941042    1.245951    0.117026
     44          1           0      -12.460213   -1.697805    2.546056
     45          1           0      -10.955016   -1.981036    1.352947
     46          1           0      -12.571988   -2.938400    0.183627
     47          1           0      -10.169533   -0.229170    2.856047
     48          1           0      -10.484595    1.646829    2.600399
     49          1           0      -11.487416    0.439789    3.356389
     50          1           0      -13.638817    0.326620    0.601248
     51          1           0      -13.720839    0.621756    2.278025
     52          1           0      -12.883346    1.864486    1.240556
     53          1           0       12.462420    2.433123    0.308837
     54          1           0       12.756726    2.043155    1.912600
     55          1           0      -12.957601   -1.907214   -1.898771
     56          1           0       13.521231   -0.280816    1.351468
     57          1           0       -9.335484   -1.236510   -0.261357
     58          1           0       13.504667   -0.941108   -0.960525
     59          1           0       13.213712    0.536309   -1.502945
     60          1           0        9.067425    1.975121    1.381339
     61          1           0        9.899365    2.566760    0.063220
     62          1           0       10.608593    2.952535    1.655415
     63          1           0       11.490786   -0.812761    2.514936
     64          1           0       10.013952   -0.236859    2.681893
     65          1           0       11.559985    0.737811    3.352681
     66          1           0      -10.133212    0.181545   -2.519504
     67          1           0      -11.700608    1.343750   -2.609322
     68          1           0      -11.633361   -0.178688   -3.556436
     69          1           0      -14.529659   -2.456053   -0.160744
     70          1           0        8.597450    0.238883    0.559058
     71          1           0       -8.738002    1.851710    0.037597
     72          1           0       11.891971   -2.377296   -2.026101
     73          1           0       10.152503   -1.673608   -2.085271
     74          1           0       11.838356   -0.913340   -2.784236
     75          1           0       15.040609    0.761963    1.521783
     76          1           0        9.430316   -2.511920   -0.158736
     77          1           0       -5.410908   -1.259184   -0.115824
     78          1           0       -6.919519   -1.326583    0.998309
     79          1           0       -6.986005   -1.614532   -0.782327
     80          1           0       -6.676348    2.585770   -0.394827
     81          1           0        6.780802   -3.820987    0.945125
     82          1           0        6.322056   -3.749421   -0.761608
     83          1           0        8.047742   -4.296336   -0.177325
     84          1           0        6.511196   -0.219992   -0.581994
     85          1           0       -4.138663    0.468572   -0.391194
     86          1           0        4.465185   -2.621779   -0.406342
     87          1           0       -4.448515    3.436311   -0.733022
     88          1           0        4.312622    0.571033   -0.599386
     89          1           0       -1.180848    4.068435   -1.953922
     90          1           0       -1.563947    4.228658   -0.221595
     91          1           0       -2.913083    4.551204   -1.407810
     92          1           0       -2.298327    0.555040   -0.312082
     93          1           0        2.083980    1.220890   -0.897859
     94          1           0        2.940367   -2.375955    1.037976
     95          1           0        0.998417   -2.171283    0.211753
     96          1           0        2.265394   -2.930323   -0.772358
     97          1           0        0.068766    2.457151   -0.556544
     98          1           0       -0.119404   -0.640912   -0.174104
 ---------------------------------------------------------------------

 SCF Done:  E(RCAM-B3LYP) =  -1706.84810397     A.U. after   15 cycles

 Excitation energies and oscillator strengths:

 Excited State   1:      Singlet-A      2.2307 eV  555.82 nm  f=2.9971  <S**2>=0.000
     155 ->158        -0.16345
     156 ->157         0.68656
 This state for optimization and/or second-order correction.
 Total Energy, E(TD-HF/TD-DFT) =  -1706.76612884
 Copying the excited state density for this state as the 1-particle RhoCI density.

 The electronic state is 1-A.
 Alpha  occ. eigenvalues --  -19.23302 -19.22075 -10.30744 -10.29623 -10.28216
 Alpha  occ. eigenvalues --  -10.28025 -10.27878 -10.27517 -10.27440 -10.27415
 Alpha  occ. eigenvalues --  -10.27322 -10.27261 -10.27255 -10.27203 -10.27176
 Alpha  occ. eigenvalues --  -10.27102 -10.26809 -10.26619 -10.26584 -10.26559
 Alpha  occ. eigenvalues --  -10.26526 -10.26326 -10.26116 -10.25976 -10.25964
 Alpha  occ. eigenvalues --  -10.25946 -10.25893 -10.25863 -10.25842 -10.25841
 Alpha  occ. eigenvalues --  -10.25646 -10.25617 -10.25345 -10.25344 -10.25231
 Alpha  occ. eigenvalues --  -10.25108 -10.24835 -10.24629 -10.24160 -10.23513
 Alpha  occ. eigenvalues --  -10.22869 -10.22565  -1.07114  -1.04598  -0.93803
 Alpha  occ. eigenvalues --   -0.93091  -0.92580  -0.91217  -0.90756  -0.89857
 Alpha  occ. eigenvalues --   -0.87551  -0.87196  -0.86513  -0.85587  -0.84901
 Alpha  occ. eigenvalues --   -0.82725  -0.81737  -0.80057  -0.79600  -0.78336
 Alpha  occ. eigenvalues --   -0.77102  -0.76688  -0.76385  -0.76158  -0.75965
 Alpha  occ. eigenvalues --   -0.75115  -0.74800  -0.74718  -0.72791  -0.70442
 Alpha  occ. eigenvalues --   -0.69091  -0.68297  -0.66619  -0.65423  -0.63782
 Alpha  occ. eigenvalues --   -0.63576  -0.62299  -0.62125  -0.60443  -0.59743
 Alpha  occ. eigenvalues --   -0.59299  -0.58406  -0.57338  -0.56392  -0.56088
 Alpha  occ. eigenvalues --   -0.55615  -0.55171  -0.54654  -0.53677  -0.53278
 Alpha  occ. eigenvalues --   -0.53066  -0.52538  -0.52236  -0.51829  -0.50840
 Alpha  occ. eigenvalues --   -0.50596  -0.50026  -0.49771  -0.49629  -0.49408
 Alpha  occ. eigenvalues --   -0.48873  -0.48759  -0.48486  -0.48202  -0.47921
 Alpha  occ. eigenvalues --   -0.47820  -0.47706  -0.47239  -0.46892  -0.46478
 Alpha  occ. eigenvalues --   -0.46176  -0.45754  -0.45459  -0.45335  -0.44963
 Alpha  occ. eigenvalues --   -0.44704  -0.44526  -0.44104  -0.43927  -0.43690
 Alpha  occ. eigenvalues --   -0.43590  -0.43282  -0.42465  -0.42369  -0.42165
 Alpha  occ. eigenvalues --   -0.41869  -0.41862  -0.40820  -0.40645  -0.40294
 Alpha  occ. eigenvalues --   -0.40131  -0.39991  -0.39840  -0.39712  -0.39505
 Alpha  occ. eigenvalues --   -0.39227  -0.39008  -0.38397  -0.38193  -0.37808
 Alpha  occ. eigenvalues --   -0.37407  -0.36740  -0.36340  -0.35899  -0.35310
 Alpha  occ. eigenvalues --   -0.34435  -0.33574  -0.33293  -0.32496  -0.31723
 Alpha  occ. eigenvalues --   -0.31032  -0.30395  -0.28630  -0.26681  -0.23463
 Alpha  occ. eigenvalues --   -0.19693
 Alpha virt. eigenvalues --   -0.05543  -0.01093   0.02323   0.03646   0.05021
 Alpha virt. eigenvalues --    0.06492   0.08622   0.10044   0.11201   0.12130
 Alpha virt. eigenvalues --    0.12432   0.12951   0.13425   0.13685   0.14118

 Mulliken charges:
               1
     1  O   -0.538140
     2  O   -0.525781
     3  C    0.010493
     4  C   -0.132857
     5  C   -0.169998
     6  C    0.088283
     7  C    0.091599
     8  C   -0.022313
     9  C   -0.308866
    10  C   -0.297745
    11  C   -0.169984
    12  C   -0.125861
    13  C    0.115133
    14  C    0.067225
    15  C   -0.070982
    16  C   -0.206130
    17  C    0.051265
    18  C   -0.314120
    19  C   -0.288643
    20  C   -0.337137
    21  C   -0.128777
    22  C   -0.106438
    23  C   -0.368279
    24  C    0.151064
    25  C   -0.095071
    26  C   -0.357281
    27  C    0.054445
    28  C   -0.142905
    29  C   -0.362007
    30  C   -0.113196
    31  C   -0.080028
    32  C   -0.116845
    33  C   -0.109793
    34  C    0.084241
    35  C   -0.110042
    36  C    0.102794
    37  C   -0.365649
    38  C   -0.111937
    39  C   -0.133022
    40  C   -0.364689
    41  C   -0.075470
    42  C   -0.081666
    43  H    0.095943
    44  H    0.108940
    45  H    0.073000
    46  H    0.106724
    47  H    0.091107
    48  H    0.100790
    49  H    0.108351
    50  H    0.138420
    51  H    0.094962
    52  H    0.077312
    53  H    0.099756
    54  H    0.092270
    55  H    0.091104
    56  H    0.065231
    57  H    0.079681
    58  H    0.107928
    59  H    0.125734
    60  H    0.109794
    61  H    0.116075
    62  H    0.098408
    63  H    0.071591
    64  H    0.123693
    65  H    0.081901
    66  H    0.134692
    67  H    0.103076
    68  H    0.080991
    69  H    0.284847
    70  H    0.079844
    71  H    0.080019
    72  H    0.108275
    73  H    0.090607
    74  H    0.124219
    75  H    0.290580
    76  H    0.084524
    77  H    0.080391
    78  H    0.126331
    79  H    0.136747
    80  H    0.093175
    81  H    0.140160
    82  H    0.100631
    83  H    0.119652
    84  H    0.091850
    85  H    0.084522
    86  H    0.096724
    87  H    0.064953
    88  H    0.073780
    89  H    0.104201
    90  H    0.144555
    91  H    0.112759
    92  H    0.069586
    93  H    0.058465
    94  H    0.114801
    95  H    0.111180
    96  H    0.107595
    97  H    0.090580
    98  H    0.072085
 Sum of Mulliken charges =  -0.00000

 Dipole moment (field-independent basis, Debye):
    X=              0.8788    Y=             -1.8037    Z=              0.3527  Tot=              2.0372
 Quadrupole moment (field-independent basis, Debye-Ang):
   XX=           -288.4678   YY=           -242.9567   ZZ=           -261.6612
   XY=             -6.5936   XZ=             40.8073   YZ=              2.7588

 Normal termination of Gaussian 16 at Sun Jul 14 02:33:00 2019.
