 Gaussian 16, Revision A.03,
 Gaussian 16:  ES64L-G16RevA.03 25-Dec-2016

 -------------------------------------
 # td=(NStates=1) CAM-B3LYP/6-31G(d,p)
 -------------------------------------

 --
 TD
 --
 Symbolic Z-matrix:
 Charge =  0 Multiplicity = 1

                         Standard orientation:
 ---------------------------------------------------------------------
 Center     Atomic      Atomic             Coordinates (Angstroms)
 Number     Number       Type             X           Y           Z
 ---------------------------------------------------------------------
      1          8           0      -14.212499   -1.966274    0.758682
      2          8           0       14.777478    0.953596    0.256543
      3          6           0      -11.820330    0.072394    1.332836
      4          6           0      -10.894787    0.156153    0.015381
      5          6           0      -12.017465   -1.368392    1.547440
      6          6           0      -12.765254   -2.112784    0.417553
      7          6           0      -11.736244   -0.524086   -1.129071
      8          6           0       11.082666    0.925715    1.162398
      9          6           0      -11.002353    0.774284    2.412218
     10          6           0      -13.040060    0.972153    1.090108
     11          6           0       12.525282    1.486941    0.860436
     12          6           0      -12.560656   -1.552467   -0.926353
     13          6           0       13.566243    0.446032    0.389353
     14          6           0       10.742012   -0.000247   -0.071938
     15          6           0       -9.549570   -0.149199    0.002346
     16          6           0       13.114329   -0.265149   -0.881236
     17          6           0       11.569244   -0.582124   -0.905997
     18          6           0       10.203250    2.224927    1.289396
     19          6           0       11.033220    0.083913    2.465688
     20          6           0      -11.381629   -0.041017   -2.544993
     21          6           0       -8.455005    0.681269   -0.235850
     22          6           0        9.307120   -0.422404    0.032773
     23          6           0       11.129337   -1.385441   -2.138108
     24          6           0       -7.157868    0.380388   -0.132525
     25          6           0        8.868288   -1.686519   -0.088640
     26          6           0       -6.756225   -1.044648    0.055037
     27          6           0        7.460273   -2.134102    0.012191
     28          6           0       -6.212561    1.484452   -0.295037
     29          6           0        7.189877   -3.563076    0.236117
     30          6           0        6.442636   -1.183094   -0.176940
     31          6           0       -4.842231    1.415619   -0.434376
     32          6           0        5.036576   -1.436434   -0.127007
     33          6           0       -4.026843    2.514341   -0.622662
     34          6           0       -2.573100    2.575888   -0.747092
     35          6           0        4.137730   -0.437625   -0.223526
     36          6           0        2.683000   -0.695405   -0.280734
     37          6           0       -1.996307    4.032994   -0.941640
     38          6           0       -1.799546    1.516115   -0.731273
     39          6           0        1.816705    0.418712   -0.492684
     40          6           0        2.218056   -2.027828   -0.103456
     41          6           0       -0.371314    1.427545   -0.754457
     42          6           0        0.436747    0.372636   -0.500658
     43          1           0      -10.936852    1.384701   -0.522134
     44          1           0      -12.721219   -1.369553    2.535475
     45          1           0      -11.036180   -1.731639    1.693784
     46          1           0      -12.628578   -3.094268    0.570743
     47          1           0      -10.019151    0.127777    2.666266
     48          1           0      -10.629258    1.792136    2.088640
     49          1           0      -11.498924    0.716722    3.370059
     50          1           0      -13.877085    0.513977    0.528767
     51          1           0      -13.638833    0.699610    1.914881
     52          1           0      -12.935141    1.952761    1.151004
     53          1           0       12.343196    2.143545   -0.122995
     54          1           0       12.719626    2.034170    1.727359
     55          1           0      -13.197274   -1.907452   -1.778284
     56          1           0       13.568933   -0.255164    1.131319
     57          1           0       -9.231830   -1.231362    0.223297
     58          1           0       13.657278   -1.306545   -1.042231
     59          1           0       13.366148    0.367746   -1.614798
     60          1           0        9.276355    1.752226    1.640103
     61          1           0        9.866332    2.631576    0.152278
     62          1           0       10.764698    2.799425    1.970733
     63          1           0       11.739025   -0.842378    2.496542
     64          1           0       10.032952   -0.356588    2.792554
     65          1           0       11.192099    0.708764    3.458909
     66          1           0      -10.354687    0.305247   -2.924905
     67          1           0      -11.814218    0.866098   -2.801794
     68          1           0      -11.796528   -0.821606   -3.261769
     69          1           0      -14.646635   -2.189213   -0.054485
     70          1           0        8.614260    0.278300    0.228064
     71          1           0       -8.674393    1.789174   -0.238639
     72          1           0       11.528501   -2.337957   -1.731689
     73          1           0       10.219530   -1.315315   -2.326094
     74          1           0       11.755384   -1.250080   -3.252460
     75          1           0       14.996916    1.372631    1.169187
     76          1           0        9.661425   -2.349302   -0.214612
     77          1           0       -5.749071   -1.359866   -0.082569
     78          1           0       -6.981482   -1.406857    1.217791
     79          1           0       -7.486964   -1.672937   -0.495109
     80          1           0       -6.822449    2.567654   -0.376211
     81          1           0        7.387113   -3.838838    1.380605
     82          1           0        6.021665   -3.840750   -0.143347
     83          1           0        7.944733   -4.279368   -0.509901
     84          1           0        6.718360   -0.095734   -0.520542
     85          1           0       -4.340203    0.452921   -0.311613
     86          1           0        4.598192   -2.330530    0.249545
     87          1           0       -4.580397    3.441745   -0.955609
     88          1           0        4.374057    0.616284   -0.448942
     89          1           0       -1.216041    4.097532   -1.880106
     90          1           0       -1.353976    4.267839    0.020482
     91          1           0       -2.728521    4.844893   -0.790432
     92          1           0       -2.247390    0.419153   -0.642094
     93          1           0        2.370365    1.230289   -0.629897
     94          1           0        2.554784   -2.543080    0.678294
     95          1           0        0.981163   -1.961528   -0.419692
     96          1           0        2.670834   -2.502419   -1.008120
     97          1           0        0.186907    2.575468   -0.910933
     98          1           0       -0.106852   -0.561193   -0.176589
 ---------------------------------------------------------------------

 SCF Done:  E(RCAM-B3LYP) =  -1706.85260894     A.U. after   15 cycles

 Excitation energies and oscillator strengths:

 Excited State   1:      Singlet-A      2.2644 eV  547.54 nm  f=3.1775  <S**2>=0.000
     155 ->158        -0.16492
     156 ->157         0.68559
 This state for optimization and/or second-order correction.
 Total Energy, E(TD-HF/TD-DFT) =  -1706.76939367
 Copying the excited state density for this state as the 1-particle RhoCI density.

 The electronic state is 1-A.
 Alpha  occ. eigenvalues --  -19.21683 -19.20307 -10.30164 -10.29675 -10.28661
 Alpha  occ. eigenvalues --  -10.28084 -10.28070 -10.27888 -10.27887 -10.27785
 Alpha  occ. eigenvalues --  -10.27768 -10.27667 -10.27564 -10.27444 -10.27352
 Alpha  occ. eigenvalues --  -10.27070 -10.26999 -10.26844 -10.26840 -10.26828
 Alpha  occ. eigenvalues --  -10.26806 -10.26602 -10.26431 -10.26413 -10.26398
 Alpha  occ. eigenvalues --  -10.26381 -10.26287 -10.25988 -10.25902 -10.25836
 Alpha  occ. eigenvalues --  -10.25654 -10.25593 -10.25559 -10.25532 -10.25470
 Alpha  occ. eigenvalues --  -10.25252 -10.25140 -10.25132 -10.25105 -10.24848
 Alpha  occ. eigenvalues --  -10.24661 -10.21827  -1.12274  -1.08054  -0.94029
 Alpha  occ. eigenvalues --   -0.92944  -0.92444  -0.91760  -0.90692  -0.89833
 Alpha  occ. eigenvalues --   -0.87509  -0.87019  -0.86670  -0.85636  -0.84518
 Alpha  occ. eigenvalues --   -0.83413  -0.82340  -0.80843  -0.79943  -0.78508
 Alpha  occ. eigenvalues --   -0.76941  -0.76340  -0.76065  -0.75379  -0.75246
 Alpha  occ. eigenvalues --   -0.75197  -0.75037  -0.74671  -0.73098  -0.70923
 Alpha  occ. eigenvalues --   -0.68907  -0.67917  -0.66441  -0.65496  -0.63379
 Alpha  occ. eigenvalues --   -0.62766  -0.62466  -0.61664  -0.60416  -0.59925
 Alpha  occ. eigenvalues --   -0.59688  -0.59195  -0.57830  -0.57326  -0.56423
 Alpha  occ. eigenvalues --   -0.56066  -0.55781  -0.55490  -0.54397  -0.54027
 Alpha  occ. eigenvalues --   -0.53494  -0.53344  -0.52890  -0.51889  -0.50969
 Alpha  occ. eigenvalues --   -0.50914  -0.50667  -0.49863  -0.49607  -0.49229
 Alpha  occ. eigenvalues --   -0.48634  -0.48177  -0.48106  -0.47883  -0.47636
 Alpha  occ. eigenvalues --   -0.47298  -0.47082  -0.46874  -0.46572  -0.46288
 Alpha  occ. eigenvalues --   -0.46098  -0.45827  -0.45385  -0.45040  -0.44730
 Alpha  occ. eigenvalues --   -0.44526  -0.43711  -0.43439  -0.43266  -0.43178
 Alpha  occ. eigenvalues --   -0.43148  -0.42798  -0.42637  -0.42389  -0.42136
 Alpha  occ. eigenvalues --   -0.41713  -0.41168  -0.40891  -0.40705  -0.40584
 Alpha  occ. eigenvalues --   -0.40368  -0.39791  -0.39727  -0.39622  -0.39077
 Alpha  occ. eigenvalues --   -0.38935  -0.38693  -0.38535  -0.38065  -0.37868
 Alpha  occ. eigenvalues --   -0.37258  -0.36643  -0.36354  -0.35722  -0.35330
 Alpha  occ. eigenvalues --   -0.34977  -0.34292  -0.33585  -0.32752  -0.31496
 Alpha  occ. eigenvalues --   -0.30707  -0.29846  -0.29379  -0.26548  -0.23099
 Alpha  occ. eigenvalues --   -0.19713
 Alpha virt. eigenvalues --   -0.05563  -0.01673   0.02636   0.05749   0.06923
 Alpha virt. eigenvalues --    0.08915   0.10690   0.10843   0.11058   0.11368
 Alpha virt. eigenvalues --    0.11882   0.12299   0.12432   0.12923   0.13190

 Mulliken charges:
               1
     1  O   -0.567785
     2  O   -0.538141
     3  C    0.027268
     4  C   -0.150056
     5  C   -0.183327
     6  C    0.144704
     7  C    0.128131
     8  C   -0.018849
     9  C   -0.298685
    10  C   -0.300179
    11  C   -0.201839
    12  C   -0.139716
    13  C    0.199446
    14  C    0.063333
    15  C   -0.046143
    16  C   -0.219513
    17  C   -0.002541
    18  C   -0.287477
    19  C   -0.306968
    20  C   -0.375752
    21  C   -0.116162
    22  C   -0.101192
    23  C   -0.306067
    24  C    0.161895
    25  C   -0.096023
    26  C   -0.381204
    27  C    0.100836
    28  C   -0.139080
    29  C   -0.351445
    30  C   -0.124441
    31  C   -0.052355
    32  C   -0.087377
    33  C   -0.140602
    34  C    0.115032
    35  C   -0.101399
    36  C    0.090497
    37  C   -0.370542
    38  C   -0.121700
    39  C   -0.078475
    40  C   -0.377551
    41  C   -0.079173
    42  C   -0.095464
    43  H    0.035770
    44  H    0.103682
    45  H    0.103374
    46  H    0.103216
    47  H    0.073465
    48  H    0.106712
    49  H    0.101864
    50  H    0.113504
    51  H    0.104830
    52  H    0.107542
    53  H    0.082185
    54  H    0.073458
    55  H    0.078441
    56  H    0.065022
    57  H    0.072468
    58  H    0.086447
    59  H    0.128642
    60  H    0.108972
    61  H    0.090428
    62  H    0.114935
    63  H    0.103540
    64  H    0.109143
    65  H    0.077306
    66  H    0.120697
    67  H    0.127369
    68  H    0.097731
    69  H    0.296723
    70  H    0.067838
    71  H    0.074117
    72  H    0.117093
    73  H    0.125497
    74  H    0.074279
    75  H    0.311298
    76  H    0.073956
    77  H    0.118723
    78  H    0.093106
    79  H    0.125445
    80  H    0.069669
    81  H    0.118328
    82  H    0.093917
    83  H    0.090406
    84  H    0.086961
    85  H    0.086121
    86  H    0.083770
    87  H    0.082844
    88  H    0.077767
    89  H    0.114427
    90  H    0.110024
    91  H    0.118482
    92  H    0.069261
    93  H    0.065387
    94  H    0.135570
    95  H    0.084273
    96  H    0.127567
    97  H    0.052879
    98  H    0.089613
 Sum of Mulliken charges =  -0.00000

 Dipole moment (field-independent basis, Debye):
    X=              0.6799    Y=             -0.9493    Z=              0.4753  Tot=              1.2607
 Quadrupole moment (field-independent basis, Debye-Ang):
   XX=           -277.2041   YY=           -246.5647   ZZ=           -261.7902
   XY=              3.0706   XZ=             39.2758   YZ=              2.5239

 Normal termination of Gaussian 16 at Sat Jul 13 07:15:23 2019.
