 Gaussian 16, Revision A.03,
 Gaussian 16:  ES64L-G16RevA.03 25-Dec-2016

 -------------------------------------
 # td=(NStates=1) CAM-B3LYP/6-31G(d,p)
 -------------------------------------

 --
 TD
 --
 Symbolic Z-matrix:
 Charge =  0 Multiplicity = 1

                         Standard orientation:
 ---------------------------------------------------------------------
 Center     Atomic      Atomic             Coordinates (Angstroms)
 Number     Number       Type             X           Y           Z
 ---------------------------------------------------------------------
      1          8           0      -14.071804   -2.019588    0.812169
      2          8           0       14.853579    0.910645    0.292114
      3          6           0      -11.714741    0.076776    1.324461
      4          6           0      -10.928431    0.230233   -0.065474
      5          6           0      -11.997311   -1.441625    1.634643
      6          6           0      -12.703549   -2.126318    0.365187
      7          6           0      -11.554390   -0.477989   -1.220006
      8          6           0       11.103593    0.931674    1.173134
      9          6           0      -11.006787    0.731792    2.534501
     10          6           0      -13.072037    0.836089    1.173465
     11          6           0       12.483418    1.427552    0.900369
     12          6           0      -12.456664   -1.444189   -0.926438
     13          6           0       13.558594    0.411036    0.587920
     14          6           0       10.701439    0.006480   -0.008962
     15          6           0       -9.454093   -0.048111    0.081008
     16          6           0       13.060673   -0.091086   -0.828321
     17          6           0       11.632331   -0.495494   -0.831353
     18          6           0       10.282593    2.201967    1.111738
     19          6           0       10.949698    0.179748    2.586990
     20          6           0      -11.250506    0.035059   -2.579765
     21          6           0       -8.528316    0.812757   -0.278205
     22          6           0        9.349732   -0.396033    0.231339
     23          6           0       11.279590   -1.381200   -1.983733
     24          6           0       -7.082900    0.509347   -0.311265
     25          6           0        8.783459   -1.588862   -0.137726
     26          6           0       -6.622314   -0.903139    0.053695
     27          6           0        7.436898   -2.064817   -0.226984
     28          6           0       -6.281227    1.512721   -0.500699
     29          6           0        7.108859   -3.522970   -0.046367
     30          6           0        6.386840   -1.199207   -0.355068
     31          6           0       -4.875743    1.470649   -0.453466
     32          6           0        5.028382   -1.506910   -0.318632
     33          6           0       -4.080863    2.522097   -0.631526
     34          6           0       -2.646639    2.561887   -0.753338
     35          6           0        4.047207   -0.582116   -0.449791
     36          6           0        2.607553   -0.814441   -0.331161
     37          6           0       -1.975733    3.864285   -1.137533
     38          6           0       -1.850300    1.393235   -0.417548
     39          6           0        1.656314    0.295748   -0.398386
     40          6           0        2.107024   -2.256777    0.054299
     41          6           0       -0.476995    1.387990   -0.647199
     42          6           0        0.296404    0.265870   -0.305997
     43          1           0      -11.189818    1.409852   -0.082340
     44          1           0      -12.544429   -1.478241    2.619160
     45          1           0      -10.961976   -1.711837    1.794252
     46          1           0      -12.264382   -3.092625    0.280026
     47          1           0      -10.139448    0.329683    2.760060
     48          1           0      -10.767613    1.854706    2.175769
     49          1           0      -11.626929    0.857880    3.430224
     50          1           0      -13.799937    0.683131    0.297261
     51          1           0      -13.731786    0.720724    2.063387
     52          1           0      -12.992231    1.983721    1.249778
     53          1           0       12.719280    2.340241    0.300366
     54          1           0       12.814147    2.009512    1.693308
     55          1           0      -12.810539   -2.215403   -1.615228
     56          1           0       13.802491   -0.297645    1.202262
     57          1           0       -9.377662   -1.138931    0.454144
     58          1           0       13.509734   -0.917112   -1.236647
     59          1           0       13.246535    0.644327   -1.709906
     60          1           0        9.392473    1.942006    1.821729
     61          1           0        9.921607    2.454351   -0.061743
     62          1           0       10.805804    3.018838    1.496808
     63          1           0       11.567226   -0.583719    2.529148
     64          1           0       10.076560   -0.379131    2.545258
     65          1           0       11.088890    0.765879    3.464385
     66          1           0      -10.210865   -0.130028   -2.843308
     67          1           0      -11.453725    1.045699   -2.858979
     68          1           0      -11.743991   -0.586829   -3.188994
     69          1           0      -14.746295   -2.502105    0.123253
     70          1           0        8.664425    0.486622    0.289247
     71          1           0       -8.956981    1.889266   -0.531400
     72          1           0       11.658599   -2.414159   -2.064813
     73          1           0       10.206487   -1.307870   -1.936797
     74          1           0       11.742678   -0.876849   -2.844247
     75          1           0       14.995551    1.613745    0.941192
     76          1           0        9.615484   -2.399869   -0.070027
     77          1           0       -5.605013   -1.010897   -0.186486
     78          1           0       -6.658042   -1.083697    1.295772
     79          1           0       -7.316370   -1.630120   -0.420663
     80          1           0       -6.826549    2.575189   -0.423355
     81          1           0        6.402797   -3.772752    0.869566
     82          1           0        6.568151   -4.086560   -0.851793
     83          1           0        8.035788   -4.228542   -0.167804
     84          1           0        6.723510   -0.154216   -0.175791
     85          1           0       -4.477238    0.600067   -0.507683
     86          1           0        4.808077   -2.595987   -0.176270
     87          1           0       -4.533584    3.485043   -1.060393
     88          1           0        4.398115    0.456135   -0.633032
     89          1           0       -1.522163    3.848872   -2.194679
     90          1           0       -1.234872    4.028512   -0.523834
     91          1           0       -2.760945    4.586140   -1.050968
     92          1           0       -2.526243    0.682919    0.055304
     93          1           0        1.930761    1.265603   -0.565680
     94          1           0        2.533148   -2.320822    1.208055
     95          1           0        1.123621   -2.380474   -0.001250
     96          1           0        2.723071   -3.068878   -0.610947
     97          1           0       -0.101108    2.311445   -1.056082
     98          1           0       -0.254856   -0.595518   -0.149681
 ---------------------------------------------------------------------

 SCF Done:  E(RCAM-B3LYP) =  -1706.93035528     A.U. after   15 cycles

 Excitation energies and oscillator strengths:

 Excited State   1:      Singlet-A      2.0418 eV  607.23 nm  f=2.9975  <S**2>=0.000
     155 ->158         0.13766
     156 ->157         0.69704
     156 <-157        -0.10320
 This state for optimization and/or second-order correction.
 Total Energy, E(TD-HF/TD-DFT) =  -1706.85532027
 Copying the excited state density for this state as the 1-particle RhoCI density.

 The electronic state is 1-A.
 Alpha  occ. eigenvalues --  -19.22139 -19.20382 -10.30789 -10.29005 -10.28756
 Alpha  occ. eigenvalues --  -10.27675 -10.27665 -10.27473 -10.27312 -10.27004
 Alpha  occ. eigenvalues --  -10.26966 -10.26918 -10.26880 -10.26829 -10.26822
 Alpha  occ. eigenvalues --  -10.26813 -10.26710 -10.26674 -10.26474 -10.26449
 Alpha  occ. eigenvalues --  -10.26289 -10.26214 -10.26019 -10.25963 -10.25865
 Alpha  occ. eigenvalues --  -10.25727 -10.25707 -10.25684 -10.25548 -10.25371
 Alpha  occ. eigenvalues --  -10.25366 -10.24946 -10.24764 -10.24659 -10.24592
 Alpha  occ. eigenvalues --  -10.24131 -10.24102 -10.23921 -10.23874 -10.23821
 Alpha  occ. eigenvalues --  -10.23688 -10.22906  -1.09311  -1.07048  -0.93928
 Alpha  occ. eigenvalues --   -0.93182  -0.92418  -0.91574  -0.90973  -0.89457
 Alpha  occ. eigenvalues --   -0.87646  -0.87202  -0.86530  -0.85775  -0.84723
 Alpha  occ. eigenvalues --   -0.83024  -0.82031  -0.80948  -0.79961  -0.78760
 Alpha  occ. eigenvalues --   -0.77746  -0.76857  -0.76573  -0.75895  -0.75371
 Alpha  occ. eigenvalues --   -0.75013  -0.74916  -0.74151  -0.72699  -0.70968
 Alpha  occ. eigenvalues --   -0.69552  -0.68056  -0.67390  -0.65698  -0.64152
 Alpha  occ. eigenvalues --   -0.63502  -0.63031  -0.62851  -0.60879  -0.59799
 Alpha  occ. eigenvalues --   -0.59204  -0.58521  -0.57423  -0.57332  -0.56195
 Alpha  occ. eigenvalues --   -0.55804  -0.55553  -0.54612  -0.54051  -0.53890
 Alpha  occ. eigenvalues --   -0.53228  -0.52990  -0.52600  -0.51544  -0.51290
 Alpha  occ. eigenvalues --   -0.50728  -0.50230  -0.49612  -0.49218  -0.48967
 Alpha  occ. eigenvalues --   -0.48709  -0.48607  -0.48328  -0.48209  -0.47557
 Alpha  occ. eigenvalues --   -0.47190  -0.47141  -0.46713  -0.46409  -0.46249
 Alpha  occ. eigenvalues --   -0.46146  -0.45902  -0.45821  -0.45689  -0.45379
 Alpha  occ. eigenvalues --   -0.45083  -0.44571  -0.44387  -0.44137  -0.43627
 Alpha  occ. eigenvalues --   -0.43324  -0.42632  -0.42216  -0.41922  -0.41676
 Alpha  occ. eigenvalues --   -0.41570  -0.41237  -0.41077  -0.40655  -0.40442
 Alpha  occ. eigenvalues --   -0.40285  -0.39816  -0.39616  -0.39387  -0.39249
 Alpha  occ. eigenvalues --   -0.39125  -0.39002  -0.38607  -0.38475  -0.37837
 Alpha  occ. eigenvalues --   -0.37487  -0.36961  -0.36150  -0.35375  -0.35236
 Alpha  occ. eigenvalues --   -0.34325  -0.33593  -0.33161  -0.32510  -0.31926
 Alpha  occ. eigenvalues --   -0.31398  -0.29715  -0.29329  -0.27084  -0.24041
 Alpha  occ. eigenvalues --   -0.19155
 Alpha virt. eigenvalues --   -0.06434  -0.00974   0.02709   0.05040   0.07044
 Alpha virt. eigenvalues --    0.08996   0.10743   0.11738   0.12363   0.12657
 Alpha virt. eigenvalues --    0.12788   0.13116   0.13201   0.13618   0.13989

 Mulliken charges:
               1
     1  O   -0.544056
     2  O   -0.567904
     3  C    0.002661
     4  C   -0.158470
     5  C   -0.167636
     6  C    0.125398
     7  C    0.125620
     8  C    0.017810
     9  C   -0.294034
    10  C   -0.298174
    11  C   -0.232597
    12  C   -0.122583
    13  C    0.186635
    14  C    0.057045
    15  C   -0.073629
    16  C   -0.205236
    17  C    0.032034
    18  C   -0.296244
    19  C   -0.312752
    20  C   -0.354467
    21  C   -0.102403
    22  C   -0.109425
    23  C   -0.368430
    24  C    0.108088
    25  C   -0.153852
    26  C   -0.346709
    27  C    0.118494
    28  C   -0.115975
    29  C   -0.392122
    30  C   -0.111394
    31  C   -0.058615
    32  C   -0.075296
    33  C   -0.123558
    34  C    0.048401
    35  C   -0.101681
    36  C    0.052070
    37  C   -0.368066
    38  C   -0.095390
    39  C   -0.100306
    40  C   -0.334808
    41  C   -0.104004
    42  C   -0.067027
    43  H    0.078470
    44  H    0.110292
    45  H    0.076078
    46  H    0.097432
    47  H    0.109514
    48  H    0.072728
    49  H    0.106903
    50  H    0.105017
    51  H    0.095255
    52  H    0.067918
    53  H    0.100858
    54  H    0.068642
    55  H    0.069610
    56  H    0.090080
    57  H    0.089618
    58  H    0.104352
    59  H    0.108070
    60  H    0.089955
    61  H    0.086705
    62  H    0.103565
    63  H    0.113770
    64  H    0.120273
    65  H    0.107359
    66  H    0.119871
    67  H    0.125760
    68  H    0.116891
    69  H    0.294597
    70  H    0.090017
    71  H    0.087933
    72  H    0.111278
    73  H    0.126511
    74  H    0.101000
    75  H    0.293083
    76  H    0.085431
    77  H    0.117039
    78  H    0.096635
    79  H    0.118557
    80  H    0.073997
    81  H    0.115347
    82  H    0.118986
    83  H    0.096332
    84  H    0.076434
    85  H    0.073598
    86  H    0.082252
    87  H    0.075068
    88  H    0.087798
    89  H    0.114666
    90  H    0.139743
    91  H    0.111334
    92  H    0.083554
    93  H    0.074498
    94  H    0.108329
    95  H    0.120283
    96  H    0.102269
    97  H    0.092120
    98  H    0.078914
 Sum of Mulliken charges =  -0.00000

 Dipole moment (field-independent basis, Debye):
    X=             -1.4231    Y=             -0.5842    Z=             -0.2526  Tot=              1.5590
 Quadrupole moment (field-independent basis, Debye-Ang):
   XX=           -289.2025   YY=           -240.7107   ZZ=           -261.2656
   XY=             20.1360   XZ=             37.2252   YZ=              2.7263

 Normal termination of Gaussian 16 at Mon Jul 15 06:01:08 2019.
