 Gaussian 16, Revision A.03,
 Gaussian 16:  ES64L-G16RevA.03 25-Dec-2016

 -------------------------------------
 # td=(NStates=1) CAM-B3LYP/6-31G(d,p)
 -------------------------------------

 --
 TD
 --
 Symbolic Z-matrix:
 Charge =  0 Multiplicity = 1

                         Standard orientation:
 ---------------------------------------------------------------------
 Center     Atomic      Atomic             Coordinates (Angstroms)
 Number     Number       Type             X           Y           Z
 ---------------------------------------------------------------------
      1          8           0      -14.067469   -1.934017    0.461730
      2          8           0       14.679583    1.020814    0.164211
      3          6           0      -11.783083   -0.057769    1.361145
      4          6           0      -10.825806    0.283203    0.098891
      5          6           0      -11.889250   -1.540318    1.478645
      6          6           0      -12.658664   -2.063121    0.230663
      7          6           0      -11.629595   -0.228714   -1.210098
      8          6           0       11.064753    0.861951    1.182466
      9          6           0      -10.888225    0.394877    2.599127
     10          6           0      -13.099788    0.695643    1.385527
     11          6           0       12.593620    1.425364    1.030952
     12          6           0      -12.401177   -1.360847   -1.078508
     13          6           0       13.493845    0.395125    0.397577
     14          6           0       10.669605   -0.107209    0.124186
     15          6           0       -9.424746   -0.187062    0.063382
     16          6           0       12.987798   -0.043906   -0.948302
     17          6           0       11.525353   -0.437663   -0.879794
     18          6           0       10.233245    2.099974    1.219204
     19          6           0       10.979255    0.270892    2.522202
     20          6           0      -11.298204    0.356242   -2.420200
     21          6           0       -8.486928    0.661969   -0.226371
     22          6           0        9.331065   -0.497512    0.211178
     23          6           0       11.041281   -1.265773   -2.007898
     24          6           0       -7.118761    0.463078   -0.210586
     25          6           0        8.786525   -1.747542   -0.024686
     26          6           0       -6.657385   -0.970258    0.135273
     27          6           0        7.369428   -2.150184   -0.146545
     28          6           0       -6.271023    1.572444   -0.325291
     29          6           0        7.174470   -3.658650    0.081579
     30          6           0        6.350578   -1.240593   -0.170936
     31          6           0       -4.792049    1.570851   -0.410082
     32          6           0        5.016486   -1.575093   -0.239395
     33          6           0       -4.017384    2.715359   -0.545251
     34          6           0       -2.590055    2.676564   -0.630020
     35          6           0        4.023317   -0.623437   -0.519461
     36          6           0        2.554023   -0.791889   -0.481558
     37          6           0       -1.965856    4.020902   -0.831726
     38          6           0       -1.758636    1.501232   -0.596641
     39          6           0        1.746502    0.314277   -0.615504
     40          6           0        2.017739   -2.184946   -0.183635
     41          6           0       -0.300012    1.510356   -0.703710
     42          6           0        0.432425    0.312270   -0.516881
     43          1           0      -10.857667    1.322052    0.204892
     44          1           0      -12.570618   -1.879781    2.259277
     45          1           0      -10.985829   -2.050429    1.731527
     46          1           0      -12.430621   -3.110488    0.184957
     47          1           0       -9.924593   -0.289835    2.679022
     48          1           0      -10.709808    1.461016    2.440057
     49          1           0      -11.443211    0.158162    3.507146
     50          1           0      -13.632210    0.454235    0.477559
     51          1           0      -13.679734    0.266103    2.094336
     52          1           0      -12.875012    1.795185    1.677875
     53          1           0       12.727723    2.316444    0.128236
     54          1           0       13.053854    1.806029    2.112150
     55          1           0      -12.912895   -1.849768   -2.014821
     56          1           0       13.582473   -0.525914    0.935716
     57          1           0       -9.307339   -1.248028    0.162045
     58          1           0       13.647004   -0.871315   -1.441730
     59          1           0       13.013801    0.905315   -1.579545
     60          1           0        9.227185    2.070787    1.766421
     61          1           0       10.044823    2.347135    0.241121
     62          1           0       10.605527    2.813733    1.712416
     63          1           0       11.631173   -0.680108    2.472729
     64          1           0       10.055280    0.124241    2.808943
     65          1           0       11.280284    0.880113    3.387506
     66          1           0      -10.151122   -0.042416   -2.642121
     67          1           0      -11.242402    1.565142   -2.159822
     68          1           0      -11.915904    0.287733   -3.392431
     69          1           0      -14.720440   -2.055672   -0.109095
     70          1           0        8.657947    0.176568    0.647406
     71          1           0       -8.748736    1.761593   -0.335515
     72          1           0       11.603053   -2.305095   -1.779127
     73          1           0        9.917850   -1.397072   -2.257490
     74          1           0       11.459706   -0.881773   -3.072642
     75          1           0       15.016531    1.156052    1.073292
     76          1           0        9.347594   -2.482487   -0.237123
     77          1           0       -5.463484   -1.165834    0.232981
     78          1           0       -7.396347   -1.335916    1.146649
     79          1           0       -6.927764   -1.731229   -0.746064
     80          1           0       -6.798541    2.405982   -0.890597
     81          1           0        6.431153   -3.897299    0.916428
     82          1           0        6.636278   -4.266244   -1.026520
     83          1           0        8.145031   -4.277697    0.053783
     84          1           0        6.436877   -0.141859   -0.157957
     85          1           0       -4.188946    0.731052   -0.039998
     86          1           0        4.666014   -2.476918   -0.116833
     87          1           0       -4.589300    3.579960   -0.858375
     88          1           0        4.263677    0.526556   -0.624340
     89          1           0       -1.324268    4.102921   -1.765816
     90          1           0       -1.428118    4.272762   -0.132080
     91          1           0       -2.755669    4.801862   -0.968290
     92          1           0       -2.363450    0.607404   -0.622897
     93          1           0        2.352309    1.236854   -0.572362
     94          1           0        2.041044   -2.672178    0.739488
     95          1           0        0.837396   -2.200104   -0.391631
     96          1           0        2.502894   -2.845529   -0.958549
     97          1           0        0.378539    2.382927   -0.959316
     98          1           0       -0.324007   -0.549824   -0.141897
 ---------------------------------------------------------------------

 SCF Done:  E(RCAM-B3LYP) =  -1706.87208496     A.U. after   15 cycles

 Excitation energies and oscillator strengths:

 Excited State   1:      Singlet-A      2.0791 eV  596.33 nm  f=3.0027  <S**2>=0.000
     155 ->158        -0.15518
     156 ->157         0.68907
 This state for optimization and/or second-order correction.
 Total Energy, E(TD-HF/TD-DFT) =  -1706.79567870
 Copying the excited state density for this state as the 1-particle RhoCI density.

 The electronic state is 1-A.
 Alpha  occ. eigenvalues --  -19.21373 -19.19042 -10.30686 -10.29708 -10.29383
 Alpha  occ. eigenvalues --  -10.29166 -10.27885 -10.27769 -10.27685 -10.27676
 Alpha  occ. eigenvalues --  -10.27603 -10.27577 -10.27507 -10.27426 -10.27344
 Alpha  occ. eigenvalues --  -10.27100 -10.27080 -10.26941 -10.26929 -10.26830
 Alpha  occ. eigenvalues --  -10.26719 -10.26435 -10.26358 -10.26337 -10.26149
 Alpha  occ. eigenvalues --  -10.26070 -10.25963 -10.25689 -10.25614 -10.25575
 Alpha  occ. eigenvalues --  -10.25406 -10.25359 -10.25020 -10.24892 -10.24890
 Alpha  occ. eigenvalues --  -10.24506 -10.24425 -10.24170 -10.23734 -10.23031
 Alpha  occ. eigenvalues --  -10.22864 -10.22090  -1.12095  -1.09514  -0.94435
 Alpha  occ. eigenvalues --   -0.93472  -0.92015  -0.91298  -0.90596  -0.89952
 Alpha  occ. eigenvalues --   -0.87873  -0.87030  -0.86848  -0.85510  -0.84615
 Alpha  occ. eigenvalues --   -0.82930  -0.82234  -0.80804  -0.79624  -0.78488
 Alpha  occ. eigenvalues --   -0.77502  -0.75928  -0.75769  -0.75608  -0.75118
 Alpha  occ. eigenvalues --   -0.74834  -0.74287  -0.73823  -0.72840  -0.70154
 Alpha  occ. eigenvalues --   -0.69039  -0.68499  -0.66854  -0.64870  -0.64275
 Alpha  occ. eigenvalues --   -0.63903  -0.61681  -0.61187  -0.60944  -0.60286
 Alpha  occ. eigenvalues --   -0.60237  -0.59855  -0.58991  -0.57672  -0.56093
 Alpha  occ. eigenvalues --   -0.55950  -0.55192  -0.54514  -0.54267  -0.53656
 Alpha  occ. eigenvalues --   -0.53249  -0.52605  -0.52472  -0.51829  -0.51450
 Alpha  occ. eigenvalues --   -0.50870  -0.50373  -0.50200  -0.49897  -0.49212
 Alpha  occ. eigenvalues --   -0.48884  -0.48496  -0.48350  -0.47866  -0.47659
 Alpha  occ. eigenvalues --   -0.47278  -0.47038  -0.46884  -0.46331  -0.46286
 Alpha  occ. eigenvalues --   -0.45877  -0.45502  -0.45370  -0.45216  -0.44349
 Alpha  occ. eigenvalues --   -0.44167  -0.43452  -0.43334  -0.42961  -0.42706
 Alpha  occ. eigenvalues --   -0.42375  -0.42372  -0.42158  -0.42003  -0.41890
 Alpha  occ. eigenvalues --   -0.41648  -0.41546  -0.41227  -0.41066  -0.40838
 Alpha  occ. eigenvalues --   -0.40542  -0.39867  -0.39825  -0.39533  -0.39338
 Alpha  occ. eigenvalues --   -0.38771  -0.38457  -0.38266  -0.38012  -0.37615
 Alpha  occ. eigenvalues --   -0.37443  -0.37211  -0.36698  -0.36247  -0.36047
 Alpha  occ. eigenvalues --   -0.35521  -0.34034  -0.33310  -0.31870  -0.31709
 Alpha  occ. eigenvalues --   -0.31244  -0.29026  -0.28043  -0.26457  -0.23459
 Alpha  occ. eigenvalues --   -0.19254
 Alpha virt. eigenvalues --   -0.06025  -0.01642   0.02169   0.05479   0.06424
 Alpha virt. eigenvalues --    0.08282   0.11095   0.11266   0.11288   0.11928
 Alpha virt. eigenvalues --    0.12334   0.12891   0.13204   0.13365   0.13766

 Mulliken charges:
               1
     1  O   -0.562530
     2  O   -0.530062
     3  C   -0.002663
     4  C   -0.128528
     5  C   -0.178648
     6  C    0.156783
     7  C    0.124552
     8  C   -0.043463
     9  C   -0.299731
    10  C   -0.281238
    11  C   -0.180970
    12  C   -0.138605
    13  C    0.160755
    14  C    0.097560
    15  C   -0.067601
    16  C   -0.219661
    17  C    0.059917
    18  C   -0.286496
    19  C   -0.275814
    20  C   -0.348286
    21  C   -0.079716
    22  C   -0.107151
    23  C   -0.356971
    24  C    0.148116
    25  C   -0.086776
    26  C   -0.352517
    27  C    0.083181
    28  C   -0.162655
    29  C   -0.350383
    30  C   -0.107595
    31  C   -0.083356
    32  C   -0.050684
    33  C   -0.111773
    34  C    0.077959
    35  C   -0.137167
    36  C    0.104521
    37  C   -0.361371
    38  C   -0.134887
    39  C   -0.121731
    40  C   -0.375846
    41  C   -0.096945
    42  C   -0.065851
    43  H    0.084874
    44  H    0.113306
    45  H    0.094795
    46  H    0.079993
    47  H    0.081130
    48  H    0.094014
    49  H    0.098111
    50  H    0.116380
    51  H    0.120989
    52  H    0.076023
    53  H    0.075749
    54  H    0.063484
    55  H    0.067682
    56  H    0.080635
    57  H    0.095076
    58  H    0.106551
    59  H    0.116852
    60  H    0.071026
    61  H    0.109826
    62  H    0.110599
    63  H    0.081250
    64  H    0.111263
    65  H    0.087593
    66  H    0.108004
    67  H    0.078692
    68  H    0.112610
    69  H    0.288382
    70  H    0.085835
    71  H    0.079652
    72  H    0.094688
    73  H    0.127629
    74  H    0.084948
    75  H    0.302552
    76  H    0.057494
    77  H    0.099967
    78  H    0.086892
    79  H    0.110902
    80  H    0.086899
    81  H    0.131219
    82  H    0.048098
    83  H    0.119305
    84  H    0.087944
    85  H    0.085385
    86  H    0.068846
    87  H    0.088632
    88  H    0.062355
    89  H    0.109299
    90  H    0.138047
    91  H    0.097901
    92  H    0.085320
    93  H    0.090366
    94  H    0.135979
    95  H    0.086696
    96  H    0.115030
    97  H    0.091883
    98  H    0.089673
 Sum of Mulliken charges =  -0.00000

 Dipole moment (field-independent basis, Debye):
    X=             -0.3129    Y=             -0.9609    Z=              0.4505  Tot=              1.1064
 Quadrupole moment (field-independent basis, Debye-Ang):
   XX=           -256.1556   YY=           -246.6506   ZZ=           -262.8451
   XY=              2.5248   XZ=             37.6849   YZ=              0.9804

 Normal termination of Gaussian 16 at Sun Jul 14 06:29:31 2019.
