 Gaussian 16, Revision A.03,
 Gaussian 16:  ES64L-G16RevA.03 25-Dec-2016

 -------------------------------------
 # td=(NStates=1) CAM-B3LYP/6-31G(d,p)
 -------------------------------------

 --
 TD
 --
 Symbolic Z-matrix:
 Charge =  0 Multiplicity = 1

                         Standard orientation:
 ---------------------------------------------------------------------
 Center     Atomic      Atomic             Coordinates (Angstroms)
 Number     Number       Type             X           Y           Z
 ---------------------------------------------------------------------
      1          8           0      -14.024445   -2.063991    0.316894
      2          8           0       14.833271    0.787163   -0.032119
      3          6           0      -11.631021   -0.059465    1.324151
      4          6           0      -10.884561    0.322318    0.020882
      5          6           0      -11.967609   -1.571164    1.318185
      6          6           0      -12.633361   -2.099951    0.155320
      7          6           0      -11.576275   -0.302408   -1.218511
      8          6           0       11.118063    0.902142    1.118109
      9          6           0      -10.787755    0.237974    2.539428
     10          6           0      -12.919850    0.681220    1.519042
     11          6           0       12.581376    1.405981    0.885585
     12          6           0      -12.278860   -1.401481   -1.144151
     13          6           0       13.451331    0.414305    0.247864
     14          6           0       10.651124   -0.066369    0.064709
     15          6           0       -9.538767   -0.046816   -0.050208
     16          6           0       12.879471   -0.088708   -0.970662
     17          6           0       11.530259   -0.545177   -0.920137
     18          6           0       10.211857    2.076134    1.205577
     19          6           0       11.029342    0.145741    2.522568
     20          6           0      -11.426062    0.395024   -2.477845
     21          6           0       -8.467535    0.732609   -0.260627
     22          6           0        9.275259   -0.525109    0.166642
     23          6           0       11.088720   -1.360809   -2.112690
     24          6           0       -7.023169    0.504471   -0.142504
     25          6           0        8.842185   -1.752835   -0.243364
     26          6           0       -6.563718   -0.959943   -0.121345
     27          6           0        7.321989   -2.067224   -0.053191
     28          6           0       -6.168676    1.593225   -0.273825
     29          6           0        6.879653   -3.581733    0.035801
     30          6           0        6.352864   -1.127562   -0.190601
     31          6           0       -4.747891    1.538378   -0.299854
     32          6           0        4.912286   -1.389045   -0.095318
     33          6           0       -4.030875    2.672197   -0.535439
     34          6           0       -2.543763    2.726281   -0.543517
     35          6           0        3.913001   -0.465274   -0.178399
     36          6           0        2.560076   -0.759630   -0.177651
     37          6           0       -1.900485    4.081093   -0.893368
     38          6           0       -1.827064    1.516504   -0.457597
     39          6           0        1.757091    0.291826   -0.457115
     40          6           0        1.990130   -2.117237    0.170334
     41          6           0       -0.433331    1.518040   -0.479537
     42          6           0        0.363835    0.344529   -0.370170
     43          1           0      -11.012913    1.586529   -0.019836
     44          1           0      -12.698515   -1.697831    2.202549
     45          1           0      -11.171695   -2.212090    1.445181
     46          1           0      -12.221643   -3.216574    0.016466
     47          1           0       -9.754698   -0.203767    2.400106
     48          1           0      -10.721701    1.278222    2.461519
     49          1           0      -11.286194   -0.169691    3.426972
     50          1           0      -13.845093    0.546943    0.891648
     51          1           0      -13.424839    0.303537    2.520711
     52          1           0      -12.674040    1.890939    1.468977
     53          1           0       12.504366    2.179560    0.146748
     54          1           0       12.913778    1.884236    1.812494
     55          1           0      -12.811085   -1.856209   -1.919441
     56          1           0       13.531257   -0.507473    0.778915
     57          1           0       -9.358209   -1.139971   -0.080482
     58          1           0       13.483203   -1.019570   -1.428728
     59          1           0       12.966763    0.873466   -1.767415
     60          1           0        9.270721    1.825126    1.594239
     61          1           0       10.043773    2.556648    0.172481
     62          1           0       10.510692    2.819737    1.867104
     63          1           0       11.866221   -0.483611    2.545117
     64          1           0       10.077397   -0.580780    2.407688
     65          1           0       10.778687    0.991550    3.372250
     66          1           0      -10.503468    0.524167   -2.895246
     67          1           0      -11.725125    1.371146   -2.174696
     68          1           0      -11.848439   -0.060095   -3.355905
     69          1           0      -14.509959   -2.324391   -0.499772
     70          1           0        8.685555    0.118461    0.709629
     71          1           0       -8.855264    1.842731   -0.167695
     72          1           0       11.367708   -2.403783   -1.931834
     73          1           0        9.891859   -1.487752   -2.235907
     74          1           0       11.627093   -0.876858   -3.098180
     75          1           0       15.192075    1.241732    0.861673
     76          1           0        9.470515   -2.681076   -0.655246
     77          1           0       -5.447792   -1.032204    0.074622
     78          1           0       -6.932550   -1.621975    0.739202
     79          1           0       -6.705663   -1.597347   -1.013087
     80          1           0       -6.657402    2.502402   -0.381183
     81          1           0        6.309727   -3.742174    0.993229
     82          1           0        6.168888   -3.846306   -0.774495
     83          1           0        7.905932   -4.094548   -0.013883
     84          1           0        6.531229   -0.091262   -0.329189
     85          1           0       -4.130096    0.625797   -0.160735
     86          1           0        4.656884   -2.328957    0.265980
     87          1           0       -4.554166    3.757999   -0.495777
     88          1           0        4.428076    0.593843   -0.299202
     89          1           0       -1.129449    4.112617   -1.749523
     90          1           0       -1.479442    4.336460    0.189711
     91          1           0       -2.514284    4.691553   -1.110366
     92          1           0       -2.268844    0.653878   -0.412153
     93          1           0        2.204573    1.134050   -0.649581
     94          1           0        2.422789   -2.570314    1.210387
     95          1           0        0.879446   -2.252639    0.355394
     96          1           0        2.086488   -2.837220   -0.644324
     97          1           0        0.094024    2.562398   -0.732663
     98          1           0       -0.253473   -0.526968    0.027917
 ---------------------------------------------------------------------

 SCF Done:  E(RCAM-B3LYP) =  -1706.96078350     A.U. after   15 cycles

 Excitation energies and oscillator strengths:

 Excited State   1:      Singlet-A      2.2841 eV  542.82 nm  f=2.9218  <S**2>=0.000
     155 ->158        -0.14450
     156 ->157         0.69018
 This state for optimization and/or second-order correction.
 Total Energy, E(TD-HF/TD-DFT) =  -1706.87684460
 Copying the excited state density for this state as the 1-particle RhoCI density.

 The electronic state is 1-A.
 Alpha  occ. eigenvalues --  -19.21726 -19.21214 -10.30245 -10.29281 -10.28291
 Alpha  occ. eigenvalues --  -10.28280 -10.28166 -10.27697 -10.27681 -10.27511
 Alpha  occ. eigenvalues --  -10.27358 -10.27209 -10.27177 -10.26969 -10.26939
 Alpha  occ. eigenvalues --  -10.26795 -10.26719 -10.26615 -10.26575 -10.26543
 Alpha  occ. eigenvalues --  -10.26440 -10.26426 -10.26352 -10.26347 -10.26337
 Alpha  occ. eigenvalues --  -10.26258 -10.26099 -10.25808 -10.25805 -10.25712
 Alpha  occ. eigenvalues --  -10.25662 -10.25577 -10.25145 -10.24995 -10.24908
 Alpha  occ. eigenvalues --  -10.24861 -10.24311 -10.24142 -10.23759 -10.23624
 Alpha  occ. eigenvalues --  -10.23451 -10.23296  -1.09645  -1.06992  -0.94639
 Alpha  occ. eigenvalues --   -0.94531  -0.92380  -0.91464  -0.89847  -0.89152
 Alpha  occ. eigenvalues --   -0.88188  -0.87960  -0.86911  -0.86165  -0.84927
 Alpha  occ. eigenvalues --   -0.83346  -0.82208  -0.81479  -0.80323  -0.78757
 Alpha  occ. eigenvalues --   -0.77007  -0.76606  -0.76370  -0.75993  -0.75800
 Alpha  occ. eigenvalues --   -0.75401  -0.74674  -0.74462  -0.73099  -0.69890
 Alpha  occ. eigenvalues --   -0.68411  -0.67254  -0.65926  -0.64645  -0.63598
 Alpha  occ. eigenvalues --   -0.63469  -0.63218  -0.62043  -0.60787  -0.60234
 Alpha  occ. eigenvalues --   -0.59881  -0.59221  -0.58755  -0.58254  -0.56907
 Alpha  occ. eigenvalues --   -0.56089  -0.54992  -0.54800  -0.54453  -0.54158
 Alpha  occ. eigenvalues --   -0.53460  -0.53225  -0.52244  -0.51906  -0.51308
 Alpha  occ. eigenvalues --   -0.50970  -0.50188  -0.49822  -0.49152  -0.48992
 Alpha  occ. eigenvalues --   -0.48829  -0.48654  -0.48321  -0.48023  -0.47260
 Alpha  occ. eigenvalues --   -0.47133  -0.46930  -0.46681  -0.46496  -0.46251
 Alpha  occ. eigenvalues --   -0.46056  -0.45792  -0.45514  -0.45146  -0.44807
 Alpha  occ. eigenvalues --   -0.44702  -0.44582  -0.44044  -0.43729  -0.43338
 Alpha  occ. eigenvalues --   -0.43098  -0.42790  -0.42275  -0.42120  -0.41844
 Alpha  occ. eigenvalues --   -0.41736  -0.41637  -0.41186  -0.40575  -0.40354
 Alpha  occ. eigenvalues --   -0.40053  -0.39789  -0.39691  -0.39604  -0.39095
 Alpha  occ. eigenvalues --   -0.39008  -0.38727  -0.38684  -0.38494  -0.38294
 Alpha  occ. eigenvalues --   -0.37912  -0.37283  -0.36554  -0.36326  -0.36218
 Alpha  occ. eigenvalues --   -0.35919  -0.34942  -0.33749  -0.32258  -0.32102
 Alpha  occ. eigenvalues --   -0.31217  -0.29780  -0.28674  -0.26015  -0.23799
 Alpha  occ. eigenvalues --   -0.19567
 Alpha virt. eigenvalues --   -0.05275  -0.00546   0.02319   0.05662   0.07578
 Alpha virt. eigenvalues --    0.09100   0.10581   0.11099   0.11704   0.11989
 Alpha virt. eigenvalues --    0.12493   0.12599   0.12784   0.13144   0.13933

 Mulliken charges:
               1
     1  O   -0.548430
     2  O   -0.576051
     3  C    0.017181
     4  C   -0.150914
     5  C   -0.182265
     6  C    0.170085
     7  C    0.123049
     8  C   -0.022867
     9  C   -0.273742
    10  C   -0.283590
    11  C   -0.197399
    12  C   -0.136541
    13  C    0.186162
    14  C    0.076489
    15  C   -0.042749
    16  C   -0.225104
    17  C    0.072737
    18  C   -0.314727
    19  C   -0.295037
    20  C   -0.352156
    21  C   -0.109512
    22  C   -0.083229
    23  C   -0.366068
    24  C    0.104920
    25  C   -0.131556
    26  C   -0.381969
    27  C    0.026982
    28  C   -0.107042
    29  C   -0.362278
    30  C   -0.087059
    31  C   -0.055626
    32  C   -0.091929
    33  C   -0.127449
    34  C    0.034558
    35  C   -0.126363
    36  C    0.135096
    37  C   -0.319193
    38  C   -0.063789
    39  C   -0.084627
    40  C   -0.379511
    41  C   -0.091324
    42  C   -0.113004
    43  H    0.053584
    44  H    0.101716
    45  H    0.097774
    46  H    0.041493
    47  H    0.097811
    48  H    0.100727
    49  H    0.098742
    50  H    0.122072
    51  H    0.087380
    52  H    0.060190
    53  H    0.105460
    54  H    0.088473
    55  H    0.066038
    56  H    0.081478
    57  H    0.085907
    58  H    0.098097
    59  H    0.083898
    60  H    0.108223
    61  H    0.096188
    62  H    0.106417
    63  H    0.114604
    64  H    0.095873
    65  H    0.081801
    66  H    0.125783
    67  H    0.113534
    68  H    0.105399
    69  H    0.305314
    70  H    0.093649
    71  H    0.054733
    72  H    0.118850
    73  H    0.115563
    74  H    0.095546
    75  H    0.303450
    76  H    0.101179
    77  H    0.099082
    78  H    0.109398
    79  H    0.129189
    80  H    0.086976
    81  H    0.122492
    82  H    0.129115
    83  H    0.095731
    84  H    0.069679
    85  H    0.095928
    86  H    0.070199
    87  H    0.075907
    88  H    0.079134
    89  H    0.117694
    90  H    0.113873
    91  H    0.107548
    92  H    0.066380
    93  H    0.067598
    94  H    0.100147
    95  H    0.112338
    96  H    0.129931
    97  H    0.075733
    98  H    0.074820
 Sum of Mulliken charges =  -0.00000

 Dipole moment (field-independent basis, Debye):
    X=             -0.6357    Y=             -0.0952    Z=              0.0911  Tot=              0.6492
 Quadrupole moment (field-independent basis, Debye-Ang):
   XX=           -284.3880   YY=           -242.7721   ZZ=           -263.4751
   XY=              9.5866   XZ=             41.6506   YZ=              3.9186

 Normal termination of Gaussian 16 at Mon Jul 15 18:05:10 2019.
