 Gaussian 16, Revision A.03,
 Gaussian 16:  ES64L-G16RevA.03 25-Dec-2016

 -------------------------------------
 # td=(NStates=1) CAM-B3LYP/6-31G(d,p)
 -------------------------------------

 --
 TD
 --
 Symbolic Z-matrix:
 Charge =  0 Multiplicity = 1

                         Standard orientation:
 ---------------------------------------------------------------------
 Center     Atomic      Atomic             Coordinates (Angstroms)
 Number     Number       Type             X           Y           Z
 ---------------------------------------------------------------------
      1          8           0      -14.042836   -1.988240    0.581067
      2          8           0       14.865412    0.796748    0.348213
      3          6           0      -11.748388   -0.002502    1.345226
      4          6           0      -10.903929    0.300701    0.080374
      5          6           0      -11.891333   -1.439307    1.560292
      6          6           0      -12.630319   -2.147875    0.460476
      7          6           0      -11.538005   -0.485438   -1.084748
      8          6           0       11.136411    0.815410    1.267817
      9          6           0      -10.925775    0.705353    2.541290
     10          6           0      -13.062816    0.734031    1.327015
     11          6           0       12.503080    1.349820    1.110674
     12          6           0      -12.181683   -1.654382   -0.924365
     13          6           0       13.506103    0.366036    0.412954
     14          6           0       10.694867   -0.023514    0.074353
     15          6           0       -9.458406   -0.214270    0.127324
     16          6           0       12.969588   -0.216896   -0.884285
     17          6           0       11.520474   -0.428493   -0.973774
     18          6           0       10.203292    2.077780    1.416546
     19          6           0       11.061726    0.041667    2.564628
     20          6           0      -11.248690    0.056638   -2.462582
     21          6           0       -8.565909    0.699694   -0.212005
     22          6           0        9.272418   -0.378153    0.095370
     23          6           0       10.924285   -1.244983   -2.084794
     24          6           0       -7.085881    0.459382   -0.239943
     25          6           0        8.709367   -1.608520   -0.101952
     26          6           0       -6.555862   -0.945469    0.230996
     27          6           0        7.347542   -2.053412   -0.110788
     28          6           0       -6.267917    1.464278   -0.486317
     29          6           0        7.050680   -3.516048   -0.051919
     30          6           0        6.342842   -1.166298   -0.245004
     31          6           0       -4.773413    1.501153   -0.553359
     32          6           0        5.020791   -1.502713   -0.106981
     33          6           0       -3.996957    2.642743   -0.770334
     34          6           0       -2.644030    2.757334   -0.842795
     35          6           0        4.018014   -0.540775   -0.295374
     36          6           0        2.637079   -0.762382   -0.525116
     37          6           0       -2.001657    4.144522   -1.080074
     38          6           0       -1.769369    1.529041   -0.707457
     39          6           0        1.710538    0.326081   -0.478227
     40          6           0        2.105727   -2.125376   -0.460159
     41          6           0       -0.445782    1.484327   -0.723635
     42          6           0        0.340700    0.352620   -0.534401
     43          1           0      -10.855124    1.463119    0.040943
     44          1           0      -12.751087   -1.538034    2.624904
     45          1           0      -11.034169   -2.048965    1.764164
     46          1           0      -12.303307   -3.237374    0.565223
     47          1           0       -9.807398    0.350415    2.599982
     48          1           0      -10.990321    1.812283    2.399085
     49          1           0      -11.542564    0.247469    3.509350
     50          1           0      -14.125898    0.482644    0.668186
     51          1           0      -13.581521    0.814007    2.364143
     52          1           0      -12.857426    1.792400    1.368063
     53          1           0       12.359277    2.133602    0.408435
     54          1           0       13.094432    1.918699    1.976964
     55          1           0      -12.676340   -2.059153   -1.842718
     56          1           0       13.582227   -0.501639    1.085962
     57          1           0       -9.544054   -1.224053    0.163093
     58          1           0       13.578568   -1.210936   -1.037641
     59          1           0       13.269554    0.575579   -1.519669
     60          1           0        9.333938    1.770513    1.699179
     61          1           0       10.255591    2.817155    0.536314
     62          1           0       10.640920    2.816867    2.198842
     63          1           0       11.559544   -0.842915    2.504619
     64          1           0        9.847795   -0.250923    2.751813
     65          1           0       11.568434    0.791886    3.277802
     66          1           0      -10.335802    0.403363   -2.514387
     67          1           0      -12.084063    0.877823   -2.532285
     68          1           0      -11.672907   -0.541304   -3.212257
     69          1           0      -14.675235   -2.306711    0.018190
     70          1           0        8.618324    0.540892    0.522178
     71          1           0       -8.894018    1.764939   -0.391323
     72          1           0       11.556689   -2.191239   -2.248094
     73          1           0        9.831894   -1.354826   -2.138660
     74          1           0       11.389741   -0.593910   -2.838597
     75          1           0       15.008184    1.138842    1.153139
     76          1           0        9.438126   -2.398568   -0.181384
     77          1           0       -5.441382   -0.831440    0.241966
     78          1           0       -7.017390   -1.072417    1.269705
     79          1           0       -7.015964   -1.848946   -0.432975
     80          1           0       -6.761611    2.472388   -0.665361
     81          1           0        6.656767   -3.899231    0.861236
     82          1           0        6.530949   -3.694392   -0.884664
     83          1           0        8.037922   -4.074718   -0.335708
     84          1           0        6.599595   -0.141392   -0.615843
     85          1           0       -4.286033    0.599877   -0.346419
     86          1           0        4.667688   -2.462761    0.081783
     87          1           0       -4.450611    3.627320   -0.700972
     88          1           0        4.177389    0.596462   -0.449864
     89          1           0       -1.225712    4.290199   -2.058416
     90          1           0       -1.413153    4.274755   -0.317852
     91          1           0       -2.924121    5.040352   -1.182641
     92          1           0       -2.262937    0.639196   -0.443957
     93          1           0        2.172067    1.337199   -0.564717
     94          1           0        1.962656   -2.519759    0.641779
     95          1           0        1.092980   -2.228544   -0.864995
     96          1           0        2.744546   -2.809458   -1.099174
     97          1           0        0.299814    2.443860   -0.751186
     98          1           0       -0.202479   -0.529383   -0.609206
 ---------------------------------------------------------------------

 SCF Done:  E(RCAM-B3LYP) =  -1706.89476603     A.U. after   17 cycles

 Excitation energies and oscillator strengths:

 Excited State   1:      Singlet-A      1.7333 eV  715.32 nm  f=2.8052  <S**2>=0.000
     155 ->158        -0.12028
     156 ->157         0.70936
     156 <-157        -0.14811
 This state for optimization and/or second-order correction.
 Total Energy, E(TD-HF/TD-DFT) =  -1706.83106945
 Copying the excited state density for this state as the 1-particle RhoCI density.

 The electronic state is 1-A.
 Alpha  occ. eigenvalues --  -19.20709 -19.19805 -10.31530 -10.30393 -10.28667
 Alpha  occ. eigenvalues --  -10.28113 -10.27951 -10.27459 -10.27305 -10.27246
 Alpha  occ. eigenvalues --  -10.27194 -10.27092 -10.27079 -10.26974 -10.26803
 Alpha  occ. eigenvalues --  -10.26750 -10.26722 -10.26672 -10.26666 -10.26567
 Alpha  occ. eigenvalues --  -10.26523 -10.26462 -10.26445 -10.26417 -10.26336
 Alpha  occ. eigenvalues --  -10.26193 -10.26065 -10.26031 -10.25895 -10.25660
 Alpha  occ. eigenvalues --  -10.25637 -10.25637 -10.25575 -10.25554 -10.25465
 Alpha  occ. eigenvalues --  -10.25458 -10.25026 -10.24978 -10.24823 -10.24819
 Alpha  occ. eigenvalues --  -10.24625 -10.24073  -1.11318  -1.09179  -0.94218
 Alpha  occ. eigenvalues --   -0.94106  -0.92391  -0.91800  -0.90779  -0.89868
 Alpha  occ. eigenvalues --   -0.88200  -0.87724  -0.86750  -0.85653  -0.85196
 Alpha  occ. eigenvalues --   -0.83259  -0.82227  -0.80756  -0.80307  -0.79049
 Alpha  occ. eigenvalues --   -0.76577  -0.76402  -0.76069  -0.75964  -0.75824
 Alpha  occ. eigenvalues --   -0.75501  -0.74735  -0.72747  -0.72546  -0.71049
 Alpha  occ. eigenvalues --   -0.69385  -0.68469  -0.66899  -0.64974  -0.64492
 Alpha  occ. eigenvalues --   -0.63638  -0.62309  -0.61525  -0.60659  -0.60555
 Alpha  occ. eigenvalues --   -0.59924  -0.59235  -0.58444  -0.57889  -0.56323
 Alpha  occ. eigenvalues --   -0.55868  -0.55046  -0.54763  -0.54348  -0.53743
 Alpha  occ. eigenvalues --   -0.53288  -0.52885  -0.52676  -0.52241  -0.51726
 Alpha  occ. eigenvalues --   -0.51352  -0.50689  -0.50398  -0.49737  -0.49654
 Alpha  occ. eigenvalues --   -0.49179  -0.48616  -0.48395  -0.47917  -0.47831
 Alpha  occ. eigenvalues --   -0.47618  -0.47054  -0.46867  -0.46789  -0.46307
 Alpha  occ. eigenvalues --   -0.46123  -0.45869  -0.45299  -0.44592  -0.44516
 Alpha  occ. eigenvalues --   -0.44326  -0.43805  -0.43774  -0.43662  -0.42916
 Alpha  occ. eigenvalues --   -0.42776  -0.42528  -0.42192  -0.42055  -0.41835
 Alpha  occ. eigenvalues --   -0.41428  -0.41054  -0.41024  -0.40814  -0.40720
 Alpha  occ. eigenvalues --   -0.40284  -0.40129  -0.39780  -0.39583  -0.39412
 Alpha  occ. eigenvalues --   -0.38952  -0.38856  -0.38616  -0.38292  -0.37864
 Alpha  occ. eigenvalues --   -0.37662  -0.37292  -0.36808  -0.35959  -0.35829
 Alpha  occ. eigenvalues --   -0.35366  -0.34396  -0.32909  -0.31935  -0.31657
 Alpha  occ. eigenvalues --   -0.31362  -0.29427  -0.28423  -0.27042  -0.23819
 Alpha  occ. eigenvalues --   -0.18231
 Alpha virt. eigenvalues --   -0.07610  -0.00911   0.02981   0.05421   0.07548
 Alpha virt. eigenvalues --    0.08813   0.10670   0.11411   0.11664   0.11787
 Alpha virt. eigenvalues --    0.12785   0.13102   0.13651   0.13842   0.14054

 Mulliken charges:
               1
     1  O   -0.553565
     2  O   -0.542320
     3  C    0.035700
     4  C   -0.156190
     5  C   -0.167989
     6  C    0.178974
     7  C    0.114589
     8  C   -0.031507
     9  C   -0.296418
    10  C   -0.281713
    11  C   -0.206564
    12  C   -0.159213
    13  C    0.154332
    14  C    0.055227
    15  C   -0.038871
    16  C   -0.235243
    17  C    0.066597
    18  C   -0.293195
    19  C   -0.257217
    20  C   -0.332734
    21  C   -0.107214
    22  C   -0.133012
    23  C   -0.354157
    24  C    0.101310
    25  C   -0.127219
    26  C   -0.349728
    27  C    0.080564
    28  C   -0.127048
    29  C   -0.372496
    30  C   -0.097994
    31  C   -0.081751
    32  C   -0.098296
    33  C   -0.115092
    34  C    0.081398
    35  C   -0.106963
    36  C    0.101232
    37  C   -0.342910
    38  C   -0.120687
    39  C   -0.126290
    40  C   -0.378154
    41  C   -0.060143
    42  C   -0.070818
    43  H    0.076846
    44  H    0.061890
    45  H    0.101983
    46  H    0.066951
    47  H    0.097637
    48  H    0.100337
    49  H    0.078661
    50  H    0.103830
    51  H    0.084478
    52  H    0.087345
    53  H    0.103681
    54  H    0.065885
    55  H    0.069099
    56  H    0.070276
    57  H    0.097005
    58  H    0.108410
    59  H    0.127270
    60  H    0.112733
    61  H    0.099295
    62  H    0.083925
    63  H    0.116209
    64  H    0.074153
    65  H    0.091077
    66  H    0.123288
    67  H    0.100160
    68  H    0.111281
    69  H    0.296616
    70  H    0.074611
    71  H    0.089936
    72  H    0.104377
    73  H    0.138053
    74  H    0.110222
    75  H    0.296235
    76  H    0.086928
    77  H    0.107262
    78  H    0.121993
    79  H    0.104971
    80  H    0.073584
    81  H    0.132423
    82  H    0.140061
    83  H    0.090211
    84  H    0.090405
    85  H    0.080917
    86  H    0.094945
    87  H    0.079955
    88  H    0.072519
    89  H    0.099962
    90  H    0.149319
    91  H    0.080483
    92  H    0.083795
    93  H    0.068493
    94  H    0.113231
    95  H    0.111820
    96  H    0.107755
    97  H    0.065405
    98  H    0.072595
 Sum of Mulliken charges =  -0.00000

 Dipole moment (field-independent basis, Debye):
    X=             -1.1489    Y=             -0.6289    Z=             -0.2067  Tot=              1.3259
 Quadrupole moment (field-independent basis, Debye-Ang):
   XX=           -272.5193   YY=           -243.3712   ZZ=           -266.8896
   XY=              6.0168   XZ=             29.9399   YZ=              3.9383

 Normal termination of Gaussian 16 at Tue Jul 16 03:30:19 2019.
