 Gaussian 16, Revision A.03,
 Gaussian 16:  ES64L-G16RevA.03 25-Dec-2016

 -------------------------------------
 # td=(NStates=1) CAM-B3LYP/6-31G(d,p)
 -------------------------------------

 --
 TD
 --
 Symbolic Z-matrix:
 Charge =  0 Multiplicity = 1

                         Standard orientation:
 ---------------------------------------------------------------------
 Center     Atomic      Atomic             Coordinates (Angstroms)
 Number     Number       Type             X           Y           Z
 ---------------------------------------------------------------------
      1          8           0      -14.036348   -2.207106    0.422007
      2          8           0       14.892502    0.944807   -0.166903
      3          6           0      -11.826909    0.088890    1.288185
      4          6           0      -11.110945    0.374503   -0.074384
      5          6           0      -11.925522   -1.515277    1.474171
      6          6           0      -12.645406   -2.202051    0.257531
      7          6           0      -11.682518   -0.418242   -1.241527
      8          6           0       11.094887    1.040057    1.036547
      9          6           0      -11.101975    0.691979    2.420078
     10          6           0      -13.209430    0.687266    1.099794
     11          6           0       12.639723    1.477146    0.665172
     12          6           0      -12.323267   -1.632604   -1.197114
     13          6           0       13.553153    0.360586    0.295392
     14          6           0       10.744691   -0.002453    0.059578
     15          6           0       -9.605563    0.072275   -0.014593
     16          6           0       13.036659   -0.271367   -1.057196
     17          6           0       11.499965   -0.621428   -0.907787
     18          6           0       10.256387    2.430419    1.018654
     19          6           0       11.075225    0.492556    2.430672
     20          6           0      -11.324702    0.154147   -2.534369
     21          6           0       -8.693004    1.028471   -0.167595
     22          6           0        9.219626   -0.400681    0.108181
     23          6           0       11.103870   -1.480238   -2.090176
     24          6           0       -7.209348    0.641299   -0.094127
     25          6           0        8.829031   -1.702621    0.000190
     26          6           0       -6.836312   -0.823401    0.131626
     27          6           0        7.481259   -2.138282   -0.024141
     28          6           0       -6.290138    1.684086   -0.214344
     29          6           0        7.265076   -3.556136    0.351913
     30          6           0        6.367812   -1.303686   -0.100873
     31          6           0       -4.856195    1.443510   -0.384786
     32          6           0        5.021423   -1.540080   -0.005625
     33          6           0       -3.990845    2.580414   -0.614959
     34          6           0       -2.538316    2.670117   -0.609943
     35          6           0        3.987145   -0.665187   -0.064634
     36          6           0        2.606873   -0.880793    0.025219
     37          6           0       -1.885429    4.006294   -0.950724
     38          6           0       -1.799028    1.485456   -0.420823
     39          6           0        1.757350    0.232019   -0.247724
     40          6           0        2.145187   -2.329114    0.171986
     41          6           0       -0.459650    1.354053   -0.585349
     42          6           0        0.400677    0.249640   -0.272051
     43          1           0      -11.063831    1.390279   -0.318031
     44          1           0      -12.423875   -1.632603    2.281355
     45          1           0      -11.144906   -2.079455    1.904745
     46          1           0      -11.974163   -3.267047    0.298515
     47          1           0      -10.177152    0.111550    2.447494
     48          1           0      -10.702897    1.747278    2.282716
     49          1           0      -11.708686    0.966534    3.356318
     50          1           0      -13.522098    0.623629    0.054437
     51          1           0      -13.975097    0.429460    1.929153
     52          1           0      -12.912888    1.815601    1.178654
     53          1           0       12.581834    2.178154   -0.399415
     54          1           0       12.924703    2.127755    1.595362
     55          1           0      -12.617437   -2.341692   -2.035124
     56          1           0       13.627228   -0.357544    0.917712
     57          1           0       -9.135058   -0.863183    0.031704
     58          1           0       13.614363   -1.163810   -1.115637
     59          1           0       13.130611    0.373357   -1.847438
     60          1           0        9.126790    2.143081    1.253224
     61          1           0       10.407999    2.803006   -0.023775
     62          1           0       10.886103    2.863887    1.771831
     63          1           0       11.814946   -0.274289    2.543554
     64          1           0        9.905469    0.191307    2.593459
     65          1           0       11.492225    1.309653    3.341080
     66          1           0      -10.190873   -0.054796   -2.779764
     67          1           0      -11.578502    1.200663   -2.673121
     68          1           0      -12.027585   -0.250041   -3.244793
     69          1           0      -14.494483   -2.600224   -0.277831
     70          1           0        8.595475    0.381210    0.294546
     71          1           0       -8.757542    2.253522   -0.380061
     72          1           0       11.396852   -2.461830   -1.885527
     73          1           0       10.073316   -1.575585   -2.285034
     74          1           0       11.477628   -1.094476   -3.023433
     75          1           0       15.189372    1.275176    0.598982
     76          1           0        9.665113   -2.598297   -0.171528
     77          1           0       -5.606227   -1.038036    0.011366
     78          1           0       -7.135765   -1.292796    1.018568
     79          1           0       -7.280453   -1.634238   -0.567117
     80          1           0       -6.606525    2.764765   -0.299721
     81          1           0        6.976423   -3.793596    1.288189
     82          1           0        6.450038   -4.461077   -0.121782
     83          1           0        8.125408   -4.211190    0.303291
     84          1           0        6.667301   -0.166279   -0.340536
     85          1           0       -4.562567    0.630543   -0.345952
     86          1           0        4.798649   -2.604707    0.034866
     87          1           0       -4.566390    3.537352   -0.670213
     88          1           0        4.594973    0.229175   -0.351409
     89          1           0       -1.359260    3.831557   -1.903998
     90          1           0       -1.187422    4.119661   -0.164345
     91          1           0       -2.714304    4.657209   -0.697683
     92          1           0       -2.355859    0.466098   -0.375588
     93          1           0        2.455982    1.255813   -0.336488
     94          1           0        2.879051   -2.903224    0.915221
     95          1           0        1.114930   -2.272904    0.475561
     96          1           0        2.190388   -2.837434   -0.923334
     97          1           0        0.291608    2.324634   -0.800148
     98          1           0       -0.151269   -0.642420   -0.164156
 ---------------------------------------------------------------------

 SCF Done:  E(RCAM-B3LYP) =  -1706.79994084     A.U. after   16 cycles

 Excitation energies and oscillator strengths:

 Excited State   1:      Singlet-A      1.8794 eV  659.71 nm  f=3.0059  <S**2>=0.000
     155 ->158         0.13070
     156 ->157         0.70208
     156 <-157        -0.12278
 This state for optimization and/or second-order correction.
 Total Energy, E(TD-HF/TD-DFT) =  -1706.73087558
 Copying the excited state density for this state as the 1-particle RhoCI density.

 The electronic state is 1-A.
 Alpha  occ. eigenvalues --  -19.21444 -19.19981 -10.32625 -10.29626 -10.28861
 Alpha  occ. eigenvalues --  -10.28296 -10.28214 -10.28010 -10.27975 -10.27885
 Alpha  occ. eigenvalues --  -10.27885 -10.27798 -10.27628 -10.27601 -10.27562
 Alpha  occ. eigenvalues --  -10.27513 -10.27458 -10.27441 -10.27371 -10.27257
 Alpha  occ. eigenvalues --  -10.26852 -10.26718 -10.26718 -10.26668 -10.26594
 Alpha  occ. eigenvalues --  -10.26583 -10.26379 -10.26341 -10.26313 -10.25914
 Alpha  occ. eigenvalues --  -10.25765 -10.25747 -10.25710 -10.25695 -10.25655
 Alpha  occ. eigenvalues --  -10.25113 -10.24854 -10.24504 -10.24452 -10.24366
 Alpha  occ. eigenvalues --  -10.23971 -10.23476  -1.10736  -1.08334  -0.93401
 Alpha  occ. eigenvalues --   -0.93034  -0.92040  -0.91400  -0.90315  -0.89661
 Alpha  occ. eigenvalues --   -0.87240  -0.86988  -0.86600  -0.85575  -0.84441
 Alpha  occ. eigenvalues --   -0.83103  -0.82276  -0.80513  -0.80353  -0.79085
 Alpha  occ. eigenvalues --   -0.76541  -0.76504  -0.76289  -0.75634  -0.75329
 Alpha  occ. eigenvalues --   -0.75248  -0.74610  -0.74409  -0.72703  -0.70862
 Alpha  occ. eigenvalues --   -0.69239  -0.67914  -0.66709  -0.65709  -0.64234
 Alpha  occ. eigenvalues --   -0.63569  -0.62301  -0.61875  -0.60540  -0.60262
 Alpha  occ. eigenvalues --   -0.59733  -0.59216  -0.58423  -0.57605  -0.56539
 Alpha  occ. eigenvalues --   -0.55006  -0.54678  -0.54206  -0.53491  -0.52967
 Alpha  occ. eigenvalues --   -0.52911  -0.52348  -0.52079  -0.51680  -0.51600
 Alpha  occ. eigenvalues --   -0.51252  -0.50740  -0.50349  -0.49960  -0.49775
 Alpha  occ. eigenvalues --   -0.49066  -0.48501  -0.47887  -0.47409  -0.47271
 Alpha  occ. eigenvalues --   -0.47224  -0.47066  -0.46922  -0.46778  -0.46404
 Alpha  occ. eigenvalues --   -0.46005  -0.45802  -0.44934  -0.44573  -0.44415
 Alpha  occ. eigenvalues --   -0.44330  -0.44286  -0.43800  -0.43501  -0.43366
 Alpha  occ. eigenvalues --   -0.42924  -0.42618  -0.42403  -0.42256  -0.42094
 Alpha  occ. eigenvalues --   -0.42014  -0.41532  -0.41151  -0.40548  -0.40350
 Alpha  occ. eigenvalues --   -0.40258  -0.40227  -0.39650  -0.39099  -0.39067
 Alpha  occ. eigenvalues --   -0.39007  -0.38873  -0.38150  -0.37589  -0.37455
 Alpha  occ. eigenvalues --   -0.37082  -0.36771  -0.36312  -0.36228  -0.35575
 Alpha  occ. eigenvalues --   -0.35248  -0.34436  -0.33908  -0.32329  -0.32046
 Alpha  occ. eigenvalues --   -0.30793  -0.29289  -0.28706  -0.27179  -0.24071
 Alpha  occ. eigenvalues --   -0.18645
 Alpha virt. eigenvalues --   -0.07073  -0.01077   0.02694   0.05516   0.06969
 Alpha virt. eigenvalues --    0.08323   0.10400   0.10970   0.11433   0.12020
 Alpha virt. eigenvalues --    0.12402   0.12668   0.12893   0.13425   0.13592

 Mulliken charges:
               1
     1  O   -0.522419
     2  O   -0.548548
     3  C    0.039602
     4  C   -0.106823
     5  C   -0.179449
     6  C    0.153762
     7  C    0.092781
     8  C   -0.074976
     9  C   -0.312591
    10  C   -0.281298
    11  C   -0.181361
    12  C   -0.150677
    13  C    0.130027
    14  C    0.082244
    15  C   -0.108492
    16  C   -0.204448
    17  C   -0.000054
    18  C   -0.272175
    19  C   -0.256130
    20  C   -0.354428
    21  C   -0.063869
    22  C   -0.119684
    23  C   -0.357735
    24  C    0.107019
    25  C   -0.104492
    26  C   -0.389900
    27  C    0.116874
    28  C   -0.148879
    29  C   -0.385762
    30  C   -0.128098
    31  C    0.045074
    32  C   -0.078405
    33  C   -0.145045
    34  C    0.056541
    35  C   -0.088534
    36  C    0.079455
    37  C   -0.352671
    38  C   -0.104532
    39  C   -0.095858
    40  C   -0.351448
    41  C   -0.089567
    42  C   -0.096180
    43  H    0.094408
    44  H    0.116300
    45  H    0.090468
    46  H    0.026977
    47  H    0.107235
    48  H    0.089095
    49  H    0.097642
    50  H    0.112206
    51  H    0.101416
    52  H    0.067774
    53  H    0.076548
    54  H    0.067153
    55  H    0.092581
    56  H    0.097369
    57  H    0.084999
    58  H    0.111593
    59  H    0.133013
    60  H    0.092884
    61  H    0.113481
    62  H    0.119685
    63  H    0.111623
    64  H    0.098320
    65  H    0.054085
    66  H    0.116929
    67  H    0.107412
    68  H    0.106814
    69  H    0.303714
    70  H    0.084466
    71  H    0.077082
    72  H    0.122641
    73  H    0.124384
    74  H    0.114754
    75  H    0.290016
    76  H    0.083673
    77  H    0.088826
    78  H    0.144680
    79  H    0.116513
    80  H    0.085499
    81  H    0.146324
    82  H    0.062804
    83  H    0.106207
    84  H    0.055949
    85  H    0.004281
    86  H    0.070977
    87  H    0.069979
    88  H    0.071232
    89  H    0.144901
    90  H    0.136571
    91  H    0.116527
    92  H    0.080165
    93  H    0.079070
    94  H    0.113735
    95  H    0.117605
    96  H    0.115551
    97  H    0.057122
    98  H    0.077896
 Sum of Mulliken charges =  -0.00000

 Dipole moment (field-independent basis, Debye):
    X=             -1.4530    Y=             -1.0691    Z=              0.1425  Tot=              1.8095
 Quadrupole moment (field-independent basis, Debye-Ang):
   XX=           -278.8865   YY=           -244.8922   ZZ=           -263.2101
   XY=             -0.2803   XZ=             35.3757   YZ=              2.0213

 Normal termination of Gaussian 16 at Fri Jul 12 20:55:28 2019.
