 Gaussian 16, Revision A.03,
 Gaussian 16:  ES64L-G16RevA.03 25-Dec-2016

 -------------------------------------
 # td=(NStates=1) CAM-B3LYP/6-31G(d,p)
 -------------------------------------

 --
 TD
 --
 Symbolic Z-matrix:
 Charge =  0 Multiplicity = 1

                         Standard orientation:
 ---------------------------------------------------------------------
 Center     Atomic      Atomic             Coordinates (Angstroms)
 Number     Number       Type             X           Y           Z
 ---------------------------------------------------------------------
      1          8           0      -14.041070   -2.241165    0.519609
      2          8           0       14.791943    0.853429    0.124164
      3          6           0      -11.812513    0.096843    1.288628
      4          6           0      -10.962812    0.299118   -0.067647
      5          6           0      -11.899403   -1.436065    1.434096
      6          6           0      -12.670654   -2.058854    0.253034
      7          6           0      -11.609864   -0.366338   -1.285239
      8          6           0       11.136794    0.981542    0.953201
      9          6           0      -11.038394    0.632513    2.380662
     10          6           0      -13.264334    0.779768    1.068444
     11          6           0       12.539542    1.548351    0.640306
     12          6           0      -12.290427   -1.477376   -1.130905
     13          6           0       13.520802    0.372894    0.377611
     14          6           0       10.590763   -0.081225   -0.044418
     15          6           0       -9.583567   -0.024669    0.006147
     16          6           0       12.976221   -0.255712   -0.945418
     17          6           0       11.551315   -0.487507   -0.900618
     18          6           0       10.253483    2.236502    0.977547
     19          6           0       11.207457    0.280615    2.486340
     20          6           0      -11.236613    0.238131   -2.664849
     21          6           0       -8.540763    0.838420   -0.128807
     22          6           0        9.233877   -0.439784    0.123107
     23          6           0       11.123473   -1.548464   -2.030647
     24          6           0       -7.062463    0.528228    0.053914
     25          6           0        8.757097   -1.755012   -0.020100
     26          6           0       -6.813497   -0.958652    0.396177
     27          6           0        7.402874   -2.071084    0.022947
     28          6           0       -6.103244    1.436472   -0.264134
     29          6           0        7.113533   -3.556486    0.153352
     30          6           0        6.362011   -1.221600   -0.131909
     31          6           0       -4.741665    1.456931   -0.212816
     32          6           0        4.972422   -1.509620   -0.124610
     33          6           0       -4.080994    2.565786   -0.557081
     34          6           0       -2.584817    2.594790   -0.571430
     35          6           0        4.030484   -0.503001   -0.287251
     36          6           0        2.632211   -0.716624   -0.308212
     37          6           0       -1.910775    3.910565   -0.992462
     38          6           0       -1.766183    1.478255   -0.437978
     39          6           0        1.726671    0.407200   -0.312784
     40          6           0        2.090229   -2.086371   -0.097372
     41          6           0       -0.422721    1.510654   -0.560788
     42          6           0        0.370745    0.386442   -0.348103
     43          1           0      -10.931168    1.361674   -0.398798
     44          1           0      -12.447162   -1.652246    2.439379
     45          1           0      -10.999043   -2.052470    1.716682
     46          1           0      -12.236620   -3.312725    0.087691
     47          1           0       -9.910968    0.264866    2.433317
     48          1           0      -10.706334    1.762909    2.501578
     49          1           0      -11.544907    0.328108    3.213308
     50          1           0      -13.836738    0.538558    0.045771
     51          1           0      -13.787209    0.579248    2.067767
     52          1           0      -13.177205    1.815919    0.974182
     53          1           0       12.545271    2.290604    0.071884
     54          1           0       12.931591    1.899109    1.728566
     55          1           0      -12.815144   -2.021877   -1.935534
     56          1           0       13.374753   -0.339084    1.169374
     57          1           0       -9.347747   -0.861797    0.399303
     58          1           0       13.726245   -1.096388   -0.994306
     59          1           0       13.333386    0.401036   -1.931284
     60          1           0        9.272596    1.903842    1.412442
     61          1           0       10.396519    2.600464    0.014944
     62          1           0       10.818492    2.900929    1.624260
     63          1           0       11.781324   -0.672141    2.544895
     64          1           0       10.149630    0.143522    2.737237
     65          1           0       11.684747    0.970946    3.120017
     66          1           0      -10.141846    0.030499   -2.944731
     67          1           0      -11.305501    1.289978   -2.834739
     68          1           0      -11.753398   -0.218283   -3.491790
     69          1           0      -14.561125   -3.075211   -0.035098
     70          1           0        8.449370    0.268683    0.506008
     71          1           0       -8.781485    1.922603   -0.348609
     72          1           0       11.457199   -2.542132   -1.709055
     73          1           0       10.047012   -1.627459   -2.161634
     74          1           0       11.817401   -1.383708   -2.869578
     75          1           0       15.175482    1.292903    0.916364
     76          1           0        9.700750   -2.391599   -0.044590
     77          1           0       -5.849433   -1.242106    0.759769
     78          1           0       -7.388666   -1.316211    1.388987
     79          1           0       -7.410974   -1.434088   -0.364069
     80          1           0       -6.620579    2.334262   -0.298237
     81          1           0        6.967894   -3.612368    1.188634
     82          1           0        6.218953   -3.757420   -0.442277
     83          1           0        8.147270   -4.124020   -0.275880
     84          1           0        6.535032   -0.131725   -0.340070
     85          1           0       -4.085321    0.447944   -0.059225
     86          1           0        4.536606   -2.416947    0.079983
     87          1           0       -4.713354    3.465808   -0.646328
     88          1           0        4.386490    0.577232   -0.625866
     89          1           0       -1.259994    3.789941   -1.819871
     90          1           0       -1.433173    4.197531   -0.088037
     91          1           0       -2.765989    4.685892   -1.179919
     92          1           0       -2.380514    0.561021   -0.217849
     93          1           0        2.183060    1.515461   -0.360706
     94          1           0        2.093293   -2.742743    0.860787
     95          1           0        0.955628   -2.185818   -0.188045
     96          1           0        2.558114   -2.810904   -0.723506
     97          1           0        0.013760    2.407245   -0.855475
     98          1           0       -0.251064   -0.578828   -0.107812
 ---------------------------------------------------------------------

 SCF Done:  E(RCAM-B3LYP) =  -1706.92394517     A.U. after   15 cycles

 Excitation energies and oscillator strengths:

 Excited State   1:      Singlet-A      2.0071 eV  617.72 nm  f=3.1674  <S**2>=0.000
     155 ->158        -0.14707
     156 ->157         0.69406
 This state for optimization and/or second-order correction.
 Total Energy, E(TD-HF/TD-DFT) =  -1706.85018431
 Copying the excited state density for this state as the 1-particle RhoCI density.

 The electronic state is 1-A.
 Alpha  occ. eigenvalues --  -19.22334 -19.21580 -10.33204 -10.29952 -10.28011
 Alpha  occ. eigenvalues --  -10.28002 -10.27883 -10.27825 -10.27426 -10.26975
 Alpha  occ. eigenvalues --  -10.26891 -10.26841 -10.26823 -10.26794 -10.26739
 Alpha  occ. eigenvalues --  -10.26671 -10.26603 -10.26515 -10.26499 -10.26355
 Alpha  occ. eigenvalues --  -10.26312 -10.26241 -10.26114 -10.26072 -10.25889
 Alpha  occ. eigenvalues --  -10.25720 -10.25707 -10.25658 -10.25630 -10.25612
 Alpha  occ. eigenvalues --  -10.25581 -10.25517 -10.25400 -10.25300 -10.24954
 Alpha  occ. eigenvalues --  -10.24933 -10.24669 -10.24439 -10.24248 -10.24144
 Alpha  occ. eigenvalues --  -10.23796 -10.23674  -1.10262  -1.07234  -0.93766
 Alpha  occ. eigenvalues --   -0.93317  -0.92515  -0.91767  -0.90905  -0.89752
 Alpha  occ. eigenvalues --   -0.87715  -0.86774  -0.86149  -0.85755  -0.84758
 Alpha  occ. eigenvalues --   -0.83200  -0.81973  -0.79872  -0.79337  -0.78526
 Alpha  occ. eigenvalues --   -0.76974  -0.76059  -0.75973  -0.75628  -0.75456
 Alpha  occ. eigenvalues --   -0.75177  -0.74790  -0.74667  -0.72791  -0.70514
 Alpha  occ. eigenvalues --   -0.69024  -0.67320  -0.66268  -0.65411  -0.63613
 Alpha  occ. eigenvalues --   -0.62764  -0.62708  -0.62049  -0.60571  -0.60157
 Alpha  occ. eigenvalues --   -0.59907  -0.59656  -0.58495  -0.57378  -0.55925
 Alpha  occ. eigenvalues --   -0.55665  -0.55131  -0.54389  -0.54232  -0.53549
 Alpha  occ. eigenvalues --   -0.53135  -0.52791  -0.52245  -0.51879  -0.51328
 Alpha  occ. eigenvalues --   -0.50601  -0.50401  -0.50069  -0.49752  -0.49529
 Alpha  occ. eigenvalues --   -0.49375  -0.49007  -0.48263  -0.47537  -0.47422
 Alpha  occ. eigenvalues --   -0.47140  -0.47044  -0.46558  -0.46094  -0.45836
 Alpha  occ. eigenvalues --   -0.45692  -0.45404  -0.45320  -0.45251  -0.44980
 Alpha  occ. eigenvalues --   -0.44645  -0.44275  -0.43775  -0.43647  -0.43379
 Alpha  occ. eigenvalues --   -0.42843  -0.42476  -0.42087  -0.41973  -0.41662
 Alpha  occ. eigenvalues --   -0.41549  -0.41410  -0.41329  -0.40978  -0.40913
 Alpha  occ. eigenvalues --   -0.40744  -0.40610  -0.40057  -0.39811  -0.39201
 Alpha  occ. eigenvalues --   -0.39113  -0.38502  -0.38417  -0.37951  -0.37884
 Alpha  occ. eigenvalues --   -0.37709  -0.36747  -0.36189  -0.35798  -0.35256
 Alpha  occ. eigenvalues --   -0.35204  -0.33514  -0.33051  -0.31812  -0.31418
 Alpha  occ. eigenvalues --   -0.30401  -0.29310  -0.28878  -0.26539  -0.23678
 Alpha  occ. eigenvalues --   -0.18878
 Alpha virt. eigenvalues --   -0.06337  -0.01256   0.02058   0.05541   0.06709
 Alpha virt. eigenvalues --    0.08631   0.10010   0.11476   0.11525   0.11693
 Alpha virt. eigenvalues --    0.12406   0.12750   0.13211   0.13745   0.13780

 Mulliken charges:
               1
     1  O   -0.557952
     2  O   -0.561718
     3  C    0.033177
     4  C   -0.150917
     5  C   -0.195648
     6  C    0.188545
     7  C    0.113636
     8  C   -0.066295
     9  C   -0.301081
    10  C   -0.300791
    11  C   -0.158903
    12  C   -0.112212
    13  C    0.179816
    14  C    0.114536
    15  C   -0.019421
    16  C   -0.237858
    17  C    0.042120
    18  C   -0.295072
    19  C   -0.318282
    20  C   -0.372081
    21  C   -0.120311
    22  C   -0.117877
    23  C   -0.371009
    24  C    0.080660
    25  C   -0.130556
    26  C   -0.377619
    27  C    0.063187
    28  C   -0.119509
    29  C   -0.350246
    30  C   -0.107966
    31  C   -0.028934
    32  C   -0.079980
    33  C   -0.118381
    34  C    0.034540
    35  C   -0.116230
    36  C    0.111191
    37  C   -0.372268
    38  C   -0.076465
    39  C   -0.134188
    40  C   -0.393234
    41  C   -0.077524
    42  C   -0.070697
    43  H    0.075404
    44  H    0.097242
    45  H    0.114495
    46  H   -0.001266
    47  H    0.096496
    48  H    0.088987
    49  H    0.102732
    50  H    0.116424
    51  H    0.098719
    52  H    0.110510
    53  H    0.091800
    54  H    0.040653
    55  H    0.071352
    56  H    0.085611
    57  H    0.066123
    58  H    0.116636
    59  H    0.100382
    60  H    0.095403
    61  H    0.115482
    62  H    0.100078
    63  H    0.100374
    64  H    0.101857
    65  H    0.104203
    66  H    0.113881
    67  H    0.116997
    68  H    0.112279
    69  H    0.319198
    70  H    0.093514
    71  H    0.070032
    72  H    0.107181
    73  H    0.125742
    74  H    0.099944
    75  H    0.306660
    76  H    0.108075
    77  H    0.116250
    78  H    0.090014
    79  H    0.139195
    80  H    0.073635
    81  H    0.140453
    82  H    0.118693
    83  H    0.087441
    84  H    0.078897
    85  H    0.079617
    86  H    0.082123
    87  H    0.092874
    88  H    0.076203
    89  H    0.135166
    90  H    0.136818
    91  H    0.093867
    92  H    0.065693
    93  H    0.077114
    94  H    0.110920
    95  H    0.103793
    96  H    0.123185
    97  H    0.084992
    98  H    0.079673
 Sum of Mulliken charges =  -0.00000

 Dipole moment (field-independent basis, Debye):
    X=             -1.0821    Y=             -0.4315    Z=              0.8422  Tot=              1.4375
 Quadrupole moment (field-independent basis, Debye-Ang):
   XX=           -255.2478   YY=           -243.1320   ZZ=           -263.2033
   XY=             11.9622   XZ=             31.0882   YZ=             -0.4332

 Normal termination of Gaussian 16 at Mon Jul 15 20:13:47 2019.
