 Gaussian 16, Revision A.03,
 Gaussian 16:  ES64L-G16RevA.03 25-Dec-2016

 -------------------------------------
 # td=(NStates=1) CAM-B3LYP/6-31G(d,p)
 -------------------------------------

 --
 TD
 --
 Symbolic Z-matrix:
 Charge =  0 Multiplicity = 1

                         Standard orientation:
 ---------------------------------------------------------------------
 Center     Atomic      Atomic             Coordinates (Angstroms)
 Number     Number       Type             X           Y           Z
 ---------------------------------------------------------------------
      1          8           0      -14.090227   -1.946599    0.259363
      2          8           0       14.707244    0.975845   -0.032719
      3          6           0      -11.676218   -0.129246    1.267595
      4          6           0      -10.990408    0.267441   -0.034505
      5          6           0      -11.922733   -1.706606    1.156237
      6          6           0      -12.768378   -2.094431   -0.103658
      7          6           0      -11.616755   -0.235503   -1.314068
      8          6           0       11.176904    0.846360    0.934258
      9          6           0      -10.891277    0.153732    2.496513
     10          6           0      -13.122476    0.646118    1.407225
     11          6           0       12.578161    1.413792    0.753095
     12          6           0      -12.537884   -1.273629   -1.270872
     13          6           0       13.417711    0.402527    0.235009
     14          6           0       10.628594    0.001817   -0.099991
     15          6           0       -9.497574   -0.077969   -0.083228
     16          6           0       12.975728   -0.064562   -1.178576
     17          6           0       11.502508   -0.485018   -1.000180
     18          6           0       10.146667    2.121748    1.093671
     19          6           0       11.101879    0.097536    2.368923
     20          6           0      -11.301697    0.579211   -2.500693
     21          6           0       -8.485417    0.835828   -0.121201
     22          6           0        9.203230   -0.427713   -0.048805
     23          6           0       11.051038   -1.253730   -2.247827
     24          6           0       -7.060833    0.505426   -0.151120
     25          6           0        8.816452   -1.747777   -0.098596
     26          6           0       -6.746495   -0.908534   -0.087283
     27          6           0        7.440810   -2.204086    0.012268
     28          6           0       -6.167546    1.561396   -0.271439
     29          6           0        7.227636   -3.610650    0.340641
     30          6           0        6.363810   -1.329038   -0.179412
     31          6           0       -4.714745    1.515364   -0.306698
     32          6           0        4.907616   -1.586289    0.053055
     33          6           0       -3.911213    2.626327   -0.338571
     34          6           0       -2.558982    2.682287   -0.411962
     35          6           0        3.996021   -0.570844   -0.133169
     36          6           0        2.635055   -0.742160   -0.069468
     37          6           0       -1.974473    3.981537   -0.620473
     38          6           0       -1.730534    1.529808   -0.257824
     39          6           0        1.733168    0.308007   -0.290828
     40          6           0        2.045409   -2.156537    0.156231
     41          6           0       -0.290680    1.591515   -0.357886
     42          6           0        0.391901    0.438557   -0.114411
     43          1           0      -11.098888    1.356208   -0.151163
     44          1           0      -12.359432   -2.023489    2.196224
     45          1           0      -10.983382   -2.308183    1.083899
     46          1           0      -12.393421   -3.152766   -0.312806
     47          1           0       -9.836460   -0.336768    2.335356
     48          1           0      -10.637459    1.335860    2.790144
     49          1           0      -11.395246   -0.204636    3.383884
     50          1           0      -13.622325    0.586417    0.534081
     51          1           0      -13.749844    0.289104    2.326020
     52          1           0      -12.925850    1.783306    1.600624
     53          1           0       12.482728    2.426624    0.089612
     54          1           0       12.903272    1.970098    1.480752
     55          1           0      -13.043286   -1.421270   -2.248268
     56          1           0       13.557989   -0.419878    0.907139
     57          1           0       -9.316487   -1.289530   -0.245029
     58          1           0       13.519046   -0.774735   -1.582811
     59          1           0       13.186763    0.797910   -1.826903
     60          1           0        9.073683    1.931283    1.441963
     61          1           0       10.265031    2.684437    0.180827
     62          1           0       10.419551    2.673401    1.823282
     63          1           0       11.564108   -0.906060    2.424812
     64          1           0       10.010793   -0.010238    2.869371
     65          1           0       11.669136    0.733214    3.259073
     66          1           0      -10.223174    0.454672   -2.676928
     67          1           0      -11.553205    1.548050   -2.277691
     68          1           0      -12.072936    0.278530   -3.392503
     69          1           0      -14.779458   -2.617146   -0.446231
     70          1           0        8.386836    0.196529    0.178052
     71          1           0       -8.628257    1.951199    0.173942
     72          1           0       11.455620   -2.290884   -2.132632
     73          1           0       10.026128   -1.400056   -2.397265
     74          1           0       11.419637   -0.885778   -3.187957
     75          1           0       15.148058    1.099804    0.865159
     76          1           0        9.536683   -2.583821   -0.156787
     77          1           0       -5.741812   -1.178383   -0.228560
     78          1           0       -6.893902   -1.186778    1.060751
     79          1           0       -6.993972   -1.667267   -0.631273
     80          1           0       -6.435865    2.666306   -0.269719
     81          1           0        6.838174   -3.824947    1.377783
     82          1           0        6.537649   -3.939599   -0.458043
     83          1           0        8.069364   -4.207681    0.196721
     84          1           0        6.522726   -0.211046   -0.222292
     85          1           0       -4.207478    0.373395   -0.423389
     86          1           0        4.710427   -2.699273    0.325101
     87          1           0       -4.499464    3.646281   -0.046693
     88          1           0        4.343941    0.523500   -0.709753
     89          1           0       -1.450303    4.160666   -1.473430
     90          1           0       -1.194286    4.243937    0.237970
     91          1           0       -2.738006    4.783786   -0.815222
     92          1           0       -2.300666    0.567258   -0.429914
     93          1           0        2.233739    1.204562   -0.065261
     94          1           0        2.751541   -2.737221    0.981990
     95          1           0        0.878108   -2.219151    0.481370
     96          1           0        2.092976   -2.835958   -0.806911
     97          1           0        0.339791    2.399827   -0.492509
     98          1           0       -0.048655   -0.579670    0.197038
 ---------------------------------------------------------------------

 SCF Done:  E(RCAM-B3LYP) =  -1706.88507158     A.U. after   15 cycles

 Excitation energies and oscillator strengths:

 Excited State   1:      Singlet-A      2.0855 eV  594.50 nm  f=2.9008  <S**2>=0.000
     155 ->158         0.14915
     156 ->157         0.69241
 This state for optimization and/or second-order correction.
 Total Energy, E(TD-HF/TD-DFT) =  -1706.80842976
 Copying the excited state density for this state as the 1-particle RhoCI density.

 The electronic state is 1-A.
 Alpha  occ. eigenvalues --  -19.22553 -19.20548 -10.30686 -10.29403 -10.28551
 Alpha  occ. eigenvalues --  -10.27966 -10.27853 -10.27853 -10.27792 -10.27788
 Alpha  occ. eigenvalues --  -10.27549 -10.27457 -10.27187 -10.27043 -10.27007
 Alpha  occ. eigenvalues --  -10.26910 -10.26682 -10.26620 -10.26562 -10.26400
 Alpha  occ. eigenvalues --  -10.26296 -10.26264 -10.26201 -10.26129 -10.26061
 Alpha  occ. eigenvalues --  -10.26050 -10.25956 -10.25851 -10.25830 -10.25738
 Alpha  occ. eigenvalues --  -10.25236 -10.25217 -10.25165 -10.25070 -10.24571
 Alpha  occ. eigenvalues --  -10.24564 -10.24557 -10.24269 -10.24231 -10.24022
 Alpha  occ. eigenvalues --  -10.23634 -10.23554  -1.08273  -1.08268  -0.93934
 Alpha  occ. eigenvalues --   -0.92769  -0.92379  -0.91571  -0.90543  -0.90152
 Alpha  occ. eigenvalues --   -0.87610  -0.85973  -0.85871  -0.85016  -0.84202
 Alpha  occ. eigenvalues --   -0.82625  -0.81868  -0.80355  -0.80151  -0.77822
 Alpha  occ. eigenvalues --   -0.77635  -0.76757  -0.76546  -0.75450  -0.74650
 Alpha  occ. eigenvalues --   -0.74533  -0.74245  -0.73719  -0.72521  -0.70271
 Alpha  occ. eigenvalues --   -0.68710  -0.66925  -0.66255  -0.65735  -0.64843
 Alpha  occ. eigenvalues --   -0.62725  -0.61923  -0.61638  -0.60281  -0.59625
 Alpha  occ. eigenvalues --   -0.59059  -0.58399  -0.57407  -0.56512  -0.56455
 Alpha  occ. eigenvalues --   -0.55734  -0.54814  -0.54226  -0.53843  -0.53362
 Alpha  occ. eigenvalues --   -0.53198  -0.52345  -0.52322  -0.51487  -0.50923
 Alpha  occ. eigenvalues --   -0.50743  -0.50222  -0.49708  -0.49378  -0.48998
 Alpha  occ. eigenvalues --   -0.48777  -0.48451  -0.48039  -0.47621  -0.47498
 Alpha  occ. eigenvalues --   -0.47273  -0.46837  -0.46564  -0.46359  -0.46281
 Alpha  occ. eigenvalues --   -0.45827  -0.45557  -0.44415  -0.44258  -0.43913
 Alpha  occ. eigenvalues --   -0.43830  -0.43666  -0.43292  -0.43169  -0.42784
 Alpha  occ. eigenvalues --   -0.42707  -0.42605  -0.42355  -0.42268  -0.42118
 Alpha  occ. eigenvalues --   -0.41780  -0.41751  -0.41095  -0.40614  -0.40347
 Alpha  occ. eigenvalues --   -0.40049  -0.39813  -0.39404  -0.39251  -0.39037
 Alpha  occ. eigenvalues --   -0.38320  -0.38148  -0.38096  -0.37943  -0.37324
 Alpha  occ. eigenvalues --   -0.37217  -0.37144  -0.36364  -0.34983  -0.34730
 Alpha  occ. eigenvalues --   -0.34495  -0.34332  -0.33804  -0.32204  -0.32128
 Alpha  occ. eigenvalues --   -0.30969  -0.28951  -0.27804  -0.26719  -0.23667
 Alpha  occ. eigenvalues --   -0.19213
 Alpha virt. eigenvalues --   -0.05957  -0.01115   0.02733   0.05478   0.06225
 Alpha virt. eigenvalues --    0.08064   0.08840   0.10587   0.10863   0.11636
 Alpha virt. eigenvalues --    0.12111   0.12430   0.12799   0.13023   0.13361

 Mulliken charges:
               1
     1  O   -0.522580
     2  O   -0.575129
     3  C    0.036240
     4  C   -0.121563
     5  C   -0.183720
     6  C    0.125735
     7  C    0.081051
     8  C   -0.048256
     9  C   -0.283003
    10  C   -0.292914
    11  C   -0.140675
    12  C   -0.098525
    13  C    0.141621
    14  C    0.132293
    15  C   -0.099015
    16  C   -0.180503
    17  C   -0.010775
    18  C   -0.317902
    19  C   -0.299901
    20  C   -0.339702
    21  C   -0.098212
    22  C   -0.104884
    23  C   -0.364758
    24  C    0.118582
    25  C   -0.092677
    26  C   -0.369272
    27  C    0.080150
    28  C   -0.141024
    29  C   -0.382672
    30  C   -0.130408
    31  C   -0.055336
    32  C   -0.101882
    33  C   -0.144496
    34  C    0.128317
    35  C   -0.118094
    36  C    0.127399
    37  C   -0.387116
    38  C   -0.124537
    39  C   -0.149020
    40  C   -0.354922
    41  C   -0.084676
    42  C   -0.050281
    43  H    0.088760
    44  H    0.096582
    45  H    0.086870
    46  H    0.073825
    47  H    0.089929
    48  H    0.066381
    49  H    0.104163
    50  H    0.126874
    51  H    0.092475
    52  H    0.071063
    53  H    0.073626
    54  H    0.095476
    55  H    0.067809
    56  H    0.091441
    57  H    0.084831
    58  H    0.109884
    59  H    0.126263
    60  H    0.092120
    61  H    0.107166
    62  H    0.107730
    63  H    0.104092
    64  H    0.092105
    65  H    0.064713
    66  H    0.130254
    67  H    0.126540
    68  H    0.081939
    69  H    0.292025
    70  H    0.091873
    71  H    0.087208
    72  H    0.096761
    73  H    0.120185
    74  H    0.108685
    75  H    0.295994
    76  H    0.082858
    77  H    0.101864
    78  H    0.110879
    79  H    0.130798
    80  H    0.082399
    81  H    0.124875
    82  H    0.125459
    83  H    0.114743
    84  H    0.077316
    85  H    0.067520
    86  H    0.096535
    87  H    0.079698
    88  H    0.085026
    89  H    0.136908
    90  H    0.106786
    91  H    0.099976
    92  H    0.088218
    93  H    0.076174
    94  H    0.094010
    95  H    0.095936
    96  H    0.114582
    97  H    0.092328
    98  H    0.066511
 Sum of Mulliken charges =  -0.00000

 Dipole moment (field-independent basis, Debye):
    X=              0.4164    Y=             -1.7954    Z=              0.2886  Tot=              1.8655
 Quadrupole moment (field-independent basis, Debye-Ang):
   XX=           -258.9276   YY=           -239.3851   ZZ=           -263.2495
   XY=              9.0359   XZ=             38.5407   YZ=              2.9273

 Normal termination of Gaussian 16 at Sat Jul 13 04:29:02 2019.
