 Gaussian 16, Revision A.03,
 Gaussian 16:  ES64L-G16RevA.03 25-Dec-2016

 -------------------------------------
 # td=(NStates=1) CAM-B3LYP/6-31G(d,p)
 -------------------------------------

 --
 TD
 --
 Symbolic Z-matrix:
 Charge =  0 Multiplicity = 1

                         Standard orientation:
 ---------------------------------------------------------------------
 Center     Atomic      Atomic             Coordinates (Angstroms)
 Number     Number       Type             X           Y           Z
 ---------------------------------------------------------------------
      1          8           0      -14.136897   -1.915773    0.532501
      2          8           0       14.800453    0.873444    0.222133
      3          6           0      -11.704536   -0.034928    1.361693
      4          6           0      -10.990392    0.298183    0.003002
      5          6           0      -11.934532   -1.549150    1.460704
      6          6           0      -12.792767   -2.169721    0.273350
      7          6           0      -11.665997   -0.529541   -1.158757
      8          6           0       11.092852    0.889878    1.031770
      9          6           0      -10.806499    0.344058    2.527190
     10          6           0      -13.027434    0.876727    1.410812
     11          6           0       12.626914    1.363626    0.774446
     12          6           0      -12.442811   -1.627833   -1.049564
     13          6           0       13.464778    0.346392    0.399865
     14          6           0       10.713984   -0.094838   -0.018810
     15          6           0       -9.505147   -0.197774   -0.022876
     16          6           0       13.042685   -0.331472   -0.954725
     17          6           0       11.541226   -0.642815   -0.894053
     18          6           0       10.261921    2.150566    1.009270
     19          6           0       11.013346    0.390398    2.553370
     20          6           0      -11.291941    0.200454   -2.447765
     21          6           0       -8.593047    0.720048   -0.033513
     22          6           0        9.349448   -0.530843    0.033814
     23          6           0       11.183427   -1.441197   -2.078924
     24          6           0       -7.111054    0.469230   -0.205691
     25          6           0        8.853203   -1.664057   -0.135420
     26          6           0       -6.717249   -0.886869   -0.096225
     27          6           0        7.400236   -2.058790    0.043772
     28          6           0       -6.157160    1.584851   -0.469160
     29          6           0        7.053523   -3.487743    0.273296
     30          6           0        6.407952   -1.149543   -0.128103
     31          6           0       -4.878010    1.456593   -0.517472
     32          6           0        4.978627   -1.361017   -0.043668
     33          6           0       -4.058786    2.557619   -0.629470
     34          6           0       -2.660085    2.665334   -0.713568
     35          6           0        4.008681   -0.409540   -0.197192
     36          6           0        2.627830   -0.657914   -0.308384
     37          6           0       -1.999406    4.060259   -0.763140
     38          6           0       -1.827771    1.560014   -0.535066
     39          6           0        1.744622    0.388258   -0.453158
     40          6           0        2.181433   -2.116650   -0.267822
     41          6           0       -0.387678    1.587894   -0.619783
     42          6           0        0.456382    0.424229   -0.505655
     43          1           0      -11.208038    1.372243   -0.221705
     44          1           0      -12.416813   -1.658064    2.277238
     45          1           0      -11.178728   -2.331231    1.557653
     46          1           0      -12.622838   -3.269569    0.353368
     47          1           0       -9.826784   -0.011944    2.474521
     48          1           0      -10.625333    1.252225    2.484424
     49          1           0      -11.299140    0.359922    3.491165
     50          1           0      -13.738036    0.758122    0.597914
     51          1           0      -13.390212    0.708484    2.455374
     52          1           0      -12.512884    1.841175    1.406120
     53          1           0       12.629721    2.320236    0.182741
     54          1           0       12.798723    1.859579    1.619041
     55          1           0      -12.944586   -1.881042   -2.022786
     56          1           0       13.555092   -0.426516    1.087279
     57          1           0       -9.494127   -1.239591   -0.148524
     58          1           0       13.758096   -1.222846   -0.970068
     59          1           0       13.196378    0.251536   -1.973503
     60          1           0        9.336734    1.924845    1.405557
     61          1           0        9.954526    2.628771    0.004815
     62          1           0       10.869908    2.660612    1.717129
     63          1           0       11.881432   -0.402263    2.737551
     64          1           0       10.239561   -0.343687    2.915224
     65          1           0       11.311164    1.190729    3.139256
     66          1           0      -10.241291    0.188853   -2.569215
     67          1           0      -11.650309    1.417248   -2.277823
     68          1           0      -11.837551   -0.092346   -3.434305
     69          1           0      -14.815268   -1.928784   -0.363612
     70          1           0        8.548971    0.266039    0.277334
     71          1           0       -9.099692    1.612467   -0.114860
     72          1           0       11.401740   -2.552929   -1.866367
     73          1           0       10.243671   -1.565398   -2.383296
     74          1           0       11.803810   -1.227384   -2.821916
     75          1           0       14.874733    1.471744    1.037535
     76          1           0        9.563260   -2.522642   -0.079888
     77          1           0       -5.623305   -1.172191   -0.269185
     78          1           0       -6.945972   -1.346031    0.940761
     79          1           0       -7.350457   -1.617709   -0.762059
     80          1           0       -6.851559    2.512284   -0.522244
     81          1           0        6.226077   -3.632860    1.294103
     82          1           0        6.517296   -4.021727   -0.608856
     83          1           0        7.954326   -4.174546    0.695746
     84          1           0        6.445157   -0.066968   -0.128084
     85          1           0       -4.325021    0.442920   -0.394456
     86          1           0        4.501331   -2.308475   -0.040360
     87          1           0       -4.548230    3.389292   -0.714618
     88          1           0        4.447761    0.598602   -0.208737
     89          1           0       -1.197171    4.194862   -1.596243
     90          1           0       -1.651096    4.216489    0.178648
     91          1           0       -2.705534    4.855285   -0.926049
     92          1           0       -2.206868    0.619858   -0.253754
     93          1           0        2.133649    1.251287   -0.689001
     94          1           0        2.151427   -2.308627    0.929912
     95          1           0        1.133018   -2.179221   -0.445782
     96          1           0        2.981733   -2.917612   -0.637362
     97          1           0       -0.096931    2.584629   -0.830214
     98          1           0       -0.068593   -0.343755   -0.472939
 ---------------------------------------------------------------------

 SCF Done:  E(RCAM-B3LYP) =  -1706.82810313     A.U. after   16 cycles

 Excitation energies and oscillator strengths:

 Excited State   1:      Singlet-A      1.9157 eV  647.19 nm  f=2.9567  <S**2>=0.000
     155 ->158        -0.11839
     156 ->157         0.70589
     156 <-157        -0.12896
 This state for optimization and/or second-order correction.
 Total Energy, E(TD-HF/TD-DFT) =  -1706.75770079
 Copying the excited state density for this state as the 1-particle RhoCI density.

 The electronic state is 1-A.
 Alpha  occ. eigenvalues --  -19.21319 -19.20489 -10.30254 -10.29003 -10.28832
 Alpha  occ. eigenvalues --  -10.28486 -10.27978 -10.27671 -10.27445 -10.27436
 Alpha  occ. eigenvalues --  -10.27362 -10.27154 -10.27037 -10.26979 -10.26796
 Alpha  occ. eigenvalues --  -10.26721 -10.26573 -10.26498 -10.26446 -10.26225
 Alpha  occ. eigenvalues --  -10.26142 -10.25978 -10.25675 -10.25630 -10.25587
 Alpha  occ. eigenvalues --  -10.25581 -10.25547 -10.25379 -10.25284 -10.25115
 Alpha  occ. eigenvalues --  -10.25078 -10.24921 -10.24635 -10.24632 -10.24500
 Alpha  occ. eigenvalues --  -10.24256 -10.24193 -10.23761 -10.23528 -10.23125
 Alpha  occ. eigenvalues --  -10.22860 -10.21233  -1.07963  -1.07481  -0.94408
 Alpha  occ. eigenvalues --   -0.93145  -0.92819  -0.92138  -0.90663  -0.89896
 Alpha  occ. eigenvalues --   -0.88416  -0.87659  -0.86800  -0.86400  -0.85334
 Alpha  occ. eigenvalues --   -0.83354  -0.82569  -0.81158  -0.80658  -0.78901
 Alpha  occ. eigenvalues --   -0.77650  -0.77034  -0.76736  -0.76071  -0.75904
 Alpha  occ. eigenvalues --   -0.75896  -0.75286  -0.74283  -0.72959  -0.70051
 Alpha  occ. eigenvalues --   -0.68528  -0.67864  -0.67212  -0.65343  -0.65084
 Alpha  occ. eigenvalues --   -0.63981  -0.63770  -0.62199  -0.61043  -0.60828
 Alpha  occ. eigenvalues --   -0.60603  -0.58730  -0.57709  -0.57693  -0.57451
 Alpha  occ. eigenvalues --   -0.56584  -0.55449  -0.55037  -0.54301  -0.54233
 Alpha  occ. eigenvalues --   -0.53396  -0.53197  -0.53044  -0.52791  -0.51904
 Alpha  occ. eigenvalues --   -0.51316  -0.50703  -0.50094  -0.49732  -0.49406
 Alpha  occ. eigenvalues --   -0.48819  -0.48578  -0.48268  -0.47718  -0.47566
 Alpha  occ. eigenvalues --   -0.47323  -0.47112  -0.46967  -0.46741  -0.46603
 Alpha  occ. eigenvalues --   -0.46419  -0.46314  -0.45825  -0.45531  -0.44885
 Alpha  occ. eigenvalues --   -0.44727  -0.44444  -0.44117  -0.44011  -0.43543
 Alpha  occ. eigenvalues --   -0.43418  -0.43190  -0.42985  -0.41978  -0.41743
 Alpha  occ. eigenvalues --   -0.41501  -0.41369  -0.41101  -0.41003  -0.40756
 Alpha  occ. eigenvalues --   -0.40746  -0.40395  -0.40000  -0.39884  -0.39311
 Alpha  occ. eigenvalues --   -0.38668  -0.38427  -0.38324  -0.38055  -0.38024
 Alpha  occ. eigenvalues --   -0.37705  -0.37473  -0.36376  -0.36084  -0.35735
 Alpha  occ. eigenvalues --   -0.35133  -0.34943  -0.33752  -0.32212  -0.31841
 Alpha  occ. eigenvalues --   -0.30931  -0.29496  -0.29226  -0.26870  -0.23943
 Alpha  occ. eigenvalues --   -0.18382
 Alpha virt. eigenvalues --   -0.06762  -0.00717   0.03162   0.05822   0.07137
 Alpha virt. eigenvalues --    0.09175   0.10467   0.11865   0.12170   0.12273
 Alpha virt. eigenvalues --    0.12314   0.13009   0.13344   0.13641   0.14188

 Mulliken charges:
               1
     1  O   -0.559975
     2  O   -0.574984
     3  C    0.007881
     4  C   -0.148439
     5  C   -0.160849
     6  C    0.161274
     7  C    0.087260
     8  C   -0.057672
     9  C   -0.302399
    10  C   -0.294330
    11  C   -0.206634
    12  C   -0.148777
    13  C    0.188321
    14  C    0.103668
    15  C   -0.058873
    16  C   -0.230082
    17  C    0.026657
    18  C   -0.282495
    19  C   -0.310505
    20  C   -0.334079
    21  C   -0.087422
    22  C   -0.083353
    23  C   -0.340255
    24  C    0.094439
    25  C   -0.110592
    26  C   -0.393358
    27  C    0.086359
    28  C   -0.099392
    29  C   -0.357683
    30  C   -0.103533
    31  C   -0.049097
    32  C   -0.075465
    33  C   -0.102067
    34  C    0.069776
    35  C   -0.110483
    36  C    0.108271
    37  C   -0.382274
    38  C   -0.110916
    39  C   -0.070045
    40  C   -0.379621
    41  C   -0.097427
    42  C   -0.054774
    43  H    0.084071
    44  H    0.111188
    45  H    0.088363
    46  H    0.062922
    47  H    0.110746
    48  H    0.099359
    49  H    0.091834
    50  H    0.119901
    51  H    0.100467
    52  H    0.092825
    53  H    0.104627
    54  H    0.079264
    55  H    0.074304
    56  H    0.095590
    57  H    0.095902
    58  H    0.109026
    59  H    0.107842
    60  H    0.114349
    61  H    0.100565
    62  H    0.093215
    63  H    0.076124
    64  H    0.121249
    65  H    0.112392
    66  H    0.137677
    67  H    0.069440
    68  H    0.094200
    69  H    0.301828
    70  H    0.070514
    71  H    0.080520
    72  H    0.094597
    73  H    0.124807
    74  H    0.111022
    75  H    0.297031
    76  H    0.076051
    77  H    0.107577
    78  H    0.116652
    79  H    0.109531
    80  H    0.088106
    81  H    0.076771
    82  H    0.124037
    83  H    0.098292
    84  H    0.078153
    85  H    0.087724
    86  H    0.049176
    87  H    0.058960
    88  H    0.071012
    89  H    0.114889
    90  H    0.148762
    91  H    0.109483
    92  H    0.070992
    93  H    0.066084
    94  H    0.104535
    95  H    0.121380
    96  H    0.128361
    97  H    0.071108
    98  H    0.038546
 Sum of Mulliken charges =  -0.00000

 Dipole moment (field-independent basis, Debye):
    X=             -1.6015    Y=              0.2639    Z=              0.2932  Tot=              1.6494
 Quadrupole moment (field-independent basis, Debye-Ang):
   XX=           -285.7218   YY=           -243.5648   ZZ=           -260.7485
   XY=             -1.4358   XZ=             37.3612   YZ=              4.0947

 Normal termination of Gaussian 16 at Sat Jul 13 21:49:53 2019.
