 Gaussian 16, Revision A.03,
 Gaussian 16:  ES64L-G16RevA.03 25-Dec-2016

 -------------------------------------
 # td=(NStates=1) CAM-B3LYP/6-31G(d,p)
 -------------------------------------

 --
 TD
 --
 Symbolic Z-matrix:
 Charge =  0 Multiplicity = 1

                         Standard orientation:
 ---------------------------------------------------------------------
 Center     Atomic      Atomic             Coordinates (Angstroms)
 Number     Number       Type             X           Y           Z
 ---------------------------------------------------------------------
      1          8           0      -13.905857   -2.312605    0.579501
      2          8           0       14.700525    0.814307    0.183692
      3          6           0      -11.730695   -0.039956    1.228911
      4          6           0      -10.961293    0.241117   -0.053432
      5          6           0      -11.724464   -1.634013    1.424290
      6          6           0      -12.481571   -2.220961    0.283904
      7          6           0      -11.515184   -0.502648   -1.244420
      8          6           0       11.101039    0.799193    1.167415
      9          6           0      -11.016009    0.517609    2.478711
     10          6           0      -13.099410    0.684096    1.178533
     11          6           0       12.517655    1.349947    0.731157
     12          6           0      -12.048230   -1.723868   -0.998570
     13          6           0       13.514115    0.214667    0.343683
     14          6           0       10.658411   -0.188355    0.090459
     15          6           0       -9.461952   -0.015085    0.033726
     16          6           0       12.873943   -0.290633   -0.851726
     17          6           0       11.441436   -0.645420   -0.889330
     18          6           0       10.121309    2.032441    1.090723
     19          6           0       11.029308    0.197618    2.610233
     20          6           0      -11.245273    0.023657   -2.585878
     21          6           0       -8.485117    0.854393   -0.207151
     22          6           0        9.246560   -0.521352    0.043295
     23          6           0       10.984854   -1.340349   -2.115461
     24          6           0       -7.100056    0.624410    0.000039
     25          6           0        8.647120   -1.689414   -0.174511
     26          6           0       -6.526862   -0.835662    0.212660
     27          6           0        7.301174   -2.115616   -0.158186
     28          6           0       -6.115648    1.641119   -0.291396
     29          6           0        6.949594   -3.480504    0.217347
     30          6           0        6.236483   -1.259920   -0.409164
     31          6           0       -4.775885    1.701895   -0.313524
     32          6           0        4.886138   -1.439485   -0.168417
     33          6           0       -4.019278    2.841982   -0.557461
     34          6           0       -2.617639    2.896871   -0.588125
     35          6           0        3.886396   -0.458136   -0.462194
     36          6           0        2.525000   -0.699344   -0.376809
     37          6           0       -1.933609    4.135063   -0.818093
     38          6           0       -1.826664    1.726230   -0.420252
     39          6           0        1.707534    0.434089   -0.465747
     40          6           0        2.034777   -2.080479   -0.095174
     41          6           0       -0.383649    1.733674   -0.464338
     42          6           0        0.324775    0.522463   -0.352540
     43          1           0      -10.940563    1.258729   -0.238594
     44          1           0      -12.388184   -1.911742    2.365176
     45          1           0      -10.645691   -2.086592    1.599816
     46          1           0      -12.159892   -3.288783    0.289367
     47          1           0      -10.099599   -0.283132    2.834991
     48          1           0      -10.441693    1.513962    2.041734
     49          1           0      -11.797616    0.528219    3.421938
     50          1           0      -13.567815    0.596810    0.103173
     51          1           0      -13.796500    0.456347    1.925593
     52          1           0      -12.898335    1.758633    1.151398
     53          1           0       12.614002    2.184509    0.073450
     54          1           0       13.004536    1.975912    1.708166
     55          1           0      -12.506118   -2.188124   -1.869923
     56          1           0       13.444880   -0.562887    1.191047
     57          1           0       -9.105609   -0.961425    0.256420
     58          1           0       13.450173   -1.168838   -1.055701
     59          1           0       13.123431    0.382067   -1.682532
     60          1           0        8.972948    1.781359    1.178793
     61          1           0       10.283666    2.696052    0.163660
     62          1           0       10.433013    2.725598    1.953763
     63          1           0       11.800384   -0.558308    2.642207
     64          1           0        9.921496   -0.069448    2.686744
     65          1           0       11.462057    0.887755    3.206094
     66          1           0      -10.185386    0.083219   -2.963856
     67          1           0      -11.797713    1.036161   -2.786734
     68          1           0      -11.680059   -0.694638   -3.296700
     69          1           0      -14.214388   -2.433490   -0.248430
     70          1           0        8.677823    0.250778    0.561988
     71          1           0       -8.780704    1.714794   -0.557133
     72          1           0       11.080340   -2.401158   -2.187507
     73          1           0        9.957098   -1.188531   -2.566452
     74          1           0       11.621151   -0.903543   -2.916228
     75          1           0       14.895748    1.181837    1.002757
     76          1           0        9.189445   -2.547528   -0.259264
     77          1           0       -5.398525   -0.804385    0.309855
     78          1           0       -6.718331   -1.183777    1.148681
     79          1           0       -6.896630   -1.478983   -0.455599
     80          1           0       -6.442974    2.587191   -0.593634
     81          1           0        6.797199   -3.507415    1.390823
     82          1           0        5.934902   -3.953620   -0.179577
     83          1           0        7.800099   -4.103653    0.114647
     84          1           0        6.539914   -0.253585   -0.660143
     85          1           0       -4.166519    0.852690   -0.149560
     86          1           0        4.708380   -2.349889    0.117520
     87          1           0       -4.343733    3.838123   -0.471005
     88          1           0        4.309253    0.507500   -0.543434
     89          1           0       -0.965145    4.106892   -1.463636
     90          1           0       -1.538483    4.565957   -0.016544
     91          1           0       -2.516689    4.936970   -1.169501
     92          1           0       -2.276907    0.674780   -0.249839
     93          1           0        2.348522    1.358989   -0.443241
     94          1           0        2.032913   -2.334305    1.160413
     95          1           0        0.853141   -2.504459   -0.738784
     96          1           0        3.094561   -2.818720   -0.449105
     97          1           0        0.184717    2.614848   -0.513805
     98          1           0       -0.138105   -0.477327   -0.418427
 ---------------------------------------------------------------------

 SCF Done:  E(RCAM-B3LYP) =  -1706.90505251     A.U. after   16 cycles

 Excitation energies and oscillator strengths:

 Excited State   1:      Singlet-A      1.7801 eV  696.52 nm  f=2.9889  <S**2>=0.000
     155 ->158        -0.13548
     156 ->157         0.70010
     156 <-157        -0.11718
 This state for optimization and/or second-order correction.
 Total Energy, E(TD-HF/TD-DFT) =  -1706.83963685
 Copying the excited state density for this state as the 1-particle RhoCI density.

 The electronic state is 1-A.
 Alpha  occ. eigenvalues --  -19.21889 -19.20642 -10.31451 -10.30593 -10.29800
 Alpha  occ. eigenvalues --  -10.28472 -10.28119 -10.27816 -10.27688 -10.27186
 Alpha  occ. eigenvalues --  -10.27088 -10.27044 -10.26923 -10.26813 -10.26803
 Alpha  occ. eigenvalues --  -10.26518 -10.26432 -10.26365 -10.26342 -10.26234
 Alpha  occ. eigenvalues --  -10.26231 -10.26116 -10.26024 -10.25990 -10.25964
 Alpha  occ. eigenvalues --  -10.25867 -10.25683 -10.25478 -10.25414 -10.25242
 Alpha  occ. eigenvalues --  -10.25118 -10.25064 -10.24950 -10.24685 -10.24629
 Alpha  occ. eigenvalues --  -10.24575 -10.24571 -10.24564 -10.24433 -10.24409
 Alpha  occ. eigenvalues --  -10.24240 -10.24234  -1.14286  -1.10542  -0.94542
 Alpha  occ. eigenvalues --   -0.94194  -0.92586  -0.92092  -0.90825  -0.90277
 Alpha  occ. eigenvalues --   -0.87602  -0.87288  -0.86858  -0.86439  -0.85420
 Alpha  occ. eigenvalues --   -0.84012  -0.82828  -0.81291  -0.80483  -0.78181
 Alpha  occ. eigenvalues --   -0.77604  -0.76951  -0.76897  -0.75887  -0.75849
 Alpha  occ. eigenvalues --   -0.74628  -0.74093  -0.73240  -0.72503  -0.71238
 Alpha  occ. eigenvalues --   -0.70027  -0.67628  -0.67147  -0.65608  -0.64669
 Alpha  occ. eigenvalues --   -0.64209  -0.63103  -0.62651  -0.61791  -0.60763
 Alpha  occ. eigenvalues --   -0.60589  -0.60004  -0.58709  -0.57584  -0.56873
 Alpha  occ. eigenvalues --   -0.56338  -0.55627  -0.55283  -0.54687  -0.54212
 Alpha  occ. eigenvalues --   -0.53294  -0.52788  -0.52546  -0.52249  -0.51448
 Alpha  occ. eigenvalues --   -0.51038  -0.50452  -0.50355  -0.50038  -0.49514
 Alpha  occ. eigenvalues --   -0.49137  -0.48714  -0.48278  -0.47873  -0.47521
 Alpha  occ. eigenvalues --   -0.47387  -0.47246  -0.46938  -0.46557  -0.46128
 Alpha  occ. eigenvalues --   -0.45970  -0.45689  -0.45618  -0.45359  -0.44996
 Alpha  occ. eigenvalues --   -0.44980  -0.44637  -0.44526  -0.43947  -0.43482
 Alpha  occ. eigenvalues --   -0.43456  -0.43317  -0.42783  -0.42621  -0.41913
 Alpha  occ. eigenvalues --   -0.41879  -0.41796  -0.41470  -0.40806  -0.40646
 Alpha  occ. eigenvalues --   -0.40455  -0.40371  -0.39671  -0.39462  -0.39356
 Alpha  occ. eigenvalues --   -0.39137  -0.38981  -0.38749  -0.38518  -0.37995
 Alpha  occ. eigenvalues --   -0.37427  -0.37239  -0.36666  -0.36446  -0.35860
 Alpha  occ. eigenvalues --   -0.35641  -0.34939  -0.34427  -0.32056  -0.31792
 Alpha  occ. eigenvalues --   -0.31129  -0.29555  -0.28997  -0.26850  -0.22916
 Alpha  occ. eigenvalues --   -0.18263
 Alpha virt. eigenvalues --   -0.07054  -0.01777   0.02515   0.04413   0.06828
 Alpha virt. eigenvalues --    0.08665   0.09822   0.11033   0.11518   0.12063
 Alpha virt. eigenvalues --    0.12415   0.12718   0.12943   0.13853   0.14050

 Mulliken charges:
               1
     1  O   -0.529116
     2  O   -0.520036
     3  C    0.047347
     4  C   -0.139909
     5  C   -0.195864
     6  C    0.148647
     7  C    0.149425
     8  C   -0.042750
     9  C   -0.270682
    10  C   -0.292172
    11  C   -0.211515
    12  C   -0.147977
    13  C    0.176894
    14  C    0.088812
    15  C   -0.073453
    16  C   -0.231427
    17  C    0.080669
    18  C   -0.304624
    19  C   -0.276108
    20  C   -0.373177
    21  C   -0.057487
    22  C   -0.108447
    23  C   -0.376696
    24  C    0.066898
    25  C   -0.085316
    26  C   -0.372865
    27  C    0.095177
    28  C   -0.114177
    29  C   -0.385402
    30  C   -0.121229
    31  C   -0.044462
    32  C   -0.065579
    33  C   -0.123611
    34  C    0.110560
    35  C   -0.112963
    36  C    0.153420
    37  C   -0.403482
    38  C   -0.131057
    39  C   -0.122200
    40  C   -0.330790
    41  C   -0.075017
    42  C   -0.087920
    43  H    0.082137
    44  H    0.099473
    45  H    0.097357
    46  H    0.075900
    47  H    0.063727
    48  H    0.082311
    49  H    0.092463
    50  H    0.080520
    51  H    0.121076
    52  H    0.096620
    53  H    0.118004
    54  H    0.011658
    55  H    0.063042
    56  H    0.062579
    57  H    0.071054
    58  H    0.107253
    59  H    0.116676
    60  H    0.097414
    61  H    0.103534
    62  H    0.091777
    63  H    0.101555
    64  H    0.111463
    65  H    0.113438
    66  H    0.130209
    67  H    0.108618
    68  H    0.111186
    69  H    0.290924
    70  H    0.063656
    71  H    0.063061
    72  H    0.124003
    73  H    0.123426
    74  H    0.100742
    75  H    0.305190
    76  H    0.064468
    77  H    0.100670
    78  H    0.128486
    79  H    0.133123
    80  H    0.070153
    81  H    0.109011
    82  H    0.112374
    83  H    0.110195
    84  H    0.058232
    85  H    0.072170
    86  H    0.054406
    87  H    0.077995
    88  H    0.087563
    89  H    0.111349
    90  H    0.143003
    91  H    0.111680
    92  H    0.087684
    93  H    0.073423
    94  H    0.105923
    95  H    0.074305
    96  H    0.071894
    97  H    0.088117
    98  H    0.081391
 Sum of Mulliken charges =  -0.00000

 Dipole moment (field-independent basis, Debye):
    X=              0.5753    Y=              0.7960    Z=             -0.3277  Tot=              1.0354
 Quadrupole moment (field-independent basis, Debye-Ang):
   XX=           -269.7781   YY=           -245.9875   ZZ=           -262.6773
   XY=             -2.9821   XZ=             41.4750   YZ=              1.4458

 Normal termination of Gaussian 16 at Sun Jul 14 04:54:29 2019.
