 Gaussian 16, Revision A.03,
 Gaussian 16:  ES64L-G16RevA.03 25-Dec-2016

 -------------------------------------
 # td=(NStates=1) CAM-B3LYP/6-31G(d,p)
 -------------------------------------

 --
 TD
 --
 Symbolic Z-matrix:
 Charge =  0 Multiplicity = 1

                         Standard orientation:
 ---------------------------------------------------------------------
 Center     Atomic      Atomic             Coordinates (Angstroms)
 Number     Number       Type             X           Y           Z
 ---------------------------------------------------------------------
      1          8           0      -14.116290   -2.170236    0.123986
      2          8           0       14.772418    0.951025   -0.005025
      3          6           0      -11.691932    0.040732    1.273683
      4          6           0      -10.933344    0.293345   -0.154440
      5          6           0      -12.034955   -1.439825    1.403547
      6          6           0      -12.601612   -2.119434    0.127686
      7          6           0      -11.571155   -0.372348   -1.260807
      8          6           0       11.039840    1.132855    0.933788
      9          6           0      -10.914524    0.545050    2.301397
     10          6           0      -13.040267    0.805635    1.283982
     11          6           0       12.465766    1.534661    0.607836
     12          6           0      -12.241190   -1.584161   -1.169809
     13          6           0       13.471962    0.389330    0.192010
     14          6           0       10.575317   -0.004433   -0.136879
     15          6           0       -9.529330   -0.110636   -0.033631
     16          6           0       12.917107   -0.263747   -1.023918
     17          6           0       11.493656   -0.714337   -0.945616
     18          6           0       10.107548    2.289646    0.867773
     19          6           0       11.055350    0.485414    2.299755
     20          6           0      -11.266492    0.300631   -2.555548
     21          6           0       -8.527037    0.738979   -0.184770
     22          6           0        9.254701   -0.447811    0.080156
     23          6           0       11.089000   -1.630405   -2.126133
     24          6           0       -7.105320    0.463067   -0.260249
     25          6           0        8.852925   -1.753561   -0.037380
     26          6           0       -6.779679   -0.953502    0.191115
     27          6           0        7.474482   -2.186123    0.095631
     28          6           0       -6.262847    1.534953   -0.334418
     29          6           0        7.245188   -3.593768    0.459932
     30          6           0        6.431262   -1.307514   -0.281628
     31          6           0       -4.790406    1.425579   -0.196356
     32          6           0        5.027228   -1.597831   -0.035695
     33          6           0       -4.015606    2.520129   -0.559217
     34          6           0       -2.585997    2.644361   -0.443562
     35          6           0        4.035502   -0.695386   -0.262312
     36          6           0        2.579477   -0.817954   -0.001251
     37          6           0       -1.985734    3.947082   -0.793134
     38          6           0       -1.743373    1.567354   -0.285244
     39          6           0        1.888658    0.502654   -0.259082
     40          6           0        1.996005   -2.097907    0.507511
     41          6           0       -0.329325    1.611652   -0.265421
     42          6           0        0.524883    0.382143   -0.057260
     43          1           0      -10.948456    1.375739   -0.272199
     44          1           0      -12.467604   -1.662628    2.278708
     45          1           0      -11.057800   -2.104209    1.412216
     46          1           0      -12.294124   -3.239647    0.278922
     47          1           0       -9.952348    0.071561    2.569011
     48          1           0      -10.481049    1.616379    2.222005
     49          1           0      -11.549450    0.373003    3.305375
     50          1           0      -13.826026    0.659044    0.423666
     51          1           0      -13.751750    0.519316    2.139143
     52          1           0      -12.944377    1.925754    1.274888
     53          1           0       12.419256    2.183552   -0.327707
     54          1           0       12.688350    2.153810    1.380802
     55          1           0      -12.765734   -2.137416   -2.049800
     56          1           0       13.603041   -0.268622    1.159929
     57          1           0       -9.564312   -1.259028    0.232294
     58          1           0       13.470129   -1.282566   -1.155540
     59          1           0       13.295880    0.344575   -1.872493
     60          1           0        9.120480    1.788912    1.186625
     61          1           0        9.771705    2.517514   -0.235058
     62          1           0       10.509225    3.107313    1.317238
     63          1           0       11.677307   -0.368140    2.351611
     64          1           0       10.002989    0.189290    2.640885
     65          1           0       11.289888    1.150150    3.092089
     66          1           0      -10.180997    0.498662   -2.631477
     67          1           0      -11.737151    1.421834   -2.488564
     68          1           0      -11.688631   -0.143830   -3.398618
     69          1           0      -14.473500   -2.219282   -0.805561
     70          1           0        8.374451    0.223187    0.315834
     71          1           0       -8.779806    1.826342   -0.526939
     72          1           0       11.611673   -2.543062   -1.851991
     73          1           0       10.031464   -1.715475   -2.395509
     74          1           0       11.642424   -1.331396   -2.895722
     75          1           0       14.761233    1.683655    0.859673
     76          1           0        9.445896   -2.450291   -0.414213
     77          1           0       -5.706769   -0.830505    0.386695
     78          1           0       -7.128208   -1.355783    1.058312
     79          1           0       -7.191885   -1.699591   -0.587166
     80          1           0       -6.685187    2.581090   -0.641695
     81          1           0        6.714029   -3.669835    1.474485
     82          1           0        6.655685   -4.113186   -0.401074
     83          1           0        8.309386   -4.085488    0.434111
     84          1           0        6.680369   -0.354784   -0.758625
     85          1           0       -4.474824    0.637959    0.475463
     86          1           0        4.641532   -2.500178    0.572071
     87          1           0       -4.400391    3.432882   -0.940282
     88          1           0        4.295753    0.385840   -0.740236
     89          1           0       -1.540953    3.599807   -1.950072
     90          1           0       -1.275314    4.447810   -0.192950
     91          1           0       -2.834722    4.718959   -0.885794
     92          1           0       -2.142302    0.581355   -0.058526
     93          1           0        2.482886    1.364467   -0.669533
     94          1           0        2.215116   -2.202449    1.633841
     95          1           0        1.049051   -2.249135    0.312712
     96          1           0        2.462486   -2.787849    0.003840
     97          1           0        0.097447    2.664258   -0.576223
     98          1           0       -0.178879   -0.503363    0.207183
 ---------------------------------------------------------------------

 SCF Done:  E(RCAM-B3LYP) =  -1706.92799074     A.U. after   15 cycles

 Excitation energies and oscillator strengths:

 Excited State   1:      Singlet-A      1.9825 eV  625.39 nm  f=2.8170  <S**2>=0.000
     155 ->158         0.13562
     156 ->157         0.69765
     156 <-157        -0.10813
 This state for optimization and/or second-order correction.
 Total Energy, E(TD-HF/TD-DFT) =  -1706.85513440
 Copying the excited state density for this state as the 1-particle RhoCI density.

 The electronic state is 1-A.
 Alpha  occ. eigenvalues --  -19.22412 -19.19412 -10.31433 -10.31233 -10.29201
 Alpha  occ. eigenvalues --  -10.28593 -10.28262 -10.28057 -10.27440 -10.27317
 Alpha  occ. eigenvalues --  -10.27295 -10.27264 -10.27234 -10.27195 -10.27125
 Alpha  occ. eigenvalues --  -10.26948 -10.26918 -10.26897 -10.26823 -10.26652
 Alpha  occ. eigenvalues --  -10.26612 -10.26578 -10.26569 -10.26556 -10.26424
 Alpha  occ. eigenvalues --  -10.26331 -10.26134 -10.26003 -10.25960 -10.25672
 Alpha  occ. eigenvalues --  -10.25534 -10.25392 -10.25265 -10.25193 -10.25172
 Alpha  occ. eigenvalues --  -10.24904 -10.24888 -10.24809 -10.24706 -10.24581
 Alpha  occ. eigenvalues --  -10.24571 -10.23960  -1.07386  -1.04967  -0.94546
 Alpha  occ. eigenvalues --   -0.93547  -0.91647  -0.91048  -0.90290  -0.89859
 Alpha  occ. eigenvalues --   -0.88116  -0.88055  -0.86166  -0.85347  -0.84459
 Alpha  occ. eigenvalues --   -0.83102  -0.82370  -0.80742  -0.80540  -0.79140
 Alpha  occ. eigenvalues --   -0.76965  -0.76707  -0.76561  -0.75928  -0.75903
 Alpha  occ. eigenvalues --   -0.75422  -0.75247  -0.74332  -0.71743  -0.69750
 Alpha  occ. eigenvalues --   -0.68504  -0.67114  -0.65871  -0.64574  -0.63447
 Alpha  occ. eigenvalues --   -0.62819  -0.62701  -0.61518  -0.59759  -0.59174
 Alpha  occ. eigenvalues --   -0.59080  -0.58147  -0.57830  -0.57350  -0.56076
 Alpha  occ. eigenvalues --   -0.55785  -0.55042  -0.54817  -0.54230  -0.54016
 Alpha  occ. eigenvalues --   -0.53280  -0.52944  -0.52751  -0.52221  -0.51161
 Alpha  occ. eigenvalues --   -0.50794  -0.50261  -0.49803  -0.49680  -0.49562
 Alpha  occ. eigenvalues --   -0.49113  -0.48727  -0.48662  -0.48471  -0.48234
 Alpha  occ. eigenvalues --   -0.47885  -0.47449  -0.47177  -0.46707  -0.46615
 Alpha  occ. eigenvalues --   -0.46312  -0.45987  -0.45835  -0.45399  -0.45350
 Alpha  occ. eigenvalues --   -0.44982  -0.44646  -0.44154  -0.43843  -0.43649
 Alpha  occ. eigenvalues --   -0.43361  -0.42739  -0.42634  -0.42394  -0.41975
 Alpha  occ. eigenvalues --   -0.41701  -0.41411  -0.41048  -0.40648  -0.40503
 Alpha  occ. eigenvalues --   -0.39938  -0.39770  -0.39606  -0.39451  -0.39100
 Alpha  occ. eigenvalues --   -0.38836  -0.38600  -0.38288  -0.37984  -0.37929
 Alpha  occ. eigenvalues --   -0.37197  -0.36611  -0.36245  -0.36150  -0.35721
 Alpha  occ. eigenvalues --   -0.35535  -0.34201  -0.33642  -0.31405  -0.31200
 Alpha  occ. eigenvalues --   -0.30945  -0.28780  -0.28316  -0.26165  -0.23772
 Alpha  occ. eigenvalues --   -0.18664
 Alpha virt. eigenvalues --   -0.06200  -0.00848   0.01882   0.04783   0.06353
 Alpha virt. eigenvalues --    0.08136   0.08984   0.10529   0.11305   0.11731
 Alpha virt. eigenvalues --    0.12186   0.12838   0.13158   0.13249   0.13660

 Mulliken charges:
               1
     1  O   -0.587475
     2  O   -0.565258
     3  C    0.060810
     4  C   -0.179581
     5  C   -0.171799
     6  C    0.172787
     7  C    0.147107
     8  C   -0.004165
     9  C   -0.296546
    10  C   -0.304776
    11  C   -0.215357
    12  C   -0.159620
    13  C    0.192874
    14  C    0.051525
    15  C   -0.048886
    16  C   -0.230964
    17  C    0.021291
    18  C   -0.298878
    19  C   -0.297296
    20  C   -0.351154
    21  C   -0.107340
    22  C   -0.117878
    23  C   -0.349863
    24  C    0.091381
    25  C   -0.096483
    26  C   -0.353393
    27  C    0.067215
    28  C   -0.127312
    29  C   -0.366781
    30  C   -0.119004
    31  C   -0.100804
    32  C   -0.106325
    33  C   -0.096672
    34  C    0.082281
    35  C   -0.099214
    36  C    0.059786
    37  C   -0.368412
    38  C   -0.099447
    39  C   -0.109211
    40  C   -0.351859
    41  C   -0.111258
    42  C   -0.099029
    43  H    0.088851
    44  H    0.117265
    45  H    0.070778
    46  H    0.072387
    47  H    0.103807
    48  H    0.095662
    49  H    0.073156
    50  H    0.101186
    51  H    0.098248
    52  H    0.088526
    53  H    0.090875
    54  H    0.077579
    55  H    0.079596
    56  H    0.066520
    57  H    0.085208
    58  H    0.093239
    59  H    0.130658
    60  H    0.101943
    61  H    0.095033
    62  H    0.108840
    63  H    0.114903
    64  H    0.094909
    65  H    0.097129
    66  H    0.127605
    67  H    0.086364
    68  H    0.113438
    69  H    0.298337
    70  H    0.087175
    71  H    0.066160
    72  H    0.115187
    73  H    0.128589
    74  H    0.126469
    75  H    0.308117
    76  H    0.083500
    77  H    0.090526
    78  H    0.133787
    79  H    0.113470
    80  H    0.084925
    81  H    0.124087
    82  H    0.118550
    83  H    0.099099
    84  H    0.089683
    85  H    0.108645
    86  H    0.081961
    87  H    0.081866
    88  H    0.060244
    89  H    0.101741
    90  H    0.134147
    91  H    0.092784
    92  H    0.065940
    93  H    0.115504
    94  H    0.124160
    95  H    0.121225
    96  H    0.135128
    97  H    0.075855
    98  H    0.104416
 Sum of Mulliken charges =  -0.00000

 Dipole moment (field-independent basis, Debye):
    X=              2.0280    Y=              0.1993    Z=             -0.2079  Tot=              2.0484
 Quadrupole moment (field-independent basis, Debye-Ang):
   XX=           -321.2196   YY=           -245.0855   ZZ=           -259.3725
   XY=             -2.3565   XZ=             29.5686   YZ=              1.5651

 Normal termination of Gaussian 16 at Mon Jul 15 06:10:22 2019.
