 Gaussian 16, Revision A.03,
 Gaussian 16:  ES64L-G16RevA.03 25-Dec-2016

 -------------------------------------
 # td=(NStates=1) CAM-B3LYP/6-31G(d,p)
 -------------------------------------

 --
 TD
 --
 Symbolic Z-matrix:
 Charge =  0 Multiplicity = 1

                         Standard orientation:
 ---------------------------------------------------------------------
 Center     Atomic      Atomic             Coordinates (Angstroms)
 Number     Number       Type             X           Y           Z
 ---------------------------------------------------------------------
      1          8           0      -13.993887   -2.205543    0.433453
      2          8           0       14.805445    0.847740    0.425245
      3          6           0      -11.704781   -0.098407    1.369234
      4          6           0      -10.946962    0.332343    0.142114
      5          6           0      -11.980698   -1.584182    1.454983
      6          6           0      -12.674644   -2.136843    0.120076
      7          6           0      -11.462262   -0.267659   -1.168885
      8          6           0       10.975698    0.905840    1.157596
      9          6           0      -10.969789    0.279699    2.606380
     10          6           0      -13.027435    0.711694    1.413963
     11          6           0       12.357165    1.539412    0.942304
     12          6           0      -12.305530   -1.289519   -1.089182
     13          6           0       13.387125    0.414646    0.509079
     14          6           0       10.612236   -0.039283    0.012638
     15          6           0       -9.492812   -0.081195    0.047593
     16          6           0       13.042615   -0.212417   -0.753725
     17          6           0       11.558759   -0.507299   -0.876636
     18          6           0       10.000057    2.149920    1.190528
     19          6           0       10.870872    0.093749    2.463577
     20          6           0      -11.167867    0.420229   -2.453872
     21          6           0       -8.502237    0.812789   -0.048318
     22          6           0        9.293532   -0.462691    0.033372
     23          6           0       11.144085   -1.312918   -2.047629
     24          6           0       -6.994054    0.586875   -0.232674
     25          6           0        8.778473   -1.757743   -0.185488
     26          6           0       -6.691377   -0.816190   -0.005435
     27          6           0        7.395804   -2.118054   -0.235428
     28          6           0       -6.175180    1.580513   -0.360022
     29          6           0        7.080331   -3.637911   -0.013517
     30          6           0        6.305307   -1.270062   -0.327214
     31          6           0       -4.716396    1.453799   -0.447430
     32          6           0        4.866984   -1.555897   -0.319771
     33          6           0       -3.978739    2.621189   -0.678854
     34          6           0       -2.524491    2.724214   -0.752815
     35          6           0        4.003269   -0.500873   -0.412455
     36          6           0        2.596106   -0.805222   -0.352574
     37          6           0       -1.837993    4.116204   -0.861701
     38          6           0       -1.746102    1.616346   -0.536952
     39          6           0        1.753319    0.351107   -0.609937
     40          6           0        2.041035   -2.166039    0.066939
     41          6           0       -0.402254    1.479547   -0.676773
     42          6           0        0.401249    0.460471   -0.437656
     43          1           0      -11.034976    1.500404    0.310685
     44          1           0      -12.541694   -1.942429    2.438573
     45          1           0      -11.042596   -1.920875    1.531656
     46          1           0      -12.472250   -3.241892    0.079473
     47          1           0       -9.843970   -0.086649    2.478019
     48          1           0      -10.822820    1.371640    2.837092
     49          1           0      -11.741296   -0.143450    3.623391
     50          1           0      -13.578855    0.403185    0.451739
     51          1           0      -13.789499    0.223644    2.206140
     52          1           0      -12.941261    1.613735    1.543576
     53          1           0       12.470165    2.171291   -0.025695
     54          1           0       12.844112    2.244924    1.725878
     55          1           0      -12.793852   -1.745600   -2.070468
     56          1           0       13.361993   -0.379928    1.238954
     57          1           0       -9.159841   -1.063974    0.052696
     58          1           0       13.661098   -1.110310   -0.915784
     59          1           0       13.246626    0.424108   -1.562130
     60          1           0        9.122958    2.244966    1.869816
     61          1           0        9.974813    2.530226    0.104698
     62          1           0       10.588691    2.954592    1.858554
     63          1           0       11.663911   -0.662214    2.534227
     64          1           0        9.971980   -0.257882    2.723888
     65          1           0       10.998789    0.808422    3.299460
     66          1           0      -10.038077    0.196219   -2.543622
     67          1           0      -11.337882    1.663326   -2.515879
     68          1           0      -11.461014   -0.227763   -3.369939
     69          1           0      -14.619722   -2.783847   -0.218218
     70          1           0        8.536959    0.164054    0.684435
     71          1           0       -8.637855    2.039674    0.044483
     72          1           0       11.582416   -2.448147   -1.904967
     73          1           0       10.039025   -1.397500   -2.275113
     74          1           0       11.843450   -0.921718   -3.055302
     75          1           0       14.985782    1.499533    1.294752
     76          1           0        9.575782   -2.602661   -0.570820
     77          1           0       -5.694303   -1.168822   -0.134826
     78          1           0       -6.760486   -1.192377    1.057854
     79          1           0       -7.206298   -1.730883   -0.538757
     80          1           0       -6.672920    2.651798   -0.205489
     81          1           0        6.795907   -3.754690    1.008534
     82          1           0        6.298389   -3.867163   -0.784473
     83          1           0        7.870547   -4.249251   -0.018690
     84          1           0        6.644730   -0.460546   -0.866077
     85          1           0       -4.412219    0.409287   -0.479582
     86          1           0        4.561369   -2.628902   -0.018102
     87          1           0       -4.397044    3.668191   -0.600145
     88          1           0        4.385126    0.532136   -0.441651
     89          1           0       -1.636824    4.082997   -2.060062
     90          1           0       -1.083932    4.203704   -0.219652
     91          1           0       -2.580473    4.869788   -0.708463
     92          1           0       -2.218370    0.709321   -0.357089
     93          1           0        2.262805    1.224724   -0.749629
     94          1           0        2.351007   -2.358334    1.224452
     95          1           0        1.039058   -2.224954   -0.354262
     96          1           0        2.449613   -3.187343   -0.470498
     97          1           0        0.018586    2.490784   -0.888924
     98          1           0       -0.092330   -0.455249   -0.040872
 ---------------------------------------------------------------------

 SCF Done:  E(RCAM-B3LYP) =  -1706.86438365     A.U. after   15 cycles

 Excitation energies and oscillator strengths:

 Excited State   1:      Singlet-A      2.2295 eV  556.11 nm  f=3.0351  <S**2>=0.000
     155 ->158        -0.16816
     156 ->157         0.68583
 This state for optimization and/or second-order correction.
 Total Energy, E(TD-HF/TD-DFT) =  -1706.78245178
 Copying the excited state density for this state as the 1-particle RhoCI density.

 The electronic state is 1-A.
 Alpha  occ. eigenvalues --  -19.21866 -19.21039 -10.30813 -10.29978 -10.28498
 Alpha  occ. eigenvalues --  -10.28498 -10.28400 -10.28149 -10.27719 -10.27570
 Alpha  occ. eigenvalues --  -10.27552 -10.27529 -10.27462 -10.27410 -10.27361
 Alpha  occ. eigenvalues --  -10.27218 -10.27134 -10.27070 -10.26965 -10.26943
 Alpha  occ. eigenvalues --  -10.26859 -10.26751 -10.26635 -10.26586 -10.26466
 Alpha  occ. eigenvalues --  -10.26400 -10.26165 -10.26115 -10.25811 -10.25689
 Alpha  occ. eigenvalues --  -10.25556 -10.25532 -10.25416 -10.25334 -10.25013
 Alpha  occ. eigenvalues --  -10.25010 -10.24669 -10.24215 -10.24034 -10.24015
 Alpha  occ. eigenvalues --  -10.23988 -10.22273  -1.09333  -1.05406  -0.94156
 Alpha  occ. eigenvalues --   -0.94086  -0.92314  -0.91410  -0.90606  -0.89297
 Alpha  occ. eigenvalues --   -0.87357  -0.87277  -0.87016  -0.85359  -0.84720
 Alpha  occ. eigenvalues --   -0.82651  -0.81493  -0.79645  -0.79457  -0.78718
 Alpha  occ. eigenvalues --   -0.77152  -0.77096  -0.76190  -0.75506  -0.75333
 Alpha  occ. eigenvalues --   -0.75041  -0.74978  -0.73313  -0.72913  -0.70471
 Alpha  occ. eigenvalues --   -0.68579  -0.67626  -0.66197  -0.64829  -0.64063
 Alpha  occ. eigenvalues --   -0.63096  -0.62056  -0.61420  -0.60464  -0.59649
 Alpha  occ. eigenvalues --   -0.59226  -0.58345  -0.58103  -0.56952  -0.56459
 Alpha  occ. eigenvalues --   -0.55284  -0.54821  -0.54312  -0.53908  -0.53528
 Alpha  occ. eigenvalues --   -0.53273  -0.52979  -0.52724  -0.51608  -0.51291
 Alpha  occ. eigenvalues --   -0.51070  -0.50080  -0.49789  -0.49502  -0.49262
 Alpha  occ. eigenvalues --   -0.49184  -0.49029  -0.48937  -0.48190  -0.47992
 Alpha  occ. eigenvalues --   -0.47860  -0.46996  -0.46844  -0.46034  -0.45964
 Alpha  occ. eigenvalues --   -0.45196  -0.44862  -0.44602  -0.44379  -0.44242
 Alpha  occ. eigenvalues --   -0.43915  -0.43561  -0.43331  -0.43045  -0.42706
 Alpha  occ. eigenvalues --   -0.42602  -0.42449  -0.42258  -0.41996  -0.41624
 Alpha  occ. eigenvalues --   -0.41499  -0.41380  -0.41093  -0.40842  -0.40418
 Alpha  occ. eigenvalues --   -0.40355  -0.39838  -0.39270  -0.39052  -0.38813
 Alpha  occ. eigenvalues --   -0.38616  -0.38405  -0.38224  -0.37633  -0.37371
 Alpha  occ. eigenvalues --   -0.37049  -0.36593  -0.36499  -0.36157  -0.35040
 Alpha  occ. eigenvalues --   -0.34625  -0.34052  -0.33621  -0.31875  -0.31648
 Alpha  occ. eigenvalues --   -0.31363  -0.29791  -0.28946  -0.26791  -0.23705
 Alpha  occ. eigenvalues --   -0.19593
 Alpha virt. eigenvalues --   -0.05554  -0.01299   0.02372   0.05267   0.07200
 Alpha virt. eigenvalues --    0.08814   0.09674   0.10653   0.11268   0.11639
 Alpha virt. eigenvalues --    0.12197   0.12426   0.12781   0.12838   0.13086

 Mulliken charges:
               1
     1  O   -0.547873
     2  O   -0.584905
     3  C   -0.001141
     4  C   -0.116645
     5  C   -0.153810
     6  C    0.149033
     7  C    0.135989
     8  C   -0.007965
     9  C   -0.271781
    10  C   -0.269128
    11  C   -0.204545
    12  C   -0.130031
    13  C    0.162201
    14  C    0.092087
    15  C   -0.102803
    16  C   -0.209995
    17  C    0.067595
    18  C   -0.313015
    19  C   -0.296681
    20  C   -0.348122
    21  C   -0.083645
    22  C   -0.141057
    23  C   -0.355864
    24  C    0.162864
    25  C   -0.125983
    26  C   -0.413264
    27  C    0.052512
    28  C   -0.136111
    29  C   -0.360818
    30  C   -0.132827
    31  C   -0.083359
    32  C   -0.098763
    33  C   -0.111373
    34  C    0.033772
    35  C   -0.098643
    36  C    0.089949
    37  C   -0.349162
    38  C   -0.078488
    39  C   -0.109635
    40  C   -0.361665
    41  C   -0.069961
    42  C   -0.086886
    43  H    0.092400
    44  H    0.095852
    45  H    0.093637
    46  H    0.066077
    47  H    0.085759
    48  H    0.092235
    49  H    0.055150
    50  H    0.103606
    51  H    0.081510
    52  H    0.093006
    53  H    0.099086
    54  H    0.079574
    55  H    0.055227
    56  H    0.085716
    57  H    0.096848
    58  H    0.120412
    59  H    0.127007
    60  H    0.110067
    61  H    0.113643
    62  H    0.074584
    63  H    0.106633
    64  H    0.123980
    65  H    0.085513
    66  H    0.118565
    67  H    0.105410
    68  H    0.105282
    69  H    0.305567
    70  H    0.092845
    71  H    0.049458
    72  H    0.090896
    73  H    0.136317
    74  H    0.068739
    75  H    0.300668
    76  H    0.080060
    77  H    0.105458
    78  H    0.127424
    79  H    0.105755
    80  H    0.078460
    81  H    0.124574
    82  H    0.114202
    83  H    0.108740
    84  H    0.089326
    85  H    0.106717
    86  H    0.095995
    87  H    0.083830
    88  H    0.102869
    89  H    0.116098
    90  H    0.139251
    91  H    0.110854
    92  H    0.060833
    93  H    0.073454
    94  H    0.123399
    95  H    0.126253
    96  H    0.093956
    97  H    0.060844
    98  H    0.070326
 Sum of Mulliken charges =  -0.00000

 Dipole moment (field-independent basis, Debye):
    X=              0.1401    Y=             -0.6084    Z=              0.4375  Tot=              0.7624
 Quadrupole moment (field-independent basis, Debye-Ang):
   XX=           -293.4780   YY=           -239.0204   ZZ=           -263.5559
   XY=             17.0192   XZ=             35.8026   YZ=              5.0142

 Normal termination of Gaussian 16 at Mon Jul 15 16:11:56 2019.
