 Gaussian 16, Revision A.03,
 Gaussian 16:  ES64L-G16RevA.03 25-Dec-2016

 -------------------------------------
 # td=(NStates=1) CAM-B3LYP/6-31G(d,p)
 -------------------------------------

 --
 TD
 --
 Symbolic Z-matrix:
 Charge =  0 Multiplicity = 1

                         Standard orientation:
 ---------------------------------------------------------------------
 Center     Atomic      Atomic             Coordinates (Angstroms)
 Number     Number       Type             X           Y           Z
 ---------------------------------------------------------------------
      1          8           0      -14.080497   -2.044964    0.573460
      2          8           0       14.773896    1.125254    0.076740
      3          6           0      -11.764869    0.197565    1.338709
      4          6           0      -11.009996    0.395792   -0.055263
      5          6           0      -11.998393   -1.370916    1.558627
      6          6           0      -12.751169   -2.047419    0.352622
      7          6           0      -11.645665   -0.415633   -1.112853
      8          6           0       11.078096    1.093282    1.017044
      9          6           0      -10.885276    0.742996    2.540637
     10          6           0      -13.189849    0.934696    1.314026
     11          6           0       12.492914    1.614648    0.714793
     12          6           0      -12.401864   -1.481439   -1.007438
     13          6           0       13.461274    0.592393    0.417487
     14          6           0       10.735760   -0.000809    0.045418
     15          6           0       -9.488030   -0.020859    0.017409
     16          6           0       13.038927   -0.271247   -0.786086
     17          6           0       11.576614   -0.616847   -0.802484
     18          6           0       10.092959    2.305563    1.049636
     19          6           0       11.051015    0.413679    2.447604
     20          6           0      -11.401741    0.128445   -2.538020
     21          6           0       -8.580028    0.847781   -0.221848
     22          6           0        9.361896   -0.440268    0.122111
     23          6           0       11.209082   -1.522990   -2.013570
     24          6           0       -7.152336    0.513675   -0.119835
     25          6           0        8.793882   -1.711765   -0.043888
     26          6           0       -6.712903   -0.943940    0.090884
     27          6           0        7.388941   -2.114198   -0.030881
     28          6           0       -6.197679    1.517998   -0.285076
     29          6           0        7.133404   -3.594802    0.328155
     30          6           0        6.368390   -1.286014   -0.257722
     31          6           0       -4.751152    1.404231   -0.498521
     32          6           0        5.055156   -1.648349   -0.094001
     33          6           0       -3.999776    2.483287   -0.795677
     34          6           0       -2.547380    2.579809   -0.760318
     35          6           0        4.040597   -0.665519   -0.425484
     36          6           0        2.607934   -0.948747   -0.215561
     37          6           0       -1.904139    3.906784   -1.030892
     38          6           0       -1.789604    1.389747   -0.578395
     39          6           0        1.792812    0.085843   -0.450598
     40          6           0        2.122984   -2.367017    0.011628
     41          6           0       -0.326652    1.394871   -0.609327
     42          6           0        0.388389    0.219783   -0.474774
     43          1           0      -11.263655    1.419948   -0.361898
     44          1           0      -12.581199   -1.502616    2.368828
     45          1           0      -11.149991   -1.824494    1.670893
     46          1           0      -12.511840   -3.114045    0.303019
     47          1           0       -9.734977    0.114653    2.548463
     48          1           0      -10.755151    1.816401    2.347160
     49          1           0      -11.452690    0.616466    3.576784
     50          1           0      -13.367457    0.921645    0.186450
     51          1           0      -13.736212    0.510529    1.989843
     52          1           0      -13.171805    2.032346    1.561018
     53          1           0       12.347444    2.351068   -0.062881
     54          1           0       12.807683    2.160915    1.680685
     55          1           0      -12.616529   -1.994309   -1.908422
     56          1           0       13.544355    0.085515    1.399341
     57          1           0       -9.228111   -1.027017    0.236213
     58          1           0       13.731565   -1.073079   -0.838659
     59          1           0       13.190163    0.402730   -1.703474
     60          1           0        9.257084    2.070021    1.591837
     61          1           0        9.837340    2.623787    0.150303
     62          1           0       10.531409    3.020033    1.526601
     63          1           0       11.909221   -0.309663    2.713022
     64          1           0       10.097262    0.045200    2.528182
     65          1           0       11.121731    1.109643    3.312512
     66          1           0      -10.258242    0.161487   -2.757598
     67          1           0      -11.762202    1.048498   -2.870111
     68          1           0      -11.781969   -0.686055   -3.236104
     69          1           0      -14.509704   -2.485091   -0.146605
     70          1           0        8.638317    0.340581    0.306961
     71          1           0       -8.734712    2.016387   -0.511724
     72          1           0       11.374892   -2.481764   -1.626495
     73          1           0       10.171262   -1.454229   -2.171885
     74          1           0       12.106397   -1.301937   -2.606090
     75          1           0       15.034305    1.794894    0.866558
     76          1           0        9.514259   -2.553363   -0.357591
     77          1           0       -5.651694   -1.140996    0.169630
     78          1           0       -7.064528   -1.350996    1.049753
     79          1           0       -7.175189   -1.724555   -0.633348
     80          1           0       -6.702094    2.474377   -0.360808
     81          1           0        6.553170   -3.537534    1.254373
     82          1           0        6.456123   -4.121986   -0.396924
     83          1           0        8.042205   -4.223366    0.319773
     84          1           0        6.625633   -0.300379   -0.600452
     85          1           0       -4.414917    0.243292   -0.371408
     86          1           0        4.668326   -2.627827    0.318348
     87          1           0       -4.506596    3.454240   -1.043415
     88          1           0        4.196115    0.278330   -0.767007
     89          1           0       -0.904917    3.947445   -1.738839
     90          1           0       -1.572653    4.380755    0.019834
     91          1           0       -2.782306    4.479199   -1.530175
     92          1           0       -2.168387    0.275407   -0.593242
     93          1           0        2.287567    1.081531   -0.339289
     94          1           0        2.412588   -2.665100    1.044240
     95          1           0        1.009648   -2.494765   -0.013359
     96          1           0        2.617265   -3.200313   -0.597861
     97          1           0        0.192241    2.182795   -0.934711
     98          1           0       -0.018210   -0.671500   -0.111519
 ---------------------------------------------------------------------

 SCF Done:  E(RCAM-B3LYP) =  -1707.01475565     A.U. after   14 cycles

 Excitation energies and oscillator strengths:

 Excited State   1:      Singlet-A      2.3745 eV  522.15 nm  f=2.9416  <S**2>=0.000
     155 ->158         0.17330
     156 ->157         0.68257
 This state for optimization and/or second-order correction.
 Total Energy, E(TD-HF/TD-DFT) =  -1706.92749404
 Copying the excited state density for this state as the 1-particle RhoCI density.

 The electronic state is 1-A.
 Alpha  occ. eigenvalues --  -19.21366 -19.20263 -10.29770 -10.29737 -10.28788
 Alpha  occ. eigenvalues --  -10.28038 -10.27841 -10.27749 -10.27451 -10.27364
 Alpha  occ. eigenvalues --  -10.27342 -10.27153 -10.26932 -10.26905 -10.26809
 Alpha  occ. eigenvalues --  -10.26749 -10.26718 -10.26688 -10.26650 -10.26556
 Alpha  occ. eigenvalues --  -10.26502 -10.26423 -10.26287 -10.26253 -10.25901
 Alpha  occ. eigenvalues --  -10.25877 -10.25807 -10.25793 -10.25707 -10.25512
 Alpha  occ. eigenvalues --  -10.25402 -10.25301 -10.25163 -10.24939 -10.24523
 Alpha  occ. eigenvalues --  -10.24518 -10.24517 -10.24337 -10.23789 -10.23438
 Alpha  occ. eigenvalues --  -10.22838 -10.22085  -1.11824  -1.06601  -0.93937
 Alpha  occ. eigenvalues --   -0.92869  -0.91863  -0.91036  -0.90381  -0.89519
 Alpha  occ. eigenvalues --   -0.87453  -0.86612  -0.85703  -0.85333  -0.84478
 Alpha  occ. eigenvalues --   -0.82487  -0.81707  -0.80367  -0.80029  -0.77847
 Alpha  occ. eigenvalues --   -0.77657  -0.76696  -0.76363  -0.76096  -0.75669
 Alpha  occ. eigenvalues --   -0.75599  -0.75251  -0.73886  -0.72757  -0.70080
 Alpha  occ. eigenvalues --   -0.68650  -0.68012  -0.66388  -0.65793  -0.64031
 Alpha  occ. eigenvalues --   -0.62607  -0.62395  -0.62156  -0.60773  -0.59744
 Alpha  occ. eigenvalues --   -0.59376  -0.59107  -0.58017  -0.57357  -0.56221
 Alpha  occ. eigenvalues --   -0.55829  -0.54906  -0.54639  -0.53755  -0.53484
 Alpha  occ. eigenvalues --   -0.53147  -0.52946  -0.52642  -0.52213  -0.51531
 Alpha  occ. eigenvalues --   -0.50827  -0.50119  -0.49427  -0.49334  -0.48981
 Alpha  occ. eigenvalues --   -0.48778  -0.48236  -0.48147  -0.47687  -0.47482
 Alpha  occ. eigenvalues --   -0.47327  -0.47125  -0.46961  -0.46605  -0.45985
 Alpha  occ. eigenvalues --   -0.45762  -0.45623  -0.45567  -0.45260  -0.44891
 Alpha  occ. eigenvalues --   -0.44642  -0.44548  -0.44173  -0.43859  -0.43755
 Alpha  occ. eigenvalues --   -0.43630  -0.43510  -0.43209  -0.43015  -0.42466
 Alpha  occ. eigenvalues --   -0.42226  -0.42103  -0.41672  -0.41474  -0.41037
 Alpha  occ. eigenvalues --   -0.40732  -0.40490  -0.39985  -0.39738  -0.39167
 Alpha  occ. eigenvalues --   -0.39095  -0.38872  -0.38475  -0.38451  -0.38160
 Alpha  occ. eigenvalues --   -0.37088  -0.36297  -0.36172  -0.35713  -0.35683
 Alpha  occ. eigenvalues --   -0.34971  -0.34141  -0.33655  -0.32079  -0.31895
 Alpha  occ. eigenvalues --   -0.31130  -0.29561  -0.28848  -0.26818  -0.23470
 Alpha  occ. eigenvalues --   -0.19955
 Alpha virt. eigenvalues --   -0.04982  -0.00912   0.03001   0.05899   0.07578
 Alpha virt. eigenvalues --    0.09394   0.10774   0.11156   0.12025   0.12225
 Alpha virt. eigenvalues --    0.13115   0.13216   0.13650   0.13865   0.14018

 Mulliken charges:
               1
     1  O   -0.522909
     2  O   -0.575261
     3  C    0.013767
     4  C   -0.145839
     5  C   -0.169555
     6  C    0.137185
     7  C    0.114569
     8  C   -0.041308
     9  C   -0.277115
    10  C   -0.293470
    11  C   -0.188784
    12  C   -0.135128
    13  C    0.179106
    14  C    0.099201
    15  C   -0.095709
    16  C   -0.242254
    17  C    0.017967
    18  C   -0.301719
    19  C   -0.309223
    20  C   -0.364293
    21  C   -0.050509
    22  C   -0.130463
    23  C   -0.346121
    24  C    0.109277
    25  C   -0.132753
    26  C   -0.389147
    27  C    0.072361
    28  C   -0.142668
    29  C   -0.372529
    30  C   -0.082289
    31  C   -0.051662
    32  C   -0.105352
    33  C   -0.123496
    34  C    0.086035
    35  C   -0.107604
    36  C    0.133725
    37  C   -0.356551
    38  C   -0.116798
    39  C   -0.158517
    40  C   -0.389240
    41  C   -0.068203
    42  C   -0.080619
    43  H    0.095401
    44  H    0.112220
    45  H    0.096837
    46  H    0.053812
    47  H    0.060971
    48  H    0.103488
    49  H    0.083686
    50  H    0.103166
    51  H    0.123054
    52  H    0.081030
    53  H    0.096979
    54  H    0.063660
    55  H    0.074816
    56  H    0.076493
    57  H    0.100754
    58  H    0.121613
    59  H    0.119330
    60  H    0.107470
    61  H    0.113953
    62  H    0.111191
    63  H    0.096404
    64  H    0.120157
    65  H    0.085276
    66  H    0.100423
    67  H    0.123598
    68  H    0.090841
    69  H    0.300285
    70  H    0.075919
    71  H    0.080108
    72  H    0.129067
    73  H    0.135482
    74  H    0.113346
    75  H    0.299934
    76  H    0.070642
    77  H    0.111533
    78  H    0.119475
    79  H    0.109385
    80  H    0.069903
    81  H    0.128583
    82  H    0.112375
    83  H    0.109633
    84  H    0.085371
    85  H    0.083778
    86  H    0.092657
    87  H    0.084540
    88  H    0.081716
    89  H    0.109612
    90  H    0.119624
    91  H    0.106155
    92  H    0.090288
    93  H    0.071912
    94  H    0.121482
    95  H    0.111677
    96  H    0.118055
    97  H    0.074939
    98  H    0.069799
 Sum of Mulliken charges =  -0.00000

 Dipole moment (field-independent basis, Debye):
    X=             -0.4541    Y=             -0.3527    Z=              0.1470  Tot=              0.5935
 Quadrupole moment (field-independent basis, Debye-Ang):
   XX=           -286.7140   YY=           -238.8693   ZZ=           -263.8431
   XY=             12.4120   XZ=             33.6723   YZ=              1.9360

 Normal termination of Gaussian 16 at Mon Jul 15 12:16:12 2019.
