 Gaussian 16, Revision A.03,
 Gaussian 16:  ES64L-G16RevA.03 25-Dec-2016

 -------------------------------------
 # td=(NStates=1) CAM-B3LYP/6-31G(d,p)
 -------------------------------------

 --
 TD
 --
 Symbolic Z-matrix:
 Charge =  0 Multiplicity = 1

                         Standard orientation:
 ---------------------------------------------------------------------
 Center     Atomic      Atomic             Coordinates (Angstroms)
 Number     Number       Type             X           Y           Z
 ---------------------------------------------------------------------
      1          8           0      -13.948883   -2.181640    0.602905
      2          8           0       14.773357    0.680946    0.230083
      3          6           0      -11.724347    0.081653    1.301420
      4          6           0      -10.929830    0.229345   -0.045307
      5          6           0      -11.903839   -1.441166    1.422590
      6          6           0      -12.572705   -2.214775    0.276503
      7          6           0      -11.552858   -0.424802   -1.255972
      8          6           0       11.064818    1.091964    1.034008
      9          6           0      -11.042601    0.685684    2.466830
     10          6           0      -13.090251    0.768468    1.167075
     11          6           0       12.539054    1.480968    0.684399
     12          6           0      -12.302668   -1.396496   -1.028276
     13          6           0       13.417191    0.256754    0.490071
     14          6           0       10.652228   -0.044011   -0.049231
     15          6           0       -9.411403   -0.027984    0.050371
     16          6           0       12.956760   -0.377979   -0.871917
     17          6           0       11.595665   -0.610451   -0.917786
     18          6           0       10.075916    2.298637    0.870824
     19          6           0       10.942145    0.472877    2.457672
     20          6           0      -11.391867    0.182676   -2.559280
     21          6           0       -8.502436    0.835893   -0.279718
     22          6           0        9.356766   -0.368377   -0.067845
     23          6           0       11.087049   -1.536636   -2.001567
     24          6           0       -7.067214    0.361593   -0.222527
     25          6           0        8.863853   -1.624160   -0.076074
     26          6           0       -6.818824   -1.030569    0.026019
     27          6           0        7.422560   -2.072287   -0.024740
     28          6           0       -6.219722    1.412214   -0.431642
     29          6           0        6.983461   -3.446224    0.199515
     30          6           0        6.422706   -1.208365   -0.178598
     31          6           0       -4.834685    1.427247   -0.509213
     32          6           0        5.015583   -1.485344   -0.106601
     33          6           0       -4.004476    2.579908   -0.615919
     34          6           0       -2.573910    2.681342   -0.728105
     35          6           0        4.057790   -0.488326   -0.186411
     36          6           0        2.592972   -0.708309   -0.134825
     37          6           0       -2.004911    4.018933   -0.828031
     38          6           0       -1.814672    1.522683   -0.476796
     39          6           0        1.782201    0.406995   -0.291645
     40          6           0        2.072687   -2.108366    0.022430
     41          6           0       -0.368802    1.424927   -0.412186
     42          6           0        0.422176    0.291680   -0.287453
     43          1           0      -11.131236    1.378135   -0.254914
     44          1           0      -12.564847   -1.684404    2.193322
     45          1           0      -10.896628   -1.952901    1.860619
     46          1           0      -12.197007   -3.219755    0.174010
     47          1           0      -10.114825    0.236899    2.831211
     48          1           0      -10.802884    1.637137    2.392768
     49          1           0      -11.516335    0.576565    3.577130
     50          1           0      -13.891791    0.205013    0.595364
     51          1           0      -13.407472    0.993586    2.366062
     52          1           0      -13.128586    1.904656    0.866345
     53          1           0       12.358793    1.950923   -0.410398
     54          1           0       13.033352    2.103608    1.348204
     55          1           0      -12.663830   -1.803991   -1.894050
     56          1           0       13.226927   -0.361360    1.280493
     57          1           0       -9.139384   -1.078812    0.425426
     58          1           0       13.562666   -1.466522   -1.204584
     59          1           0       13.359377    0.333709   -1.464870
     60          1           0        9.136560    2.023585    1.055862
     61          1           0        9.863718    2.719483   -0.275607
     62          1           0       10.476544    3.089739    1.506634
     63          1           0       11.664369   -0.392086    2.721128
     64          1           0        9.909353    0.023039    2.368708
     65          1           0       10.889610    1.375375    3.250348
     66          1           0      -10.400101    0.606199   -2.849720
     67          1           0      -11.920271    1.223695   -2.779445
     68          1           0      -11.706993   -0.416955   -3.406524
     69          1           0      -14.357728   -2.922736   -0.053700
     70          1           0        8.804981    0.412428    0.337037
     71          1           0       -8.769954    1.836648   -0.420492
     72          1           0       11.368693   -2.567041   -1.815379
     73          1           0        9.895234   -1.147515   -2.240335
     74          1           0       11.674795   -1.047574   -2.797313
     75          1           0       15.236639    0.798077    0.986635
     76          1           0        9.561912   -2.493310   -0.154576
     77          1           0       -5.728413   -1.412787    0.207299
     78          1           0       -7.293746   -1.494188    0.887059
     79          1           0       -7.193065   -1.635729   -0.674923
     80          1           0       -6.804316    2.251813   -0.257405
     81          1           0        6.716562   -3.496211    1.234070
     82          1           0        6.269816   -3.999015   -0.518792
     83          1           0        7.961255   -4.052696    0.001818
     84          1           0        6.819908   -0.084328   -0.261483
     85          1           0       -4.123863    0.552761   -0.342859
     86          1           0        4.591479   -2.382048    0.247275
     87          1           0       -4.268706    3.457625   -0.494266
     88          1           0        4.435969    0.465209   -0.413218
     89          1           0       -1.181448    4.094681   -1.670616
     90          1           0       -1.097866    4.305213   -0.122463
     91          1           0       -2.732809    4.766385   -1.044553
     92          1           0       -2.059690    0.497938   -0.166499
     93          1           0        2.417610    1.346046   -0.508382
     94          1           0        2.417420   -2.405400    1.064136
     95          1           0        1.018214   -1.971512   -0.027493
     96          1           0        2.519188   -2.658474   -0.664804
     97          1           0        0.266449    2.211067   -0.537959
     98          1           0       -0.108751   -0.611198   -0.007638
 ---------------------------------------------------------------------

 SCF Done:  E(RCAM-B3LYP) =  -1706.85580640     A.U. after   15 cycles

 Excitation energies and oscillator strengths:

 Excited State   1:      Singlet-A      2.1959 eV  564.62 nm  f=2.8533  <S**2>=0.000
     155 ->158        -0.15828
     156 ->157         0.68816
 This state for optimization and/or second-order correction.
 Total Energy, E(TD-HF/TD-DFT) =  -1706.77510950
 Copying the excited state density for this state as the 1-particle RhoCI density.

 The electronic state is 1-A.
 Alpha  occ. eigenvalues --  -19.22910 -19.20774 -10.31343 -10.29988 -10.28194
 Alpha  occ. eigenvalues --  -10.27556 -10.27157 -10.27018 -10.26983 -10.26947
 Alpha  occ. eigenvalues --  -10.26769 -10.26630 -10.26556 -10.26413 -10.26246
 Alpha  occ. eigenvalues --  -10.26154 -10.25927 -10.25834 -10.25701 -10.25699
 Alpha  occ. eigenvalues --  -10.25652 -10.25648 -10.25602 -10.25553 -10.25513
 Alpha  occ. eigenvalues --  -10.25512 -10.25474 -10.25420 -10.25203 -10.25170
 Alpha  occ. eigenvalues --  -10.25087 -10.25028 -10.24877 -10.24813 -10.24749
 Alpha  occ. eigenvalues --  -10.24719 -10.24587 -10.24553 -10.24420 -10.23896
 Alpha  occ. eigenvalues --  -10.23748 -10.22806  -1.10275  -1.09307  -0.94048
 Alpha  occ. eigenvalues --   -0.93776  -0.92170  -0.91691  -0.90833  -0.90221
 Alpha  occ. eigenvalues --   -0.87928  -0.87525  -0.87130  -0.86285  -0.84823
 Alpha  occ. eigenvalues --   -0.82638  -0.82025  -0.80787  -0.80592  -0.78978
 Alpha  occ. eigenvalues --   -0.77981  -0.76015  -0.75978  -0.75789  -0.75577
 Alpha  occ. eigenvalues --   -0.75150  -0.74853  -0.73900  -0.72762  -0.70326
 Alpha  occ. eigenvalues --   -0.69460  -0.67911  -0.66862  -0.65462  -0.63358
 Alpha  occ. eigenvalues --   -0.62919  -0.62414  -0.62058  -0.61393  -0.60973
 Alpha  occ. eigenvalues --   -0.60891  -0.59373  -0.57830  -0.57270  -0.56528
 Alpha  occ. eigenvalues --   -0.55899  -0.55509  -0.55107  -0.54953  -0.54226
 Alpha  occ. eigenvalues --   -0.53517  -0.52589  -0.52183  -0.52142  -0.51284
 Alpha  occ. eigenvalues --   -0.50744  -0.50152  -0.49861  -0.49773  -0.49542
 Alpha  occ. eigenvalues --   -0.49450  -0.49129  -0.48872  -0.48492  -0.47861
 Alpha  occ. eigenvalues --   -0.47536  -0.47319  -0.47068  -0.46937  -0.46154
 Alpha  occ. eigenvalues --   -0.45756  -0.45202  -0.45029  -0.44933  -0.44785
 Alpha  occ. eigenvalues --   -0.44493  -0.44302  -0.44247  -0.43791  -0.43569
 Alpha  occ. eigenvalues --   -0.42767  -0.42504  -0.42205  -0.41783  -0.41627
 Alpha  occ. eigenvalues --   -0.41264  -0.41201  -0.40976  -0.40772  -0.40436
 Alpha  occ. eigenvalues --   -0.40334  -0.39942  -0.39619  -0.39218  -0.38884
 Alpha  occ. eigenvalues --   -0.38653  -0.38445  -0.37814  -0.37604  -0.37220
 Alpha  occ. eigenvalues --   -0.36829  -0.36544  -0.36365  -0.36143  -0.35577
 Alpha  occ. eigenvalues --   -0.34671  -0.34172  -0.33632  -0.32770  -0.32118
 Alpha  occ. eigenvalues --   -0.31258  -0.30405  -0.28876  -0.25874  -0.22785
 Alpha  occ. eigenvalues --   -0.19180
 Alpha virt. eigenvalues --   -0.05226  -0.00735   0.03015   0.06317   0.07469
 Alpha virt. eigenvalues --    0.09416   0.10516   0.11962   0.12456   0.12803
 Alpha virt. eigenvalues --    0.13140   0.13514   0.13817   0.14182   0.14229

 Mulliken charges:
               1
     1  O   -0.528190
     2  O   -0.553407
     3  C    0.060090
     4  C   -0.182072
     5  C   -0.190630
     6  C    0.118235
     7  C    0.209300
     8  C   -0.022722
     9  C   -0.310779
    10  C   -0.301490
    11  C   -0.166085
    12  C   -0.130996
    13  C    0.148487
    14  C    0.070176
    15  C   -0.069976
    16  C   -0.223698
    17  C    0.071679
    18  C   -0.304215
    19  C   -0.291838
    20  C   -0.386214
    21  C   -0.086997
    22  C   -0.131725
    23  C   -0.355155
    24  C    0.128822
    25  C   -0.088843
    26  C   -0.404777
    27  C    0.089467
    28  C   -0.112870
    29  C   -0.379704
    30  C   -0.110757
    31  C   -0.081505
    32  C   -0.095606
    33  C   -0.074258
    34  C    0.111949
    35  C   -0.104933
    36  C    0.058557
    37  C   -0.394672
    38  C   -0.119182
    39  C   -0.100206
    40  C   -0.347540
    41  C   -0.095393
    42  C   -0.102647
    43  H    0.065094
    44  H    0.121209
    45  H    0.064613
    46  H    0.098188
    47  H    0.097992
    48  H    0.115069
    49  H    0.078530
    50  H    0.134847
    51  H    0.066164
    52  H    0.082647
    53  H    0.084817
    54  H    0.080227
    55  H    0.045166
    56  H    0.091472
    57  H    0.076518
    58  H    0.060333
    59  H    0.141630
    60  H    0.123845
    61  H    0.081720
    62  H    0.107229
    63  H    0.102767
    64  H    0.107350
    65  H    0.083729
    66  H    0.118800
    67  H    0.099967
    68  H    0.112381
    69  H    0.307097
    70  H    0.066757
    71  H    0.089318
    72  H    0.121213
    73  H    0.108030
    74  H    0.105313
    75  H    0.293390
    76  H    0.081415
    77  H    0.101683
    78  H    0.128828
    79  H    0.141837
    80  H    0.082195
    81  H    0.136753
    82  H    0.120228
    83  H    0.081441
    84  H    0.060942
    85  H    0.084294
    86  H    0.082813
    87  H    0.038323
    88  H    0.072799
    89  H    0.112907
    90  H    0.124382
    91  H    0.122976
    92  H    0.081145
    93  H    0.090397
    94  H    0.116426
    95  H    0.106348
    96  H    0.137924
    97  H    0.055127
    98  H    0.087717
 Sum of Mulliken charges =  -0.00000

 Dipole moment (field-independent basis, Debye):
    X=             -0.3150    Y=             -1.4418    Z=              1.0593  Tot=              1.8166
 Quadrupole moment (field-independent basis, Debye-Ang):
   XX=           -264.8848   YY=           -238.5825   ZZ=           -263.3346
   XY=             17.5288   XZ=             39.9184   YZ=              1.1508

 Normal termination of Gaussian 16 at Sat Jul 13 04:07:59 2019.
