 Gaussian 16, Revision A.03,
 Gaussian 16:  ES64L-G16RevA.03 25-Dec-2016

 -------------------------------------
 # td=(NStates=1) CAM-B3LYP/6-31G(d,p)
 -------------------------------------

 --
 TD
 --
 Symbolic Z-matrix:
 Charge =  0 Multiplicity = 1

                         Standard orientation:
 ---------------------------------------------------------------------
 Center     Atomic      Atomic             Coordinates (Angstroms)
 Number     Number       Type             X           Y           Z
 ---------------------------------------------------------------------
      1          8           0      -14.172251   -2.030202    0.491741
      2          8           0       14.762115    1.169957   -0.063630
      3          6           0      -11.782607    0.184239    1.322590
      4          6           0      -10.979487    0.419609    0.019890
      5          6           0      -11.997507   -1.366086    1.483617
      6          6           0      -12.721995   -1.994595    0.222594
      7          6           0      -11.596463   -0.315678   -1.131231
      8          6           0       11.014917    1.105812    1.111181
      9          6           0      -11.080432    0.683428    2.586549
     10          6           0      -13.169283    0.866979    1.114450
     11          6           0       12.532268    1.563637    0.924446
     12          6           0      -12.403041   -1.354457   -1.101613
     13          6           0       13.508268    0.498363    0.433934
     14          6           0       10.685681    0.043618    0.035493
     15          6           0       -9.564741   -0.149488    0.268031
     16          6           0       13.032070   -0.048303   -0.885713
     17          6           0       11.526501   -0.446136   -0.862303
     18          6           0       10.032306    2.236755    1.021146
     19          6           0       10.972597    0.502925    2.521159
     20          6           0      -11.298926    0.171877   -2.533122
     21          6           0       -8.565021    0.773317   -0.109484
     22          6           0        9.277148   -0.495371    0.079223
     23          6           0       11.197374   -1.467412   -1.992494
     24          6           0       -7.144421    0.452689   -0.129518
     25          6           0        8.866634   -1.704375    0.036533
     26          6           0       -6.707653   -0.992602    0.106785
     27          6           0        7.479602   -2.173222   -0.076404
     28          6           0       -6.287948    1.559318   -0.446964
     29          6           0        7.302623   -3.646282    0.236179
     30          6           0        6.510727   -1.423924   -0.280990
     31          6           0       -4.855191    1.416679   -0.558777
     32          6           0        5.017739   -1.708336   -0.101000
     33          6           0       -3.977877    2.509317   -0.759820
     34          6           0       -2.492365    2.462836   -0.864838
     35          6           0        4.081686   -0.707234   -0.294273
     36          6           0        2.690002   -0.859931   -0.139717
     37          6           0       -1.861781    3.770956   -1.044101
     38          6           0       -1.734320    1.274090   -0.488930
     39          6           0        1.800484    0.200214   -0.476277
     40          6           0        2.146623   -2.250287   -0.027824
     41          6           0       -0.356403    1.264219   -0.519288
     42          6           0        0.459005    0.171236   -0.378959
     43          1           0      -10.860769    1.401045   -0.068267
     44          1           0      -12.555660   -1.753981    2.396519
     45          1           0      -11.201749   -1.962241    1.705075
     46          1           0      -12.422951   -3.165300    0.278326
     47          1           0      -10.277413    0.098504    2.882223
     48          1           0      -10.877984    1.865349    2.515346
     49          1           0      -11.681250    0.727971    3.326640
     50          1           0      -13.762950    0.531020    0.326179
     51          1           0      -13.974009    0.960248    2.016474
     52          1           0      -13.069658    2.014469    1.125873
     53          1           0       12.263908    2.150123   -0.022545
     54          1           0       12.882104    2.173420    1.697024
     55          1           0      -12.603567   -1.921633   -1.880136
     56          1           0       13.747131   -0.220627    1.181580
     57          1           0       -9.360136   -1.153904    0.585550
     58          1           0       13.625852   -1.011174   -1.253921
     59          1           0       13.289724    0.821010   -1.548823
     60          1           0        9.119407    1.971554    1.368852
     61          1           0       10.134945    2.629526   -0.074941
     62          1           0       10.506108    2.965421    1.899722
     63          1           0       11.662159   -0.362098    2.653934
     64          1           0       10.013789    0.009731    2.852218
     65          1           0       11.452539    1.368281    3.250312
     66          1           0      -10.179661    0.595409   -2.403804
     67          1           0      -12.211268    0.952871   -2.948930
     68          1           0      -11.394204   -0.614981   -3.241237
     69          1           0      -14.783970   -1.924903   -0.269179
     70          1           0        8.267561    0.113864    0.227728
     71          1           0       -8.772034    1.758270   -0.444958
     72          1           0       11.307038   -2.510079   -1.526293
     73          1           0       10.091204   -1.361913   -2.192566
     74          1           0       11.923253   -1.308404   -2.859402
     75          1           0       15.145189    1.747778    0.671153
     76          1           0        9.605093   -2.578957   -0.095763
     77          1           0       -5.497158   -0.843373    0.257203
     78          1           0       -7.066789   -1.106352    1.255975
     79          1           0       -7.287497   -1.732164   -0.563458
     80          1           0       -6.956395    2.333077   -0.497376
     81          1           0        6.897751   -4.069983    1.166954
     82          1           0        6.519270   -4.061973   -0.391718
     83          1           0        8.262155   -4.159364    0.027710
     84          1           0        6.723801   -0.350125   -0.432717
     85          1           0       -4.436721    0.507208   -0.539245
     86          1           0        4.785110   -2.564861    0.334995
     87          1           0       -4.452758    3.337308   -0.975015
     88          1           0        4.558059    0.194151   -0.293176
     89          1           0       -1.135869    3.922221   -1.944606
     90          1           0       -1.376784    4.441585   -0.279294
     91          1           0       -2.664621    4.555886   -1.255790
     92          1           0       -2.501086    0.275913   -0.283108
     93          1           0        2.258788    1.187443   -0.463051
     94          1           0        2.389021   -2.505715    0.983683
     95          1           0        1.149394   -2.411205   -0.005627
     96          1           0        2.623218   -2.840726   -0.756769
     97          1           0        0.150842    2.305397   -0.672677
     98          1           0       -0.049163   -0.708432   -0.148726
 ---------------------------------------------------------------------

 SCF Done:  E(RCAM-B3LYP) =  -1706.88979265     A.U. after   15 cycles

 Excitation energies and oscillator strengths:

 Excited State   1:      Singlet-A      2.1462 eV  577.70 nm  f=2.7760  <S**2>=0.000
     155 ->158         0.12089
     156 ->157         0.70007
     156 <-157        -0.10574
 This state for optimization and/or second-order correction.
 Total Energy, E(TD-HF/TD-DFT) =  -1706.81092224
 Copying the excited state density for this state as the 1-particle RhoCI density.

 The electronic state is 1-A.
 Alpha  occ. eigenvalues --  -19.20923 -19.19574 -10.31404 -10.30499 -10.28992
 Alpha  occ. eigenvalues --  -10.28770 -10.28454 -10.27905 -10.27697 -10.27507
 Alpha  occ. eigenvalues --  -10.27467 -10.27328 -10.27281 -10.26901 -10.26900
 Alpha  occ. eigenvalues --  -10.26784 -10.26709 -10.26699 -10.26697 -10.26592
 Alpha  occ. eigenvalues --  -10.26382 -10.26148 -10.26125 -10.26098 -10.26093
 Alpha  occ. eigenvalues --  -10.26053 -10.26016 -10.25941 -10.25928 -10.25756
 Alpha  occ. eigenvalues --  -10.25583 -10.25558 -10.25429 -10.25365 -10.25227
 Alpha  occ. eigenvalues --  -10.25067 -10.24768 -10.24579 -10.24527 -10.23872
 Alpha  occ. eigenvalues --  -10.23863 -10.23230  -1.06219  -1.05867  -0.94061
 Alpha  occ. eigenvalues --   -0.93580  -0.92488  -0.91661  -0.90991  -0.89798
 Alpha  occ. eigenvalues --   -0.87617  -0.87157  -0.86691  -0.85302  -0.84708
 Alpha  occ. eigenvalues --   -0.82863  -0.82011  -0.80563  -0.79930  -0.79191
 Alpha  occ. eigenvalues --   -0.76964  -0.76854  -0.76358  -0.75740  -0.75510
 Alpha  occ. eigenvalues --   -0.75216  -0.74635  -0.74596  -0.73570  -0.70376
 Alpha  occ. eigenvalues --   -0.68655  -0.67145  -0.66914  -0.64814  -0.64507
 Alpha  occ. eigenvalues --   -0.63843  -0.63466  -0.63086  -0.61677  -0.60654
 Alpha  occ. eigenvalues --   -0.60199  -0.58517  -0.58041  -0.56992  -0.55862
 Alpha  occ. eigenvalues --   -0.55761  -0.55444  -0.54870  -0.54452  -0.53816
 Alpha  occ. eigenvalues --   -0.53142  -0.52882  -0.52423  -0.51755  -0.51646
 Alpha  occ. eigenvalues --   -0.51072  -0.50567  -0.49989  -0.49699  -0.49498
 Alpha  occ. eigenvalues --   -0.49117  -0.48633  -0.48147  -0.47559  -0.47305
 Alpha  occ. eigenvalues --   -0.47262  -0.46792  -0.46726  -0.46457  -0.46100
 Alpha  occ. eigenvalues --   -0.45850  -0.45741  -0.45453  -0.44908  -0.44661
 Alpha  occ. eigenvalues --   -0.44603  -0.44222  -0.44086  -0.43720  -0.43378
 Alpha  occ. eigenvalues --   -0.43127  -0.42798  -0.42282  -0.42096  -0.41877
 Alpha  occ. eigenvalues --   -0.41569  -0.41367  -0.41101  -0.40806  -0.40384
 Alpha  occ. eigenvalues --   -0.39942  -0.39848  -0.39590  -0.39295  -0.39218
 Alpha  occ. eigenvalues --   -0.38992  -0.38817  -0.38430  -0.38412  -0.37824
 Alpha  occ. eigenvalues --   -0.37382  -0.37033  -0.36185  -0.35936  -0.35730
 Alpha  occ. eigenvalues --   -0.35477  -0.34600  -0.33512  -0.32647  -0.31843
 Alpha  occ. eigenvalues --   -0.30766  -0.29570  -0.29363  -0.27295  -0.24805
 Alpha  occ. eigenvalues --   -0.19470
 Alpha virt. eigenvalues --   -0.06245  -0.00597   0.02699   0.05001   0.06457
 Alpha virt. eigenvalues --    0.09248   0.10534   0.10798   0.11190   0.12290
 Alpha virt. eigenvalues --    0.12676   0.12942   0.13241   0.13725   0.13833

 Mulliken charges:
               1
     1  O   -0.577596
     2  O   -0.574717
     3  C    0.017214
     4  C   -0.107516
     5  C   -0.183837
     6  C    0.147615
     7  C    0.135085
     8  C   -0.031869
     9  C   -0.291320
    10  C   -0.295377
    11  C   -0.190557
    12  C   -0.127568
    13  C    0.165299
    14  C    0.067087
    15  C   -0.094165
    16  C   -0.223552
    17  C    0.035482
    18  C   -0.259710
    19  C   -0.286841
    20  C   -0.338995
    21  C   -0.110588
    22  C   -0.136877
    23  C   -0.357009
    24  C    0.084843
    25  C   -0.077612
    26  C   -0.359065
    27  C    0.140512
    28  C   -0.093046
    29  C   -0.384803
    30  C   -0.158964
    31  C   -0.076901
    32  C   -0.089105
    33  C   -0.101480
    34  C    0.095547
    35  C   -0.092846
    36  C    0.059989
    37  C   -0.399562
    38  C   -0.099646
    39  C   -0.112078
    40  C   -0.365530
    41  C   -0.096571
    42  C   -0.050008
    43  H    0.098949
    44  H    0.104544
    45  H    0.094646
    46  H    0.055106
    47  H    0.105784
    48  H    0.066067
    49  H    0.120429
    50  H    0.118437
    51  H    0.075689
    52  H    0.073668
    53  H    0.094326
    54  H    0.087106
    55  H    0.082142
    56  H    0.096700
    57  H    0.104366
    58  H    0.093440
    59  H    0.139425
    60  H    0.124961
    61  H    0.099889
    62  H    0.068480
    63  H    0.098927
    64  H    0.102483
    65  H    0.069454
    66  H    0.094611
    67  H    0.087968
    68  H    0.120367
    69  H    0.301040
    70  H    0.067112
    71  H    0.088265
    72  H    0.113935
    73  H    0.125843
    74  H    0.109821
    75  H    0.296767
    76  H    0.062633
    77  H    0.100717
    78  H    0.107974
    79  H    0.134232
    80  H    0.073288
    81  H    0.120511
    82  H    0.115214
    83  H    0.101937
    84  H    0.068194
    85  H    0.074794
    86  H    0.080841
    87  H    0.074131
    88  H    0.082497
    89  H    0.111787
    90  H    0.128015
    91  H    0.102448
    92  H    0.065819
    93  H    0.076606
    94  H    0.121245
    95  H    0.114038
    96  H    0.131236
    97  H    0.089757
    98  H    0.077981
 Sum of Mulliken charges =  -0.00000

 Dipole moment (field-independent basis, Debye):
    X=             -0.2796    Y=              0.0811    Z=              0.6062  Tot=              0.6725
 Quadrupole moment (field-independent basis, Debye-Ang):
   XX=           -285.9071   YY=           -246.3089   ZZ=           -263.4077
   XY=             -4.5441   XZ=             40.4057   YZ=              2.3486

 Normal termination of Gaussian 16 at Sun Jul 14 07:59:48 2019.
