 Gaussian 16, Revision A.03,
 Gaussian 16:  ES64L-G16RevA.03 25-Dec-2016

 -------------------------------------
 # td=(NStates=1) CAM-B3LYP/6-31G(d,p)
 -------------------------------------

 --
 TD
 --
 Symbolic Z-matrix:
 Charge =  0 Multiplicity = 1

                         Standard orientation:
 ---------------------------------------------------------------------
 Center     Atomic      Atomic             Coordinates (Angstroms)
 Number     Number       Type             X           Y           Z
 ---------------------------------------------------------------------
      1          8           0      -14.073313   -1.996296    0.444306
      2          8           0       14.681569    1.183453    0.112803
      3          6           0      -11.857358   -0.117916    1.325056
      4          6           0      -10.998933    0.376012    0.038764
      5          6           0      -12.038809   -1.561236    1.440101
      6          6           0      -12.691533   -2.099236    0.183527
      7          6           0      -11.667622   -0.278890   -1.197815
      8          6           0       11.119180    0.866605    1.239174
      9          6           0      -10.972089    0.294793    2.548659
     10          6           0      -12.995625    0.772086    1.400592
     11          6           0       12.443131    1.533292    1.026923
     12          6           0      -12.357474   -1.378007   -1.030862
     13          6           0       13.536487    0.616851    0.426404
     14          6           0       10.696638   -0.122471    0.165475
     15          6           0       -9.552373   -0.022970    0.189656
     16          6           0       12.972864   -0.014536   -0.895921
     17          6           0       11.643677   -0.535884   -0.856037
     18          6           0        9.979450    1.952200    1.334168
     19          6           0       11.041243    0.069035    2.603247
     20          6           0      -11.325107    0.278113   -2.485080
     21          6           0       -8.517949    0.856947   -0.089205
     22          6           0        9.262963   -0.494589    0.096512
     23          6           0       11.350028   -1.425717   -1.976065
     24          6           0       -7.152318    0.482092   -0.202221
     25          6           0        8.738080   -1.718202   -0.275508
     26          6           0       -6.611502   -0.885970    0.112899
     27          6           0        7.397829   -2.210453   -0.352910
     28          6           0       -6.164382    1.518292   -0.469378
     29          6           0        7.212916   -3.673194   -0.074031
     30          6           0        6.325245   -1.263814   -0.405489
     31          6           0       -4.756064    1.468762   -0.506843
     32          6           0        4.991507   -1.610757   -0.298263
     33          6           0       -4.012164    2.642769   -0.599811
     34          6           0       -2.564371    2.654982   -0.689778
     35          6           0        4.014972   -0.632882   -0.485653
     36          6           0        2.621057   -0.739593   -0.262448
     37          6           0       -1.950933    3.980578   -1.150759
     38          6           0       -1.690896    1.571227   -0.370318
     39          6           0        1.813231    0.338471   -0.338403
     40          6           0        2.049891   -2.115418   -0.030763
     41          6           0       -0.339607    1.532413   -0.525085
     42          6           0        0.421663    0.411799   -0.345953
     43          1           0      -11.156986    1.422182   -0.088725
     44          1           0      -12.750377   -2.047163    2.332350
     45          1           0      -11.016692   -1.960873    1.419787
     46          1           0      -12.430201   -3.246991   -0.007617
     47          1           0      -10.081578   -0.263904    2.703068
     48          1           0      -10.627506    1.385183    2.677266
     49          1           0      -11.704455    0.059312    3.566305
     50          1           0      -13.645806    0.424620    0.572038
     51          1           0      -13.598537    0.451949    2.266738
     52          1           0      -12.836334    1.913271    1.444997
     53          1           0       12.187637    2.343350    0.267046
     54          1           0       12.867438    2.039463    1.866855
     55          1           0      -12.576302   -1.847491   -2.036181
     56          1           0       13.675465   -0.200314    1.228339
     57          1           0       -9.279382   -0.995276    0.092783
     58          1           0       13.598448   -0.932030   -1.472906
     59          1           0       13.086308    0.841201   -1.596446
     60          1           0        9.052325    1.571531    1.633812
     61          1           0        9.860384    2.476693    0.481193
     62          1           0       10.386343    2.654861    1.998286
     63          1           0       11.769720   -0.681086    2.571105
     64          1           0       10.067559   -0.399608    2.735201
     65          1           0       11.441742    0.651405    3.530676
     66          1           0      -10.103131    0.293504   -2.507565
     67          1           0      -11.770330    1.291344   -2.327625
     68          1           0      -11.735883   -0.339805   -3.252348
     69          1           0      -14.614599   -2.272797   -0.249358
     70          1           0        8.613347    0.209415    0.389840
     71          1           0       -8.712013    1.820960   -0.364072
     72          1           0       11.750143   -2.441776   -1.713749
     73          1           0       10.265743   -1.282037   -2.388650
     74          1           0       12.011668   -1.240473   -2.789539
     75          1           0       15.051027    1.573966    0.946287
     76          1           0        9.430573   -2.470597   -0.271860
     77          1           0       -5.554717   -1.069172    0.217685
     78          1           0       -6.954001   -1.137020    1.036371
     79          1           0       -7.283666   -1.594177   -0.411169
     80          1           0       -6.571445    2.473164   -0.723308
     81          1           0        6.807849   -3.874845    0.993173
     82          1           0        6.191636   -3.977025   -0.545103
     83          1           0        8.008677   -4.289108   -0.345926
     84          1           0        6.515027   -0.107844   -0.648245
     85          1           0       -4.276478    0.548277   -0.568472
     86          1           0        4.683784   -2.686585   -0.074764
     87          1           0       -4.663806    3.689568   -0.598655
     88          1           0        4.321199    0.364012   -0.466344
     89          1           0       -1.532461    3.938731   -2.114439
     90          1           0       -1.257578    4.305787   -0.612045
     91          1           0       -2.669773    4.819683   -1.057376
     92          1           0       -2.100240    0.764387   -0.159433
     93          1           0        2.567752    1.276426   -0.614766
     94          1           0        2.704672   -2.630370    0.809028
     95          1           0        0.912980   -2.139197    0.277010
     96          1           0        2.114994   -2.776838   -0.861711
     97          1           0        0.278535    2.401793   -0.920411
     98          1           0       -0.074398   -0.492386   -0.024660
 ---------------------------------------------------------------------

 SCF Done:  E(RCAM-B3LYP) =  -1706.97499220     A.U. after   15 cycles

 Excitation energies and oscillator strengths:

 Excited State   1:      Singlet-A      1.9513 eV  635.39 nm  f=3.2921  <S**2>=0.000
     155 ->158         0.16171
     156 ->157         0.68876
 This state for optimization and/or second-order correction.
 Total Energy, E(TD-HF/TD-DFT) =  -1706.90328274
 Copying the excited state density for this state as the 1-particle RhoCI density.

 The electronic state is 1-A.
 Alpha  occ. eigenvalues --  -19.22722 -19.20400 -10.31225 -10.30905 -10.28151
 Alpha  occ. eigenvalues --  -10.28092 -10.28068 -10.27460 -10.27386 -10.26732
 Alpha  occ. eigenvalues --  -10.26589 -10.26549 -10.26529 -10.26514 -10.26465
 Alpha  occ. eigenvalues --  -10.26452 -10.26404 -10.26331 -10.26313 -10.26306
 Alpha  occ. eigenvalues --  -10.26281 -10.26112 -10.26106 -10.25969 -10.25930
 Alpha  occ. eigenvalues --  -10.25900 -10.25847 -10.25805 -10.25780 -10.25291
 Alpha  occ. eigenvalues --  -10.25275 -10.25250 -10.25172 -10.24986 -10.24755
 Alpha  occ. eigenvalues --  -10.24561 -10.24376 -10.24302 -10.24067 -10.23174
 Alpha  occ. eigenvalues --  -10.23009 -10.22578  -1.13832  -1.10479  -0.94336
 Alpha  occ. eigenvalues --   -0.93184  -0.92227  -0.91388  -0.90566  -0.89701
 Alpha  occ. eigenvalues --   -0.88134  -0.87753  -0.87392  -0.85528  -0.84472
 Alpha  occ. eigenvalues --   -0.83370  -0.82499  -0.81307  -0.80110  -0.78856
 Alpha  occ. eigenvalues --   -0.77466  -0.76784  -0.76266  -0.76050  -0.75794
 Alpha  occ. eigenvalues --   -0.75461  -0.74929  -0.73726  -0.72758  -0.70545
 Alpha  occ. eigenvalues --   -0.69543  -0.68271  -0.66824  -0.65529  -0.64313
 Alpha  occ. eigenvalues --   -0.63861  -0.62297  -0.61769  -0.61108  -0.60739
 Alpha  occ. eigenvalues --   -0.59820  -0.59616  -0.59184  -0.57730  -0.56485
 Alpha  occ. eigenvalues --   -0.56242  -0.55502  -0.54786  -0.54414  -0.53835
 Alpha  occ. eigenvalues --   -0.53466  -0.53014  -0.52861  -0.52056  -0.51304
 Alpha  occ. eigenvalues --   -0.50765  -0.50293  -0.50030  -0.49569  -0.49393
 Alpha  occ. eigenvalues --   -0.49271  -0.48982  -0.48571  -0.48006  -0.47857
 Alpha  occ. eigenvalues --   -0.47676  -0.47577  -0.47494  -0.46760  -0.46668
 Alpha  occ. eigenvalues --   -0.46395  -0.45883  -0.45799  -0.45371  -0.45009
 Alpha  occ. eigenvalues --   -0.44514  -0.44361  -0.44218  -0.43990  -0.43343
 Alpha  occ. eigenvalues --   -0.43222  -0.42892  -0.42538  -0.42425  -0.42135
 Alpha  occ. eigenvalues --   -0.41798  -0.41398  -0.41207  -0.41181  -0.40959
 Alpha  occ. eigenvalues --   -0.40778  -0.40341  -0.40178  -0.39932  -0.39646
 Alpha  occ. eigenvalues --   -0.38888  -0.38864  -0.38381  -0.38265  -0.38074
 Alpha  occ. eigenvalues --   -0.37920  -0.37725  -0.37417  -0.36080  -0.35624
 Alpha  occ. eigenvalues --   -0.35021  -0.34217  -0.33096  -0.32306  -0.31947
 Alpha  occ. eigenvalues --   -0.31518  -0.29550  -0.28062  -0.25769  -0.22465
 Alpha  occ. eigenvalues --   -0.18631
 Alpha virt. eigenvalues --   -0.06245  -0.01921   0.02381   0.05534   0.07346
 Alpha virt. eigenvalues --    0.08923   0.11110   0.11438   0.12053   0.12295
 Alpha virt. eigenvalues --    0.12870   0.13265   0.13601   0.14173   0.14528

 Mulliken charges:
               1
     1  O   -0.535556
     2  O   -0.517879
     3  C    0.021450
     4  C   -0.127794
     5  C   -0.152803
     6  C    0.134194
     7  C    0.111915
     8  C   -0.022335
     9  C   -0.281550
    10  C   -0.288888
    11  C   -0.210300
    12  C   -0.125320
    13  C    0.181390
    14  C    0.048227
    15  C   -0.076801
    16  C   -0.238035
    17  C    0.102746
    18  C   -0.308323
    19  C   -0.299649
    20  C   -0.334324
    21  C   -0.082453
    22  C   -0.096414
    23  C   -0.381833
    24  C    0.095750
    25  C   -0.112929
    26  C   -0.386666
    27  C    0.082456
    28  C   -0.145676
    29  C   -0.373129
    30  C   -0.123044
    31  C   -0.045172
    32  C   -0.069931
    33  C   -0.130868
    34  C    0.052246
    35  C   -0.132229
    36  C    0.144167
    37  C   -0.367209
    38  C   -0.064455
    39  C   -0.127933
    40  C   -0.376364
    41  C   -0.060552
    42  C   -0.099692
    43  H    0.088537
    44  H    0.109351
    45  H    0.095201
    46  H    0.055794
    47  H    0.100544
    48  H    0.086393
    49  H    0.046516
    50  H    0.104329
    51  H    0.097673
    52  H    0.089596
    53  H    0.091204
    54  H    0.083462
    55  H    0.056069
    56  H    0.051678
    57  H    0.079548
    58  H    0.070691
    59  H    0.128443
    60  H    0.111291
    61  H    0.109087
    62  H    0.097743
    63  H    0.107375
    64  H    0.112047
    65  H    0.076305
    66  H    0.105736
    67  H    0.115028
    68  H    0.109856
    69  H    0.294884
    70  H    0.074583
    71  H    0.080419
    72  H    0.118658
    73  H    0.123572
    74  H    0.113019
    75  H    0.310022
    76  H    0.070817
    77  H    0.121097
    78  H    0.137966
    79  H    0.112019
    80  H    0.073171
    81  H    0.123065
    82  H    0.104561
    83  H    0.125286
    84  H    0.085348
    85  H    0.091651
    86  H    0.081905
    87  H    0.085612
    88  H    0.075957
    89  H    0.127378
    90  H    0.132231
    91  H    0.096818
    92  H    0.043454
    93  H    0.054977
    94  H    0.097823
    95  H    0.095087
    96  H    0.133248
    97  H    0.079805
    98  H    0.077632
 Sum of Mulliken charges =  -0.00000

 Dipole moment (field-independent basis, Debye):
    X=              1.4522    Y=             -0.6481    Z=             -0.4747  Tot=              1.6596
 Quadrupole moment (field-independent basis, Debye-Ang):
   XX=           -248.1850   YY=           -242.2899   ZZ=           -265.8811
   XY=             11.1019   XZ=             40.7059   YZ=              2.2943

 Normal termination of Gaussian 16 at Sun Jul 14 12:54:13 2019.
