 Gaussian 16, Revision A.03,
 Gaussian 16:  ES64L-G16RevA.03 25-Dec-2016

 -------------------------------------
 # td=(NStates=1) CAM-B3LYP/6-31G(d,p)
 -------------------------------------

 --
 TD
 --
 Symbolic Z-matrix:
 Charge =  0 Multiplicity = 1

                         Standard orientation:
 ---------------------------------------------------------------------
 Center     Atomic      Atomic             Coordinates (Angstroms)
 Number     Number       Type             X           Y           Z
 ---------------------------------------------------------------------
      1          8           0      -14.133709   -1.953729    0.554059
      2          8           0       14.871125    0.829177    0.375153
      3          6           0      -11.833437    0.052928    1.412834
      4          6           0      -11.159005    0.380331    0.100501
      5          6           0      -12.044546   -1.538553    1.562840
      6          6           0      -12.676534   -2.128739    0.330181
      7          6           0      -11.715237   -0.333163   -1.143787
      8          6           0       11.075344    0.959650    1.196314
      9          6           0      -10.899502    0.494479    2.651286
     10          6           0      -13.144818    0.790861    1.373212
     11          6           0       12.551797    1.513855    0.921015
     12          6           0      -12.399741   -1.459077   -0.993775
     13          6           0       13.509093    0.442852    0.529649
     14          6           0       10.664076   -0.016189    0.062326
     15          6           0       -9.602301   -0.058935    0.085323
     16          6           0       13.037106   -0.155821   -0.816258
     17          6           0       11.567011   -0.453092   -0.853192
     18          6           0       10.202386    2.156706    1.162821
     19          6           0       11.017817    0.250031    2.580331
     20          6           0      -11.377672    0.279527   -2.471473
     21          6           0       -8.432925    0.758327   -0.117786
     22          6           0        9.327984   -0.580028    0.173347
     23          6           0       11.185411   -1.208903   -2.053718
     24          6           0       -7.095198    0.452090   -0.219636
     25          6           0        8.814278   -1.822549   -0.159678
     26          6           0       -6.730603   -0.962352    0.100725
     27          6           0        7.452493   -2.134308   -0.142025
     28          6           0       -6.209134    1.495281   -0.400140
     29          6           0        7.007215   -3.602377   -0.141172
     30          6           0        6.481946   -1.264888   -0.166354
     31          6           0       -4.747731    1.478135   -0.336173
     32          6           0        5.035311   -1.561726   -0.303649
     33          6           0       -3.962688    2.607991   -0.729965
     34          6           0       -2.505910    2.619463   -0.812316
     35          6           0        4.060710   -0.615317   -0.534942
     36          6           0        2.687140   -0.706826   -0.340598
     37          6           0       -1.972262    3.958815   -1.058163
     38          6           0       -1.673219    1.505585   -0.587975
     39          6           0        1.803045    0.249409   -0.564147
     40          6           0        2.180189   -2.143717   -0.064441
     41          6           0       -0.348964    1.525612   -0.623645
     42          6           0        0.390763    0.269131   -0.426330
     43          1           0      -11.273394    1.306071   -0.155424
     44          1           0      -12.617214   -1.795984    2.378608
     45          1           0      -10.886368   -1.810415    1.564326
     46          1           0      -12.616247   -3.209707    0.327272
     47          1           0      -10.263561   -0.257126    2.712871
     48          1           0      -10.559891    1.495827    2.479648
     49          1           0      -11.391198    0.488656    3.563011
     50          1           0      -13.606017    0.396737    0.508503
     51          1           0      -13.950701    0.671749    2.240041
     52          1           0      -12.867812    1.815966    1.382361
     53          1           0       12.464677    2.260070    0.073062
     54          1           0       12.935209    2.087185    1.690288
     55          1           0      -12.746765   -1.996040   -1.985294
     56          1           0       13.310767   -0.318270    1.400669
     57          1           0       -9.457546   -1.137553    0.277866
     58          1           0       13.766070   -0.941540   -1.053181
     59          1           0       13.293256    0.671046   -1.619283
     60          1           0        9.167365    1.782978    1.268939
     61          1           0       10.239489    2.752691    0.193074
     62          1           0       10.332668    2.905985    2.073505
     63          1           0       11.761717   -0.518767    2.663221
     64          1           0       10.102906   -0.236609    2.848079
     65          1           0       11.320810    0.951258    3.367754
     66          1           0      -10.369605    0.218842   -2.719867
     67          1           0      -11.749409    1.215409   -2.611916
     68          1           0      -11.846971   -0.291860   -3.402223
     69          1           0      -14.728412   -2.039911   -0.364001
     70          1           0        8.621070    0.163976    0.910133
     71          1           0       -8.574105    1.766526   -0.369489
     72          1           0       11.535941   -2.227832   -1.989764
     73          1           0       10.190258   -1.298872   -2.202989
     74          1           0       11.672289   -0.799872   -2.927658
     75          1           0       14.906580    1.518372    1.165879
     76          1           0        9.465523   -2.519790   -0.402921
     77          1           0       -5.623756   -1.189746   -0.261301
     78          1           0       -6.988397   -1.019094    1.050047
     79          1           0       -7.559475   -1.625543   -0.542790
     80          1           0       -6.588088    2.493836   -0.509102
     81          1           0        6.431017   -3.926755    0.722860
     82          1           0        6.303877   -3.752642   -1.102339
     83          1           0        7.877455   -4.089458   -0.202076
     84          1           0        6.698184   -0.181691   -0.099307
     85          1           0       -4.393995    0.438577   -0.535568
     86          1           0        4.726794   -2.576601    0.087322
     87          1           0       -4.476001    3.451079   -1.035645
     88          1           0        4.476864    0.587196   -0.631164
     89          1           0       -1.425014    3.885334   -1.967880
     90          1           0       -1.388671    4.484665   -0.315692
     91          1           0       -2.974535    4.544031   -1.406837
     92          1           0       -2.248064    0.545549   -0.414528
     93          1           0        2.138980    1.220223   -0.986577
     94          1           0        2.154351   -2.429855    1.049694
     95          1           0        1.121520   -2.613499   -0.471798
     96          1           0        3.082139   -2.987989   -0.684304
     97          1           0        0.285948    2.379121   -1.165432
     98          1           0       -0.229980   -0.676505   -0.384581
 ---------------------------------------------------------------------

 SCF Done:  E(RCAM-B3LYP) =  -1706.92558503     A.U. after   15 cycles

 Excitation energies and oscillator strengths:

 Excited State   1:      Singlet-A      1.9696 eV  629.48 nm  f=2.9383  <S**2>=0.000
     155 ->158        -0.14191
     156 ->157         0.69538
     156 <-157        -0.10194
 This state for optimization and/or second-order correction.
 Total Energy, E(TD-HF/TD-DFT) =  -1706.85320276
 Copying the excited state density for this state as the 1-particle RhoCI density.

 The electronic state is 1-A.
 Alpha  occ. eigenvalues --  -19.22631 -19.20572 -10.30556 -10.30527 -10.29226
 Alpha  occ. eigenvalues --  -10.28138 -10.28045 -10.27960 -10.27791 -10.27762
 Alpha  occ. eigenvalues --  -10.27700 -10.27683 -10.27571 -10.27256 -10.27131
 Alpha  occ. eigenvalues --  -10.26992 -10.26988 -10.26953 -10.26700 -10.26696
 Alpha  occ. eigenvalues --  -10.26694 -10.26538 -10.26254 -10.26230 -10.26191
 Alpha  occ. eigenvalues --  -10.26101 -10.26070 -10.25951 -10.25937 -10.25894
 Alpha  occ. eigenvalues --  -10.25670 -10.25521 -10.25457 -10.25224 -10.25058
 Alpha  occ. eigenvalues --  -10.25001 -10.24957 -10.24683 -10.24408 -10.23418
 Alpha  occ. eigenvalues --  -10.22765 -10.22196  -1.08942  -1.05119  -0.93859
 Alpha  occ. eigenvalues --   -0.93425  -0.92411  -0.91916  -0.91421  -0.90697
 Alpha  occ. eigenvalues --   -0.87718  -0.86813  -0.86627  -0.85035  -0.83961
 Alpha  occ. eigenvalues --   -0.82807  -0.82220  -0.80486  -0.79683  -0.77999
 Alpha  occ. eigenvalues --   -0.77618  -0.77077  -0.76969  -0.76771  -0.76080
 Alpha  occ. eigenvalues --   -0.75733  -0.75030  -0.74290  -0.72676  -0.70229
 Alpha  occ. eigenvalues --   -0.68951  -0.67795  -0.67010  -0.64519  -0.64030
 Alpha  occ. eigenvalues --   -0.63540  -0.63075  -0.62547  -0.60219  -0.59037
 Alpha  occ. eigenvalues --   -0.58305  -0.57731  -0.57508  -0.56572  -0.56030
 Alpha  occ. eigenvalues --   -0.55441  -0.55240  -0.54905  -0.54752  -0.53780
 Alpha  occ. eigenvalues --   -0.52999  -0.52759  -0.51952  -0.51766  -0.51501
 Alpha  occ. eigenvalues --   -0.50863  -0.50578  -0.50462  -0.50068  -0.49791
 Alpha  occ. eigenvalues --   -0.49420  -0.49098  -0.48808  -0.48521  -0.47994
 Alpha  occ. eigenvalues --   -0.47903  -0.47238  -0.47124  -0.46889  -0.46612
 Alpha  occ. eigenvalues --   -0.46483  -0.46300  -0.46169  -0.45944  -0.45277
 Alpha  occ. eigenvalues --   -0.45017  -0.44467  -0.44120  -0.43448  -0.43249
 Alpha  occ. eigenvalues --   -0.43050  -0.42719  -0.42475  -0.42312  -0.42049
 Alpha  occ. eigenvalues --   -0.41571  -0.41529  -0.41382  -0.40950  -0.40503
 Alpha  occ. eigenvalues --   -0.40316  -0.39927  -0.39590  -0.39571  -0.39407
 Alpha  occ. eigenvalues --   -0.38893  -0.38687  -0.38467  -0.38236  -0.37665
 Alpha  occ. eigenvalues --   -0.37544  -0.37178  -0.36002  -0.35564  -0.35451
 Alpha  occ. eigenvalues --   -0.35257  -0.35035  -0.33731  -0.32324  -0.32048
 Alpha  occ. eigenvalues --   -0.31256  -0.29944  -0.29352  -0.26252  -0.23498
 Alpha  occ. eigenvalues --   -0.19409
 Alpha virt. eigenvalues --   -0.06906  -0.01752   0.01323   0.05032   0.06678
 Alpha virt. eigenvalues --    0.07994   0.10284   0.10919   0.11054   0.11287
 Alpha virt. eigenvalues --    0.12209   0.12622   0.13051   0.13292   0.13672

 Mulliken charges:
               1
     1  O   -0.585569
     2  O   -0.555482
     3  C   -0.012025
     4  C   -0.082574
     5  C   -0.169353
     6  C    0.154528
     7  C    0.097814
     8  C   -0.020122
     9  C   -0.290675
    10  C   -0.277490
    11  C   -0.199832
    12  C   -0.139573
    13  C    0.176992
    14  C    0.085339
    15  C   -0.126523
    16  C   -0.230028
    17  C    0.051513
    18  C   -0.291198
    19  C   -0.311358
    20  C   -0.364695
    21  C   -0.098107
    22  C   -0.112675
    23  C   -0.366248
    24  C    0.123281
    25  C   -0.105826
    26  C   -0.350880
    27  C    0.103511
    28  C   -0.145142
    29  C   -0.360334
    30  C   -0.121508
    31  C   -0.086160
    32  C   -0.106136
    33  C   -0.121450
    34  C    0.080997
    35  C   -0.118895
    36  C    0.156036
    37  C   -0.374101
    38  C   -0.080820
    39  C   -0.128603
    40  C   -0.354738
    41  C   -0.096273
    42  C   -0.092586
    43  H    0.085277
    44  H    0.125234
    45  H    0.073836
    46  H    0.094277
    47  H    0.103133
    48  H    0.100532
    49  H    0.101844
    50  H    0.115746
    51  H    0.080187
    52  H    0.085756
    53  H    0.089624
    54  H    0.079490
    55  H    0.068837
    56  H    0.059899
    57  H    0.086619
    58  H    0.120870
    59  H    0.103146
    60  H    0.095409
    61  H    0.104927
    62  H    0.085601
    63  H    0.109861
    64  H    0.115702
    65  H    0.096731
    66  H    0.138905
    67  H    0.126282
    68  H    0.086569
    69  H    0.301117
    70  H    0.064999
    71  H    0.071519
    72  H    0.113868
    73  H    0.126102
    74  H    0.110649
    75  H    0.306951
    76  H    0.082117
    77  H    0.097278
    78  H    0.151364
    79  H    0.092067
    80  H    0.079509
    81  H    0.126290
    82  H    0.106135
    83  H    0.102190
    84  H    0.072334
    85  H    0.087157
    86  H    0.097224
    87  H    0.091715
    88  H    0.061623
    89  H    0.128508
    90  H    0.137324
    91  H    0.082488
    92  H    0.081994
    93  H    0.077445
    94  H    0.119197
    95  H    0.096433
    96  H    0.060765
    97  H    0.094265
    98  H    0.092041
 Sum of Mulliken charges =  -0.00000

 Dipole moment (field-independent basis, Debye):
    X=             -0.4260    Y=              0.6055    Z=             -0.8339  Tot=              1.1151
 Quadrupole moment (field-independent basis, Debye-Ang):
   XX=           -288.9661   YY=           -245.6237   ZZ=           -258.9757
   XY=              5.7691   XZ=             37.1145   YZ=              0.8869

 Normal termination of Gaussian 16 at Sat Jul 13 15:29:10 2019.
