 Gaussian 16, Revision A.03,
 Gaussian 16:  ES64L-G16RevA.03 25-Dec-2016

 -------------------------------------
 # td=(NStates=1) CAM-B3LYP/6-31G(d,p)
 -------------------------------------

 --
 TD
 --
 Symbolic Z-matrix:
 Charge =  0 Multiplicity = 1

                         Standard orientation:
 ---------------------------------------------------------------------
 Center     Atomic      Atomic             Coordinates (Angstroms)
 Number     Number       Type             X           Y           Z
 ---------------------------------------------------------------------
      1          8           0      -14.070387   -2.048983    0.498857
      2          8           0       14.676240    0.924922   -0.217739
      3          6           0      -11.783416   -0.059623    1.215701
      4          6           0      -10.976903    0.188381   -0.125409
      5          6           0      -11.946296   -1.521046    1.361674
      6          6           0      -12.598574   -2.182305    0.159839
      7          6           0      -11.580432   -0.466503   -1.348637
      8          6           0       11.155894    0.950552    1.021200
      9          6           0      -10.962205    0.531548    2.364377
     10          6           0      -13.118155    0.869182    1.195957
     11          6           0       12.508462    1.546802    0.639407
     12          6           0      -12.330780   -1.583215   -1.137586
     13          6           0       13.477773    0.456827    0.220447
     14          6           0       10.667014    0.013810   -0.057473
     15          6           0       -9.501538   -0.115234    0.004155
     16          6           0       12.948857   -0.277396   -1.022614
     17          6           0       11.466611   -0.582645   -1.016195
     18          6           0       10.110722    2.037853    1.132309
     19          6           0       11.267313    0.322366    2.491288
     20          6           0      -11.384995    0.163580   -2.679752
     21          6           0       -8.528733    0.733288   -0.141506
     22          6           0        9.219762   -0.459023    0.169092
     23          6           0       11.003032   -1.586500   -2.080369
     24          6           0       -7.074793    0.567654   -0.094671
     25          6           0        8.818690   -1.750306   -0.171103
     26          6           0       -6.610004   -0.946494   -0.053430
     27          6           0        7.404005   -2.218127   -0.126987
     28          6           0       -6.226840    1.580197   -0.166665
     29          6           0        7.058613   -3.566553    0.206386
     30          6           0        6.346242   -1.267687   -0.161359
     31          6           0       -4.763785    1.562036   -0.264842
     32          6           0        5.015233   -1.410678    0.031948
     33          6           0       -3.971110    2.655481   -0.553573
     34          6           0       -2.628416    2.673247   -0.495671
     35          6           0        4.042136   -0.407946   -0.276219
     36          6           0        2.667052   -0.652666   -0.074415
     37          6           0       -1.951761    3.926534   -1.168976
     38          6           0       -1.800736    1.617496   -0.090883
     39          6           0        1.800526    0.367570   -0.291250
     40          6           0        2.093027   -2.071206    0.354264
     41          6           0       -0.391710    1.602520   -0.210231
     42          6           0        0.410663    0.407240   -0.036179
     43          1           0      -10.911523    1.351416   -0.236465
     44          1           0      -12.426810   -1.918678    2.341197
     45          1           0      -10.820606   -1.832400    1.528575
     46          1           0      -12.412554   -3.125633    0.112582
     47          1           0      -10.003088   -0.128027    2.351120
     48          1           0      -11.027580    1.604272    2.296056
     49          1           0      -11.461078    0.642031    3.307217
     50          1           0      -13.582910    0.564244    0.338101
     51          1           0      -13.646518    0.662861    2.096860
     52          1           0      -12.952031    1.889741    1.192189
     53          1           0       12.356147    2.101539   -0.187616
     54          1           0       13.030399    2.013293    1.359093
     55          1           0      -12.598638   -2.094040   -2.033347
     56          1           0       13.723872   -0.131483    1.026870
     57          1           0       -9.130204   -1.136350    0.190249
     58          1           0       13.464666   -1.204728   -1.155014
     59          1           0       13.087572    0.464315   -1.742234
     60          1           0        9.224142    1.575477    1.771817
     61          1           0       10.091379    2.557596    0.078388
     62          1           0       10.483359    2.742985    1.704062
     63          1           0       12.119105   -0.320120    2.649288
     64          1           0       10.266370   -0.209481    2.430072
     65          1           0       11.485791    1.100494    3.204790
     66          1           0      -10.319198    0.375157   -2.616296
     67          1           0      -11.864167    1.177665   -2.665459
     68          1           0      -11.852428   -0.438014   -3.483282
     69          1           0      -14.453504   -2.222856   -0.341459
     70          1           0        8.500474    0.256863    0.519963
     71          1           0       -8.810569    1.849808   -0.338899
     72          1           0       11.189907   -2.610510   -1.600900
     73          1           0        9.929213   -1.539265   -2.313899
     74          1           0       11.573996   -1.479411   -2.922292
     75          1           0       15.291082    1.432121    0.529067
     76          1           0        9.550211   -2.581268   -0.535158
     77          1           0       -5.485885   -1.133237    0.480118
     78          1           0       -7.307226   -1.554261    0.762202
     79          1           0       -6.605962   -1.707926   -0.888070
     80          1           0       -6.520476    2.587986   -0.251113
     81          1           0        7.021302   -3.822458    1.439586
     82          1           0        6.191076   -4.083896   -0.180824
     83          1           0        7.832106   -4.303422   -0.015041
     84          1           0        6.628289   -0.157595   -0.355297
     85          1           0       -4.357794    0.616042   -0.286716
     86          1           0        4.318341   -2.311533    0.375386
     87          1           0       -4.433511    3.608639   -0.672069
     88          1           0        4.335346    0.501006   -0.585406
     89          1           0       -1.793213    3.774614   -2.328235
     90          1           0       -0.910064    4.454564   -0.642328
     91          1           0       -2.844249    4.804594   -0.813991
     92          1           0       -2.247173    0.635093    0.103784
     93          1           0        2.253755    1.222498   -0.759875
     94          1           0        3.008586   -2.448527    1.252506
     95          1           0        0.991884   -2.128202    0.920660
     96          1           0        2.077026   -2.838889   -0.559312
     97          1           0        0.096117    2.444445   -0.476309
     98          1           0       -0.292060   -0.450722    0.043870
 ---------------------------------------------------------------------

 SCF Done:  E(RCAM-B3LYP) =  -1706.89292568     A.U. after   15 cycles

 Excitation energies and oscillator strengths:

 Excited State   1:      Singlet-A      2.0127 eV  616.00 nm  f=2.9293  <S**2>=0.000
     155 ->158         0.14600
     156 ->157         0.69472
 This state for optimization and/or second-order correction.
 Total Energy, E(TD-HF/TD-DFT) =  -1706.81895935
 Copying the excited state density for this state as the 1-particle RhoCI density.

 The electronic state is 1-A.
 Alpha  occ. eigenvalues --  -19.21411 -19.19838 -10.30503 -10.30107 -10.29126
 Alpha  occ. eigenvalues --  -10.29074 -10.28580 -10.28450 -10.27606 -10.27494
 Alpha  occ. eigenvalues --  -10.27439 -10.27362 -10.27297 -10.27172 -10.27170
 Alpha  occ. eigenvalues --  -10.26759 -10.26547 -10.26429 -10.26408 -10.26401
 Alpha  occ. eigenvalues --  -10.26377 -10.26367 -10.26244 -10.26111 -10.26104
 Alpha  occ. eigenvalues --  -10.26088 -10.26048 -10.25974 -10.25928 -10.25867
 Alpha  occ. eigenvalues --  -10.25800 -10.25758 -10.25718 -10.25712 -10.25077
 Alpha  occ. eigenvalues --  -10.24756 -10.24578 -10.24459 -10.24037 -10.23662
 Alpha  occ. eigenvalues --  -10.22213 -10.21823  -1.09558  -1.07280  -0.93845
 Alpha  occ. eigenvalues --   -0.93050  -0.92354  -0.91627  -0.90332  -0.89635
 Alpha  occ. eigenvalues --   -0.87216  -0.87026  -0.86758  -0.85434  -0.84213
 Alpha  occ. eigenvalues --   -0.83014  -0.82231  -0.80091  -0.79642  -0.77339
 Alpha  occ. eigenvalues --   -0.76852  -0.76367  -0.75676  -0.75456  -0.75352
 Alpha  occ. eigenvalues --   -0.75032  -0.74900  -0.74612  -0.72271  -0.70571
 Alpha  occ. eigenvalues --   -0.69081  -0.68510  -0.66510  -0.65110  -0.64175
 Alpha  occ. eigenvalues --   -0.63407  -0.62943  -0.62572  -0.60930  -0.60011
 Alpha  occ. eigenvalues --   -0.59610  -0.59542  -0.58033  -0.57234  -0.56112
 Alpha  occ. eigenvalues --   -0.55106  -0.55041  -0.54770  -0.54006  -0.53842
 Alpha  occ. eigenvalues --   -0.53439  -0.52584  -0.52427  -0.52030  -0.51251
 Alpha  occ. eigenvalues --   -0.50723  -0.50403  -0.49891  -0.49817  -0.49445
 Alpha  occ. eigenvalues --   -0.48767  -0.48223  -0.48205  -0.47797  -0.47587
 Alpha  occ. eigenvalues --   -0.47475  -0.47361  -0.46703  -0.46448  -0.46087
 Alpha  occ. eigenvalues --   -0.45825  -0.45727  -0.45614  -0.44836  -0.44432
 Alpha  occ. eigenvalues --   -0.44269  -0.44106  -0.44086  -0.43616  -0.43373
 Alpha  occ. eigenvalues --   -0.43039  -0.42849  -0.42599  -0.42201  -0.42090
 Alpha  occ. eigenvalues --   -0.41484  -0.41435  -0.41132  -0.40930  -0.40672
 Alpha  occ. eigenvalues --   -0.40297  -0.39864  -0.39737  -0.39237  -0.39171
 Alpha  occ. eigenvalues --   -0.38792  -0.38238  -0.37751  -0.37626  -0.37158
 Alpha  occ. eigenvalues --   -0.37053  -0.36657  -0.36211  -0.35724  -0.35300
 Alpha  occ. eigenvalues --   -0.34862  -0.33814  -0.33599  -0.32468  -0.31967
 Alpha  occ. eigenvalues --   -0.31147  -0.29273  -0.28994  -0.27007  -0.23819
 Alpha  occ. eigenvalues --   -0.19116
 Alpha virt. eigenvalues --   -0.06456  -0.01448   0.03010   0.05029   0.06387
 Alpha virt. eigenvalues --    0.08609   0.09549   0.10726   0.10966   0.11580
 Alpha virt. eigenvalues --    0.12051   0.12367   0.12851   0.13093   0.13537

 Mulliken charges:
               1
     1  O   -0.554714
     2  O   -0.570905
     3  C    0.008888
     4  C   -0.156493
     5  C   -0.159346
     6  C    0.150734
     7  C    0.136940
     8  C   -0.046067
     9  C   -0.281640
    10  C   -0.301826
    11  C   -0.158907
    12  C   -0.168400
    13  C    0.179861
    14  C    0.071682
    15  C   -0.089824
    16  C   -0.218701
    17  C    0.022008
    18  C   -0.281488
    19  C   -0.304076
    20  C   -0.351398
    21  C   -0.070211
    22  C   -0.123204
    23  C   -0.365070
    24  C    0.130596
    25  C   -0.121320
    26  C   -0.372889
    27  C    0.096829
    28  C   -0.126762
    29  C   -0.374045
    30  C   -0.137218
    31  C   -0.065120
    32  C   -0.066188
    33  C   -0.101088
    34  C    0.085650
    35  C   -0.091153
    36  C    0.123838
    37  C   -0.336612
    38  C   -0.111942
    39  C   -0.133240
    40  C   -0.347718
    41  C   -0.062930
    42  C   -0.100949
    43  H    0.079472
    44  H    0.107618
    45  H    0.065551
    46  H    0.093746
    47  H    0.092095
    48  H    0.093645
    49  H    0.095159
    50  H    0.112773
    51  H    0.107930
    52  H    0.092767
    53  H    0.091072
    54  H    0.068263
    55  H    0.073181
    56  H    0.068971
    57  H    0.080430
    58  H    0.109674
    59  H    0.132757
    60  H    0.093093
    61  H    0.092669
    62  H    0.104711
    63  H    0.100084
    64  H    0.107098
    65  H    0.102744
    66  H    0.127477
    67  H    0.121649
    68  H    0.112458
    69  H    0.293329
    70  H    0.103910
    71  H    0.064304
    72  H    0.111663
    73  H    0.136387
    74  H    0.112334
    75  H    0.300761
    76  H    0.085742
    77  H    0.082665
    78  H    0.088473
    79  H    0.133716
    80  H    0.079345
    81  H    0.088832
    82  H    0.127249
    83  H    0.106405
    84  H    0.076753
    85  H    0.079773
    86  H    0.069557
    87  H    0.080787
    88  H    0.074735
    89  H    0.130713
    90  H    0.092984
    91  H    0.067236
    92  H    0.076112
    93  H    0.085503
    94  H    0.079991
    95  H    0.108670
    96  H    0.124081
    97  H    0.072450
    98  H    0.082872
 Sum of Mulliken charges =  -0.00000

 Dipole moment (field-independent basis, Debye):
    X=              1.8762    Y=             -0.1643    Z=             -1.1556  Tot=              2.2096
 Quadrupole moment (field-independent basis, Debye-Ang):
   XX=           -261.0628   YY=           -244.9646   ZZ=           -262.0003
   XY=              4.3774   XZ=             41.7717   YZ=              4.4961

 Normal termination of Gaussian 16 at Fri Jul 12 16:00:45 2019.
