 Gaussian 16, Revision A.03,
 Gaussian 16:  ES64L-G16RevA.03 25-Dec-2016

 -------------------------------------
 # td=(NStates=1) CAM-B3LYP/6-31G(d,p)
 -------------------------------------

 --
 TD
 --
 Symbolic Z-matrix:
 Charge =  0 Multiplicity = 1

                         Standard orientation:
 ---------------------------------------------------------------------
 Center     Atomic      Atomic             Coordinates (Angstroms)
 Number     Number       Type             X           Y           Z
 ---------------------------------------------------------------------
      1          8           0      -14.096160   -1.996442    0.760146
      2          8           0       14.761381    0.958982    0.215791
      3          6           0      -11.754084    0.218380    1.138466
      4          6           0      -10.909391    0.262757   -0.076852
      5          6           0      -12.035243   -1.278837    1.626831
      6          6           0      -12.747811   -2.119485    0.494107
      7          6           0      -11.456530   -0.673971   -1.269734
      8          6           0       11.022887    0.927772    1.023713
      9          6           0      -11.032885    0.975430    2.411181
     10          6           0      -13.212011    0.934946    0.965156
     11          6           0       12.443265    1.516161    0.757184
     12          6           0      -12.330895   -1.663006   -0.924479
     13          6           0       13.469660    0.436344    0.372927
     14          6           0       10.549178   -0.047112   -0.024062
     15          6           0       -9.472539   -0.038020    0.007161
     16          6           0       12.946862   -0.191444   -0.863246
     17          6           0       11.538935   -0.554110   -0.884968
     18          6           0       10.100442    2.319755    1.057592
     19          6           0       10.885794    0.347180    2.418767
     20          6           0      -11.244326   -0.237423   -2.713291
     21          6           0       -8.415238    0.811995   -0.113002
     22          6           0        9.222482   -0.407923    0.123758
     23          6           0       11.164959   -1.485164   -2.151396
     24          6           0       -7.024581    0.518747   -0.064166
     25          6           0        8.766350   -1.651789   -0.108549
     26          6           0       -6.565489   -0.867027    0.170382
     27          6           0        7.424162   -2.175602    0.031276
     28          6           0       -6.090479    1.537127   -0.238770
     29          6           0        7.160932   -3.570142    0.247553
     30          6           0        6.393139   -1.261257   -0.110831
     31          6           0       -4.734432    1.536016   -0.329090
     32          6           0        4.989220   -1.556110   -0.057032
     33          6           0       -3.872544    2.595519   -0.842054
     34          6           0       -2.487947    2.628725   -0.845555
     35          6           0        4.030419   -0.661129   -0.202917
     36          6           0        2.630967   -0.779291   -0.119605
     37          6           0       -1.874583    3.941147   -1.065480
     38          6           0       -1.814102    1.502289   -0.740331
     39          6           0        1.744175    0.214364   -0.350100
     40          6           0        2.118222   -2.235887    0.067207
     41          6           0       -0.397802    1.291756   -0.679082
     42          6           0        0.252119    0.223635   -0.217670
     43          1           0      -11.079999    1.123678   -0.522958
     44          1           0      -12.477057   -1.349285    2.580067
     45          1           0      -11.151117   -1.675031    1.824546
     46          1           0      -12.478818   -3.173492    0.885227
     47          1           0      -10.032475    0.655897    2.744867
     48          1           0      -10.923313    2.115052    2.347765
     49          1           0      -11.868861    0.781163    3.201031
     50          1           0      -13.794034    0.378627    0.206976
     51          1           0      -13.672886    0.959013    1.864901
     52          1           0      -12.857958    2.067292    0.728474
     53          1           0       12.449452    2.347076    0.180310
     54          1           0       12.946289    2.040788    1.673891
     55          1           0      -12.779410   -2.185419   -1.892917
     56          1           0       13.542486   -0.407921    1.122758
     57          1           0       -9.208043   -1.143314    0.147654
     58          1           0       13.384866   -1.104866   -1.216899
     59          1           0       13.219308    0.493147   -1.583758
     60          1           0        8.930858    2.123042    1.215682
     61          1           0       10.151319    2.775244    0.006467
     62          1           0       10.736464    2.947703    1.866346
     63          1           0       11.536590   -0.513193    2.483219
     64          1           0        9.674213   -0.022566    2.473931
     65          1           0       11.109771    1.209912    3.216746
     66          1           0      -10.065507   -0.114675   -2.992856
     67          1           0      -11.737806    0.683511   -3.081099
     68          1           0      -11.597503   -1.347393   -3.266432
     69          1           0      -14.441954   -2.414477    0.057255
     70          1           0        8.458380    0.314602    0.295356
     71          1           0       -8.563822    1.843432   -0.481844
     72          1           0       11.600625   -2.495287   -1.851164
     73          1           0       10.176180   -1.448559   -2.442680
     74          1           0       11.784517   -1.140321   -3.101571
     75          1           0       15.159169    1.372136    1.004114
     76          1           0        9.457679   -2.439861   -0.041122
     77          1           0       -5.493826   -0.771659    0.240436
     78          1           0       -7.054244   -1.326907    1.030124
     79          1           0       -6.961035   -1.521009   -0.696065
     80          1           0       -6.721660    2.395481   -0.307556
     81          1           0        6.235583   -3.637010    1.142515
     82          1           0        6.752622   -4.087283   -0.617236
     83          1           0        8.245464   -4.080140    0.570846
     84          1           0        6.742818   -0.140603   -0.158534
     85          1           0       -4.024333    0.750108    0.006091
     86          1           0        4.595389   -2.606836    0.248944
     87          1           0       -4.420857    3.504182   -1.162209
     88          1           0        4.521111    0.380320   -0.459372
     89          1           0       -1.385855    3.849635   -2.073563
     90          1           0       -1.245025    4.323039   -0.247820
     91          1           0       -2.652323    4.699318   -1.238604
     92          1           0       -2.221592    0.516049   -0.217725
     93          1           0        2.046091    1.169494   -0.586318
     94          1           0        2.500044   -2.615049    1.145592
     95          1           0        1.172537   -1.984877    0.150207
     96          1           0        2.156690   -3.015519   -0.813408
     97          1           0        0.291626    2.102286   -0.793454
     98          1           0       -0.276138   -0.570893   -0.148657
 ---------------------------------------------------------------------

 SCF Done:  E(RCAM-B3LYP) =  -1706.90710554     A.U. after   15 cycles

 Excitation energies and oscillator strengths:

 Excited State   1:      Singlet-A      2.3689 eV  523.38 nm  f=2.9449  <S**2>=0.000
     155 ->158         0.18420
     156 ->157         0.66909
 This state for optimization and/or second-order correction.
 Total Energy, E(TD-HF/TD-DFT) =  -1706.82004945
 Copying the excited state density for this state as the 1-particle RhoCI density.

 The electronic state is 1-A.
 Alpha  occ. eigenvalues --  -19.21170 -19.21017 -10.32137 -10.30511 -10.29294
 Alpha  occ. eigenvalues --  -10.28474 -10.27954 -10.27807 -10.27528 -10.27431
 Alpha  occ. eigenvalues --  -10.27332 -10.27261 -10.27259 -10.27185 -10.27169
 Alpha  occ. eigenvalues --  -10.26918 -10.26907 -10.26822 -10.26317 -10.26266
 Alpha  occ. eigenvalues --  -10.26234 -10.26234 -10.26134 -10.26092 -10.26044
 Alpha  occ. eigenvalues --  -10.26040 -10.25909 -10.25796 -10.25751 -10.25741
 Alpha  occ. eigenvalues --  -10.25727 -10.25649 -10.25596 -10.25574 -10.25345
 Alpha  occ. eigenvalues --  -10.25032 -10.24981 -10.24848 -10.24778 -10.24428
 Alpha  occ. eigenvalues --  -10.23802 -10.23473  -1.13495  -1.09437  -0.93715
 Alpha  occ. eigenvalues --   -0.93462  -0.93100  -0.91788  -0.91268  -0.90513
 Alpha  occ. eigenvalues --   -0.87971  -0.86738  -0.85593  -0.85415  -0.85243
 Alpha  occ. eigenvalues --   -0.83167  -0.82586  -0.79978  -0.79856  -0.78251
 Alpha  occ. eigenvalues --   -0.77081  -0.76263  -0.75747  -0.75422  -0.75154
 Alpha  occ. eigenvalues --   -0.75020  -0.73682  -0.73619  -0.73314  -0.70878
 Alpha  occ. eigenvalues --   -0.69766  -0.68285  -0.66938  -0.65866  -0.64501
 Alpha  occ. eigenvalues --   -0.64050  -0.62608  -0.62453  -0.60720  -0.59499
 Alpha  occ. eigenvalues --   -0.59342  -0.59123  -0.58338  -0.57280  -0.56573
 Alpha  occ. eigenvalues --   -0.56189  -0.55515  -0.55151  -0.54808  -0.54382
 Alpha  occ. eigenvalues --   -0.53964  -0.52732  -0.52028  -0.51649  -0.51397
 Alpha  occ. eigenvalues --   -0.50800  -0.50293  -0.50200  -0.49756  -0.49118
 Alpha  occ. eigenvalues --   -0.48747  -0.48468  -0.48203  -0.47796  -0.47540
 Alpha  occ. eigenvalues --   -0.47366  -0.47042  -0.46715  -0.46443  -0.45888
 Alpha  occ. eigenvalues --   -0.45866  -0.45721  -0.44934  -0.44704  -0.44469
 Alpha  occ. eigenvalues --   -0.44420  -0.43932  -0.43790  -0.43705  -0.43365
 Alpha  occ. eigenvalues --   -0.43220  -0.43113  -0.42828  -0.42793  -0.42439
 Alpha  occ. eigenvalues --   -0.42026  -0.41480  -0.41161  -0.40960  -0.40518
 Alpha  occ. eigenvalues --   -0.40298  -0.40147  -0.39694  -0.39419  -0.39388
 Alpha  occ. eigenvalues --   -0.38849  -0.38707  -0.38466  -0.38266  -0.37619
 Alpha  occ. eigenvalues --   -0.37149  -0.36919  -0.36713  -0.35685  -0.35366
 Alpha  occ. eigenvalues --   -0.35092  -0.34108  -0.33739  -0.31988  -0.31982
 Alpha  occ. eigenvalues --   -0.31480  -0.30444  -0.29211  -0.26722  -0.22848
 Alpha  occ. eigenvalues --   -0.20303
 Alpha virt. eigenvalues --   -0.05363  -0.01751   0.02626   0.04805   0.06326
 Alpha virt. eigenvalues --    0.08840   0.10682   0.10967   0.11580   0.11919
 Alpha virt. eigenvalues --    0.12173   0.12354   0.12847   0.13998   0.14274

 Mulliken charges:
               1
     1  O   -0.493013
     2  O   -0.578643
     3  C    0.000168
     4  C   -0.078754
     5  C   -0.175257
     6  C    0.112064
     7  C    0.076750
     8  C   -0.040150
     9  C   -0.317691
    10  C   -0.283186
    11  C   -0.190816
    12  C   -0.141195
    13  C    0.183003
    14  C    0.101483
    15  C   -0.084115
    16  C   -0.202044
    17  C    0.011312
    18  C   -0.301657
    19  C   -0.253678
    20  C   -0.339483
    21  C   -0.101092
    22  C   -0.105950
    23  C   -0.347109
    24  C    0.123428
    25  C   -0.107335
    26  C   -0.367309
    27  C    0.106694
    28  C   -0.117477
    29  C   -0.359887
    30  C   -0.117633
    31  C   -0.075755
    32  C   -0.085630
    33  C   -0.140900
    34  C    0.144191
    35  C   -0.087612
    36  C    0.075155
    37  C   -0.379551
    38  C   -0.145225
    39  C   -0.125194
    40  C   -0.351244
    41  C   -0.086170
    42  C   -0.065556
    43  H    0.090824
    44  H    0.107786
    45  H    0.096797
    46  H    0.076376
    47  H    0.109992
    48  H    0.088526
    49  H    0.087945
    50  H    0.119763
    51  H    0.116597
    52  H    0.065153
    53  H    0.114543
    54  H    0.051355
    55  H    0.060334
    56  H    0.066937
    57  H    0.083595
    58  H    0.103722
    59  H    0.130786
    60  H    0.087972
    61  H    0.099913
    62  H    0.091649
    63  H    0.104815
    64  H    0.079445
    65  H    0.081708
    66  H    0.106728
    67  H    0.136224
    68  H    0.081460
    69  H    0.290908
    70  H    0.086306
    71  H    0.074389
    72  H    0.110768
    73  H    0.132981
    74  H    0.090567
    75  H    0.312089
    76  H    0.070979
    77  H    0.109667
    78  H    0.121509
    79  H    0.110142
    80  H    0.073353
    81  H    0.094796
    82  H    0.139592
    83  H    0.084191
    84  H    0.072714
    85  H    0.084897
    86  H    0.075179
    87  H    0.076884
    88  H    0.057824
    89  H    0.129098
    90  H    0.133158
    91  H    0.112949
    92  H    0.074203
    93  H    0.078019
    94  H    0.097078
    95  H    0.115387
    96  H    0.115247
    97  H    0.072653
    98  H    0.073596
 Sum of Mulliken charges =  -0.00000

 Dipole moment (field-independent basis, Debye):
    X=             -0.9257    Y=             -0.0810    Z=             -0.5497  Tot=              1.0797
 Quadrupole moment (field-independent basis, Debye-Ang):
   XX=           -265.4609   YY=           -244.7413   ZZ=           -263.2964
   XY=              9.6566   XZ=             30.8867   YZ=              0.8740

 Normal termination of Gaussian 16 at Sat Jul 13 02:59:18 2019.
