 Gaussian 16, Revision A.03,
 Gaussian 16:  ES64L-G16RevA.03 25-Dec-2016

 -------------------------------------
 # td=(NStates=1) CAM-B3LYP/6-31G(d,p)
 -------------------------------------

 --
 TD
 --
 Symbolic Z-matrix:
 Charge =  0 Multiplicity = 1

                         Standard orientation:
 ---------------------------------------------------------------------
 Center     Atomic      Atomic             Coordinates (Angstroms)
 Number     Number       Type             X           Y           Z
 ---------------------------------------------------------------------
      1          8           0      -14.072529   -2.078480    0.826869
      2          8           0       14.832224    0.689090    0.189269
      3          6           0      -11.698808    0.087034    1.256067
      4          6           0      -10.998430    0.275876   -0.032653
      5          6           0      -11.813820   -1.387117    1.554292
      6          6           0      -12.687201   -2.171060    0.551953
      7          6           0      -11.675857   -0.529187   -1.174727
      8          6           0       11.198466    0.918674    1.063519
      9          6           0      -10.893566    0.804032    2.450476
     10          6           0      -13.057649    0.789267    1.195584
     11          6           0       12.543651    1.463751    0.861997
     12          6           0      -12.355205   -1.692594   -0.939751
     13          6           0       13.490303    0.290969    0.416196
     14          6           0       10.775406   -0.027998   -0.040347
     15          6           0       -9.559565    0.006733   -0.037997
     16          6           0       13.061999   -0.353438   -0.806836
     17          6           0       11.584094   -0.475476   -0.928523
     18          6           0       10.266351    2.199284    1.125130
     19          6           0       11.021577    0.254015    2.439358
     20          6           0      -11.442407   -0.086166   -2.604994
     21          6           0       -8.532180    0.858402   -0.220582
     22          6           0        9.349007   -0.370777    0.018479
     23          6           0       11.139256   -1.352806   -2.171066
     24          6           0       -7.226836    0.570916   -0.262191
     25          6           0        8.819754   -1.651912   -0.057861
     26          6           0       -6.777531   -0.984131    0.006083
     27          6           0        7.400039   -1.977614   -0.072941
     28          6           0       -6.237115    1.439020   -0.551056
     29          6           0        7.194269   -3.433512    0.168404
     30          6           0        6.409296   -1.069961   -0.196955
     31          6           0       -4.832445    1.463062   -0.478033
     32          6           0        5.083323   -1.405693   -0.176450
     33          6           0       -4.010860    2.649503   -0.702768
     34          6           0       -2.612655    2.635669   -0.767775
     35          6           0        4.005109   -0.470908   -0.133877
     36          6           0        2.552113   -0.690364   -0.113036
     37          6           0       -1.925242    3.969493   -0.947160
     38          6           0       -1.932829    1.494805   -0.649207
     39          6           0        1.708046    0.347787   -0.292327
     40          6           0        2.016894   -2.167980   -0.050910
     41          6           0       -0.494143    1.384885   -0.557918
     42          6           0        0.306308    0.285459   -0.466959
     43          1           0      -11.234341    1.296245   -0.210402
     44          1           0      -12.308684   -1.384031    2.429380
     45          1           0      -10.911699   -1.740005    1.678265
     46          1           0      -12.424213   -3.209827    0.683011
     47          1           0       -9.981394    0.085054    2.472545
     48          1           0      -10.687162    1.834345    2.340338
     49          1           0      -11.471302    1.019191    3.314511
     50          1           0      -13.582520    0.595352    0.286576
     51          1           0      -13.691990    0.429981    1.939192
     52          1           0      -13.026376    1.922656    1.526293
     53          1           0       12.662834    2.279679    0.089351
     54          1           0       12.940856    1.853405    1.877884
     55          1           0      -12.898830   -1.890677   -1.817912
     56          1           0       13.456871   -0.251532    1.275011
     57          1           0       -9.258624   -0.962191    0.074355
     58          1           0       13.447641   -1.134417   -1.056286
     59          1           0       13.592722    0.394578   -1.660354
     60          1           0        9.424801    2.081765    1.760776
     61          1           0       10.162766    2.302138    0.259942
     62          1           0       10.831451    2.960430    1.799244
     63          1           0       11.690161   -0.678830    2.495550
     64          1           0        9.882420    0.052061    2.710477
     65          1           0       11.487454    0.949917    3.351955
     66          1           0      -10.259519    0.055720   -2.658248
     67          1           0      -11.783664    1.156589   -2.889041
     68          1           0      -11.725520   -0.808405   -3.301957
     69          1           0      -14.374402   -2.947173    0.175782
     70          1           0        8.679283    0.250896    0.218309
     71          1           0       -8.836851    1.925072   -0.113056
     72          1           0       11.385642   -2.390931   -1.739423
     73          1           0       10.043866   -1.377807   -2.225729
     74          1           0       11.680749   -1.101840   -3.169283
     75          1           0       14.995382    1.042153    1.007230
     76          1           0        9.551605   -2.475832   -0.264372
     77          1           0       -5.685590   -1.115672    0.211818
     78          1           0       -7.190859   -1.257331    0.925833
     79          1           0       -7.170781   -1.732528   -0.737561
     80          1           0       -6.493515    2.495147   -0.817016
     81          1           0        6.996843   -3.578047    1.259006
     82          1           0        6.389153   -3.972436   -0.400883
     83          1           0        8.006662   -3.921776    0.059089
     84          1           0        6.610691    0.061772   -0.274114
     85          1           0       -4.427727    0.544654   -0.195071
     86          1           0        4.814737   -2.621148   -0.340548
     87          1           0       -4.681239    3.424806   -0.936493
     88          1           0        4.347638    0.473082   -0.203001
     89          1           0       -1.159765    3.960009   -1.874803
     90          1           0       -1.520540    4.258272    0.088930
     91          1           0       -2.553459    4.679901   -1.275438
     92          1           0       -2.514894    0.576599   -0.626345
     93          1           0        2.039383    1.294819   -0.161776
     94          1           0        2.721998   -3.000007    0.485544
     95          1           0        1.010412   -1.898088   -0.018106
     96          1           0        2.120101   -2.624851   -1.197448
     97          1           0       -0.054972    2.377184   -0.448694
     98          1           0       -0.106744   -0.782622   -0.347764
 ---------------------------------------------------------------------

 SCF Done:  E(RCAM-B3LYP) =  -1706.82423887     A.U. after   15 cycles

 Excitation energies and oscillator strengths:

 Excited State   1:      Singlet-A      2.2277 eV  556.55 nm  f=3.1046  <S**2>=0.000
     155 ->158        -0.16498
     156 ->157         0.68598
 This state for optimization and/or second-order correction.
 Total Energy, E(TD-HF/TD-DFT) =  -1706.74237174
 Copying the excited state density for this state as the 1-particle RhoCI density.

 The electronic state is 1-A.
 Alpha  occ. eigenvalues --  -19.23064 -19.20583 -10.31557 -10.28888 -10.27730
 Alpha  occ. eigenvalues --  -10.27619 -10.27531 -10.27465 -10.27342 -10.27263
 Alpha  occ. eigenvalues --  -10.27223 -10.27219 -10.26885 -10.26878 -10.26812
 Alpha  occ. eigenvalues --  -10.26737 -10.26530 -10.26408 -10.26393 -10.26359
 Alpha  occ. eigenvalues --  -10.26174 -10.26161 -10.26023 -10.25977 -10.25947
 Alpha  occ. eigenvalues --  -10.25913 -10.25779 -10.25648 -10.25351 -10.25187
 Alpha  occ. eigenvalues --  -10.25151 -10.25065 -10.25043 -10.24955 -10.24893
 Alpha  occ. eigenvalues --  -10.24794 -10.24500 -10.24270 -10.24051 -10.23014
 Alpha  occ. eigenvalues --  -10.22968 -10.22675  -1.11507  -1.08450  -0.95136
 Alpha  occ. eigenvalues --   -0.94345  -0.92423  -0.91973  -0.91195  -0.90472
 Alpha  occ. eigenvalues --   -0.87954  -0.86916  -0.86533  -0.85905  -0.84917
 Alpha  occ. eigenvalues --   -0.83177  -0.82215  -0.80370  -0.79948  -0.78263
 Alpha  occ. eigenvalues --   -0.77693  -0.76517  -0.76504  -0.76302  -0.75770
 Alpha  occ. eigenvalues --   -0.75702  -0.75353  -0.74735  -0.73667  -0.71201
 Alpha  occ. eigenvalues --   -0.69892  -0.67884  -0.67238  -0.66401  -0.64287
 Alpha  occ. eigenvalues --   -0.63888  -0.62711  -0.62531  -0.60652  -0.60303
 Alpha  occ. eigenvalues --   -0.60132  -0.59430  -0.58581  -0.57978  -0.57227
 Alpha  occ. eigenvalues --   -0.57049  -0.55994  -0.55281  -0.54411  -0.53965
 Alpha  occ. eigenvalues --   -0.53639  -0.53518  -0.53012  -0.52191  -0.51615
 Alpha  occ. eigenvalues --   -0.51107  -0.50932  -0.50206  -0.49818  -0.49313
 Alpha  occ. eigenvalues --   -0.48770  -0.48290  -0.48178  -0.47954  -0.47875
 Alpha  occ. eigenvalues --   -0.47825  -0.47581  -0.47118  -0.46749  -0.46409
 Alpha  occ. eigenvalues --   -0.46031  -0.45637  -0.45514  -0.45168  -0.44729
 Alpha  occ. eigenvalues --   -0.44382  -0.44369  -0.44027  -0.43975  -0.43676
 Alpha  occ. eigenvalues --   -0.43461  -0.43387  -0.43231  -0.43151  -0.42965
 Alpha  occ. eigenvalues --   -0.42127  -0.41551  -0.41263  -0.41121  -0.40853
 Alpha  occ. eigenvalues --   -0.40519  -0.40430  -0.39976  -0.39620  -0.39481
 Alpha  occ. eigenvalues --   -0.39171  -0.38769  -0.38637  -0.38320  -0.38149
 Alpha  occ. eigenvalues --   -0.37495  -0.37006  -0.36862  -0.36346  -0.36142
 Alpha  occ. eigenvalues --   -0.35592  -0.34447  -0.33917  -0.32490  -0.31845
 Alpha  occ. eigenvalues --   -0.31145  -0.29588  -0.29032  -0.27337  -0.23331
 Alpha  occ. eigenvalues --   -0.19747
 Alpha virt. eigenvalues --   -0.05667  -0.01724   0.02850   0.05474   0.06923
 Alpha virt. eigenvalues --    0.08460   0.09364   0.10893   0.11694   0.11917
 Alpha virt. eigenvalues --    0.12922   0.13230   0.13673   0.14048   0.14299

 Mulliken charges:
               1
     1  O   -0.532137
     2  O   -0.537399
     3  C   -0.004898
     4  C   -0.099964
     5  C   -0.163803
     6  C    0.122548
     7  C    0.090900
     8  C   -0.029597
     9  C   -0.305045
    10  C   -0.314199
    11  C   -0.206214
    12  C   -0.144878
    13  C    0.142415
    14  C    0.076472
    15  C   -0.076670
    16  C   -0.163970
    17  C    0.025839
    18  C   -0.258089
    19  C   -0.284969
    20  C   -0.333656
    21  C   -0.090399
    22  C   -0.074367
    23  C   -0.360262
    24  C    0.122476
    25  C   -0.133333
    26  C   -0.384612
    27  C    0.089197
    28  C   -0.142542
    29  C   -0.361323
    30  C   -0.105922
    31  C   -0.050807
    32  C   -0.079145
    33  C   -0.143657
    34  C    0.110979
    35  C   -0.122252
    36  C    0.085554
    37  C   -0.365170
    38  C   -0.101219
    39  C   -0.095254
    40  C   -0.340468
    41  C   -0.111264
    42  C   -0.088751
    43  H    0.093928
    44  H    0.116167
    45  H    0.098339
    46  H    0.083204
    47  H    0.090982
    48  H    0.100416
    49  H    0.101332
    50  H    0.118263
    51  H    0.116253
    52  H    0.069945
    53  H    0.101772
    54  H    0.069624
    55  H    0.075312
    56  H    0.083881
    57  H    0.075721
    58  H    0.107262
    59  H    0.086718
    60  H    0.098929
    61  H    0.100390
    62  H    0.089776
    63  H    0.093538
    64  H    0.104884
    65  H    0.065933
    66  H    0.110495
    67  H    0.075264
    68  H    0.118526
    69  H    0.309984
    70  H    0.055793
    71  H    0.079884
    72  H    0.105901
    73  H    0.128032
    74  H    0.109578
    75  H    0.291346
    76  H    0.079601
    77  H    0.105270
    78  H    0.124482
    79  H    0.120575
    80  H    0.058391
    81  H    0.124568
    82  H    0.109986
    83  H    0.117378
    84  H    0.089445
    85  H    0.069761
    86  H    0.059882
    87  H    0.085350
    88  H    0.067691
    89  H    0.105699
    90  H    0.123901
    91  H    0.121233
    92  H    0.079050
    93  H    0.078640
    94  H    0.124495
    95  H    0.109183
    96  H    0.090391
    97  H    0.084489
    98  H    0.083022
 Sum of Mulliken charges =  -0.00000

 Dipole moment (field-independent basis, Debye):
    X=             -0.3646    Y=             -1.1856    Z=              0.7868  Tot=              1.4689
 Quadrupole moment (field-independent basis, Debye-Ang):
   XX=           -280.5891   YY=           -238.3809   ZZ=           -262.2607
   XY=             10.0761   XZ=             28.0988   YZ=              3.7709

 Normal termination of Gaussian 16 at Sat Jul 13 19:25:58 2019.
