 Gaussian 16, Revision A.03,
 Gaussian 16:  ES64L-G16RevA.03 25-Dec-2016

 -------------------------------------
 # td=(NStates=1) CAM-B3LYP/6-31G(d,p)
 -------------------------------------

 --
 TD
 --
 Symbolic Z-matrix:
 Charge =  0 Multiplicity = 1

                         Standard orientation:
 ---------------------------------------------------------------------
 Center     Atomic      Atomic             Coordinates (Angstroms)
 Number     Number       Type             X           Y           Z
 ---------------------------------------------------------------------
      1          8           0      -13.915639   -2.155509    0.630007
      2          8           0       14.842538    0.693805    0.253059
      3          6           0      -11.699479    0.001626    1.226457
      4          6           0      -10.933954    0.310338   -0.043996
      5          6           0      -11.786119   -1.426261    1.468420
      6          6           0      -12.592245   -2.201116    0.381694
      7          6           0      -11.625013   -0.461883   -1.180645
      8          6           0       11.084440    0.875250    1.008215
      9          6           0      -10.935828    0.525331    2.500285
     10          6           0      -13.098011    0.585523    1.344707
     11          6           0       12.582908    1.413152    0.867643
     12          6           0      -12.197375   -1.754242   -0.951768
     13          6           0       13.442978    0.252912    0.506791
     14          6           0       10.624179   -0.079563   -0.015645
     15          6           0       -9.542112   -0.059687    0.091644
     16          6           0       13.016654   -0.315898   -0.809408
     17          6           0       11.493172   -0.639062   -0.890150
     18          6           0       10.343898    2.218557    0.970198
     19          6           0       11.096122    0.287720    2.428788
     20          6           0      -11.323727   -0.020097   -2.627927
     21          6           0       -8.539611    0.850524   -0.200560
     22          6           0        9.192203   -0.475771    0.049714
     23          6           0       11.190913   -1.529630   -2.067131
     24          6           0       -7.069039    0.514427   -0.256685
     25          6           0        8.774628   -1.642047   -0.186299
     26          6           0       -6.653469   -0.848259   -0.041884
     27          6           0        7.378647   -2.048395   -0.135947
     28          6           0       -6.335448    1.666618   -0.480233
     29          6           0        7.114182   -3.495679   -0.049917
     30          6           0        6.323357   -1.102698   -0.310324
     31          6           0       -4.857316    1.554712   -0.571626
     32          6           0        4.896899   -1.453596   -0.014353
     33          6           0       -4.051376    2.712406   -0.593928
     34          6           0       -2.615393    2.805926   -0.659158
     35          6           0        3.872428   -0.502349   -0.287191
     36          6           0        2.562960   -0.730754   -0.135999
     37          6           0       -2.036312    4.271638   -0.628373
     38          6           0       -1.800178    1.689407   -0.503271
     39          6           0        1.686007    0.329283   -0.405660
     40          6           0        2.126594   -2.103327    0.271350
     41          6           0       -0.479136    1.708019   -0.557411
     42          6           0        0.239588    0.482258   -0.451101
     43          1           0      -11.054345    1.314867   -0.511788
     44          1           0      -12.070433   -1.962874    2.385965
     45          1           0      -10.841840   -1.870896    1.532919
     46          1           0      -12.280523   -3.268671    0.441492
     47          1           0      -10.153034   -0.203824    2.494791
     48          1           0      -10.494304    1.631205    2.393966
     49          1           0      -11.567885    0.473740    3.305122
     50          1           0      -13.673861    0.102918    0.412608
     51          1           0      -13.690953    0.247721    2.229863
     52          1           0      -13.236639    1.669913    1.161195
     53          1           0       12.665357    2.148103   -0.023952
     54          1           0       12.956342    1.996361    1.688259
     55          1           0      -12.458949   -2.256078   -1.881635
     56          1           0       13.649235   -0.538697    1.382757
     57          1           0       -9.380255   -1.068980    0.367290
     58          1           0       13.569112   -1.204919   -0.991771
     59          1           0       13.261974    0.348026   -1.521414
     60          1           0        9.346345    1.979429    0.777727
     61          1           0       10.568697    2.768014   -0.140903
     62          1           0       10.515580    2.960573    1.958827
     63          1           0       11.796790   -0.618767    2.532965
     64          1           0       10.041110   -0.057579    2.275459
     65          1           0       11.335162    0.779748    3.260575
     66          1           0      -10.327336    0.164875   -2.918186
     67          1           0      -11.973098    0.893517   -2.765199
     68          1           0      -11.666524   -0.701624   -3.254653
     69          1           0      -14.267762   -2.855322   -0.012574
     70          1           0        8.448769    0.427278    0.337290
     71          1           0       -8.869174    1.869101   -0.539662
     72          1           0       11.604821   -2.523099   -1.678320
     73          1           0       10.115410   -1.631218   -2.309662
     74          1           0       11.775526   -1.293393   -2.909716
     75          1           0       15.053094    1.490750    0.938327
     76          1           0        9.475261   -2.374732   -0.284942
     77          1           0       -5.643325   -1.106377   -0.252517
     78          1           0       -6.899879   -1.139414    0.978542
     79          1           0       -7.358715   -1.574362   -0.449574
     80          1           0       -6.931940    2.466054   -0.854753
     81          1           0        7.169577   -3.808692    1.159003
     82          1           0        6.055868   -3.813826   -0.499935
     83          1           0        8.049759   -4.203227   -0.539130
     84          1           0        6.678427   -0.112799   -0.755500
     85          1           0       -4.520575    0.652809   -0.477891
     86          1           0        4.754066   -2.467029    0.206000
     87          1           0       -4.691500    3.697853   -0.635755
     88          1           0        4.525877    0.369502   -0.775051
     89          1           0       -1.462492    4.467365   -1.669220
     90          1           0       -1.370898    4.427696    0.189063
     91          1           0       -2.714922    5.182976   -0.660792
     92          1           0       -2.517004    0.882645   -0.272682
     93          1           0        2.231051    1.392283   -0.620813
     94          1           0        2.996864   -2.588285    1.191417
     95          1           0        1.038505   -2.133619    0.785870
     96          1           0        2.073675   -2.863312   -0.604492
     97          1           0        0.173396    2.599897   -0.681537
     98          1           0       -0.452352   -0.461856   -0.313709
 ---------------------------------------------------------------------

 SCF Done:  E(RCAM-B3LYP) =  -1706.89062126     A.U. after   15 cycles

 Excitation energies and oscillator strengths:

 Excited State   1:      Singlet-A      2.0346 eV  609.37 nm  f=2.9516  <S**2>=0.000
     155 ->158        -0.13703
     156 ->157         0.69721
     156 <-157        -0.10308
 This state for optimization and/or second-order correction.
 Total Energy, E(TD-HF/TD-DFT) =  -1706.81585016
 Copying the excited state density for this state as the 1-particle RhoCI density.

 The electronic state is 1-A.
 Alpha  occ. eigenvalues --  -19.21845 -19.20191 -10.30201 -10.30058 -10.29334
 Alpha  occ. eigenvalues --  -10.29220 -10.28122 -10.28113 -10.27940 -10.27829
 Alpha  occ. eigenvalues --  -10.27698 -10.27476 -10.27406 -10.27354 -10.27266
 Alpha  occ. eigenvalues --  -10.27252 -10.27050 -10.26999 -10.26979 -10.26925
 Alpha  occ. eigenvalues --  -10.26788 -10.26674 -10.26421 -10.26359 -10.26301
 Alpha  occ. eigenvalues --  -10.26258 -10.26123 -10.25872 -10.25855 -10.25833
 Alpha  occ. eigenvalues --  -10.25810 -10.25806 -10.25677 -10.25088 -10.24943
 Alpha  occ. eigenvalues --  -10.24337 -10.24276 -10.24010 -10.23949 -10.23800
 Alpha  occ. eigenvalues --  -10.23549 -10.23286  -1.12013  -1.04914  -0.94630
 Alpha  occ. eigenvalues --   -0.94216  -0.92102  -0.91542  -0.90846  -0.90309
 Alpha  occ. eigenvalues --   -0.87123  -0.86895  -0.86317  -0.85307  -0.84607
 Alpha  occ. eigenvalues --   -0.82709  -0.81641  -0.80736  -0.80053  -0.78014
 Alpha  occ. eigenvalues --   -0.77418  -0.76711  -0.76435  -0.76066  -0.75074
 Alpha  occ. eigenvalues --   -0.74817  -0.74349  -0.74100  -0.72533  -0.70166
 Alpha  occ. eigenvalues --   -0.68021  -0.67094  -0.66339  -0.64331  -0.64142
 Alpha  occ. eigenvalues --   -0.63968  -0.63393  -0.62322  -0.60800  -0.60315
 Alpha  occ. eigenvalues --   -0.59926  -0.59289  -0.57686  -0.57308  -0.56160
 Alpha  occ. eigenvalues --   -0.55132  -0.54940  -0.54754  -0.54262  -0.53701
 Alpha  occ. eigenvalues --   -0.53470  -0.52524  -0.52045  -0.51843  -0.51465
 Alpha  occ. eigenvalues --   -0.50711  -0.50349  -0.49804  -0.49423  -0.49101
 Alpha  occ. eigenvalues --   -0.48918  -0.48789  -0.48192  -0.47907  -0.47523
 Alpha  occ. eigenvalues --   -0.47374  -0.47037  -0.46722  -0.46609  -0.46334
 Alpha  occ. eigenvalues --   -0.45989  -0.45861  -0.45793  -0.45335  -0.45112
 Alpha  occ. eigenvalues --   -0.44668  -0.44091  -0.43741  -0.43577  -0.43408
 Alpha  occ. eigenvalues --   -0.43146  -0.42955  -0.42614  -0.42118  -0.41877
 Alpha  occ. eigenvalues --   -0.41688  -0.41420  -0.40877  -0.40782  -0.40534
 Alpha  occ. eigenvalues --   -0.40229  -0.40116  -0.39889  -0.39504  -0.39305
 Alpha  occ. eigenvalues --   -0.39160  -0.39139  -0.38539  -0.37727  -0.37651
 Alpha  occ. eigenvalues --   -0.37384  -0.37111  -0.36597  -0.36112  -0.35908
 Alpha  occ. eigenvalues --   -0.33963  -0.33027  -0.32902  -0.31709  -0.31246
 Alpha  occ. eigenvalues --   -0.30412  -0.28938  -0.28206  -0.27077  -0.23904
 Alpha  occ. eigenvalues --   -0.19038
 Alpha virt. eigenvalues --   -0.06388  -0.00631   0.02487   0.04827   0.06467
 Alpha virt. eigenvalues --    0.08387   0.10764   0.11184   0.11274   0.11608
 Alpha virt. eigenvalues --    0.11914   0.12103   0.12599   0.12712   0.13559

 Mulliken charges:
               1
     1  O   -0.504508
     2  O   -0.594805
     3  C    0.009028
     4  C   -0.109158
     5  C   -0.187435
     6  C    0.120304
     7  C    0.062290
     8  C   -0.047733
     9  C   -0.270000
    10  C   -0.303149
    11  C   -0.184214
    12  C   -0.126574
    13  C    0.169564
    14  C    0.070298
    15  C   -0.061554
    16  C   -0.197012
    17  C    0.012410
    18  C   -0.278552
    19  C   -0.281852
    20  C   -0.354796
    21  C   -0.127899
    22  C   -0.097684
    23  C   -0.360190
    24  C    0.137530
    25  C   -0.090308
    26  C   -0.399999
    27  C    0.097808
    28  C   -0.132265
    29  C   -0.359295
    30  C   -0.145739
    31  C   -0.062082
    32  C   -0.099967
    33  C   -0.138566
    34  C    0.081816
    35  C   -0.098342
    36  C    0.139438
    37  C   -0.373956
    38  C   -0.079714
    39  C   -0.138369
    40  C   -0.353772
    41  C   -0.077609
    42  C   -0.099715
    43  H    0.087268
    44  H    0.106082
    45  H    0.093287
    46  H    0.054487
    47  H    0.086868
    48  H    0.076083
    49  H    0.105980
    50  H    0.096966
    51  H    0.105848
    52  H    0.085163
    53  H    0.083395
    54  H    0.083742
    55  H    0.067756
    56  H    0.073534
    57  H    0.088138
    58  H    0.112016
    59  H    0.134298
    60  H    0.099129
    61  H    0.073234
    62  H    0.090398
    63  H    0.089142
    64  H    0.097686
    65  H    0.110074
    66  H    0.126197
    67  H    0.106493
    68  H    0.116411
    69  H    0.306971
    70  H    0.086926
    71  H    0.084938
    72  H    0.111422
    73  H    0.124291
    74  H    0.122467
    75  H    0.294503
    76  H    0.087703
    77  H    0.122953
    78  H    0.133462
    79  H    0.130324
    80  H    0.092821
    81  H    0.097220
    82  H    0.112064
    83  H    0.090116
    84  H    0.088875
    85  H    0.068255
    86  H    0.083578
    87  H    0.081667
    88  H    0.089892
    89  H    0.098020
    90  H    0.133488
    91  H    0.111139
    92  H    0.085492
    93  H    0.070895
    94  H    0.076502
    95  H    0.101309
    96  H    0.123870
    97  H    0.102353
    98  H    0.073140
 Sum of Mulliken charges =  -0.00000

 Dipole moment (field-independent basis, Debye):
    X=             -1.6536    Y=             -1.2718    Z=             -0.9397  Tot=              2.2880
 Quadrupole moment (field-independent basis, Debye-Ang):
   XX=           -292.4177   YY=           -238.8742   ZZ=           -262.7940
   XY=             21.9335   XZ=             27.4704   YZ=              2.0299

 Normal termination of Gaussian 16 at Mon Jul 15 07:46:20 2019.
