 Gaussian 16, Revision A.03,
 Gaussian 16:  ES64L-G16RevA.03 25-Dec-2016

 -------------------------------------
 # td=(NStates=1) CAM-B3LYP/6-31G(d,p)
 -------------------------------------

 --
 TD
 --
 Symbolic Z-matrix:
 Charge =  0 Multiplicity = 1

                         Standard orientation:
 ---------------------------------------------------------------------
 Center     Atomic      Atomic             Coordinates (Angstroms)
 Number     Number       Type             X           Y           Z
 ---------------------------------------------------------------------
      1          8           0      -14.265126   -1.852963    0.570453
      2          8           0       14.881511    0.847713   -0.128370
      3          6           0      -11.855011    0.240057    1.210751
      4          6           0      -11.087554    0.386266   -0.126569
      5          6           0      -12.113633   -1.338116    1.508490
      6          6           0      -12.846133   -1.967124    0.308932
      7          6           0      -11.665740   -0.445539   -1.297625
      8          6           0       11.209211    1.164537    0.944191
      9          6           0      -11.084914    0.798236    2.406563
     10          6           0      -13.131310    1.077218    1.074682
     11          6           0       12.671310    1.588968    0.669999
     12          6           0      -12.411358   -1.535383   -1.032605
     13          6           0       13.523464    0.420053    0.240062
     14          6           0       10.714053    0.151184   -0.113938
     15          6           0       -9.627833   -0.090978   -0.110930
     16          6           0       13.033230   -0.251857   -1.041026
     17          6           0       11.572290   -0.613571   -0.908349
     18          6           0       10.344045    2.356458    0.897291
     19          6           0       11.074800    0.580980    2.356793
     20          6           0      -11.306246    0.047364   -2.723515
     21          6           0       -8.592608    0.771737   -0.252572
     22          6           0        9.373242   -0.321640    0.020329
     23          6           0       11.098185   -1.590186   -1.952685
     24          6           0       -7.137376    0.377157   -0.146892
     25          6           0        8.769015   -1.589064   -0.049231
     26          6           0       -6.801750   -1.044985    0.231740
     27          6           0        7.518538   -2.061743    0.193658
     28          6           0       -6.271444    1.354563   -0.333145
     29          6           0        7.259839   -3.527527    0.193489
     30          6           0        6.419654   -1.238950    0.098137
     31          6           0       -4.839085    1.288326   -0.357984
     32          6           0        5.081830   -1.584674    0.092691
     33          6           0       -3.993410    2.375418   -0.635609
     34          6           0       -2.608022    2.402674   -0.717555
     35          6           0        4.081771   -0.558951   -0.041675
     36          6           0        2.682776   -0.852074    0.031793
     37          6           0       -1.930540    3.775361   -0.992376
     38          6           0       -1.824574    1.325174   -0.536354
     39          6           0        1.788115    0.171338   -0.088278
     40          6           0        2.262539   -2.288189    0.282864
     41          6           0       -0.414931    1.249244   -0.537526
     42          6           0        0.385558    0.127025   -0.181416
     43          1           0      -11.009718    1.509283   -0.408195
     44          1           0      -12.844049   -1.266707    2.336198
     45          1           0      -11.167286   -1.882945    1.842269
     46          1           0      -12.796953   -3.013896    0.519688
     47          1           0      -10.107336    0.448993    2.588080
     48          1           0      -10.771405    1.955064    2.315129
     49          1           0      -11.512912    0.928528    3.443100
     50          1           0      -13.755938    0.888723    0.182759
     51          1           0      -13.645844    0.992577    2.095706
     52          1           0      -12.854589    2.030057    0.925208
     53          1           0       12.429261    2.320410   -0.170150
     54          1           0       13.129808    2.257307    1.413422
     55          1           0      -12.485996   -2.217804   -1.855007
     56          1           0       13.520010   -0.367406    1.086824
     57          1           0       -9.473084   -1.026212    0.314856
     58          1           0       13.454811   -1.089499   -1.358812
     59          1           0       13.294580    0.445527   -1.924135
     60          1           0        9.202039    2.263460    1.452228
     61          1           0       10.362696    3.115805   -0.045126
     62          1           0       10.877393    3.100829    1.548077
     63          1           0       11.638389   -0.422926    2.363728
     64          1           0        9.925062    0.395536    2.598508
     65          1           0       11.406872    1.063377    3.148480
     66          1           0      -10.280027   -0.145012   -2.859036
     67          1           0      -11.688568    1.081616   -2.940347
     68          1           0      -11.782132   -0.758796   -3.451377
     69          1           0      -14.755529   -2.063661   -0.197097
     70          1           0        8.619115    0.528256    0.032404
     71          1           0       -8.593324    1.807187   -0.701610
     72          1           0       11.370529   -2.722685   -1.818944
     73          1           0        9.940553   -1.218958   -1.962314
     74          1           0       11.600920   -1.326538   -2.756963
     75          1           0       15.352859    1.150780    0.763203
     76          1           0        9.617506   -2.213675   -0.083107
     77          1           0       -5.734620   -1.231016   -0.089823
     78          1           0       -6.913785   -1.203056    1.359544
     79          1           0       -7.479209   -1.812592   -0.266909
     80          1           0       -6.567988    2.478153   -0.618148
     81          1           0        7.100406   -3.894492    1.213331
     82          1           0        6.395962   -3.891434   -0.377285
     83          1           0        8.127227   -4.123644   -0.142537
     84          1           0        6.542309   -0.060677    0.216423
     85          1           0       -4.213811    0.325318   -0.037695
     86          1           0        4.699384   -2.417019    0.431070
     87          1           0       -4.707269    3.127533   -1.025839
     88          1           0        4.400984    0.457449   -0.182265
     89          1           0       -1.301355    3.462670   -1.955609
     90          1           0       -1.199509    4.034515   -0.308552
     91          1           0       -2.642174    4.495942   -1.303670
     92          1           0       -2.404261    0.438695   -0.241719
     93          1           0        2.343467    1.086357   -0.430233
     94          1           0        2.692092   -2.478785    1.413122
     95          1           0        1.099587   -2.384995    0.122222
     96          1           0        2.704845   -3.033602   -0.410588
     97          1           0        0.209883    2.089944   -0.797677
     98          1           0       -0.220921   -0.742571   -0.049060
 ---------------------------------------------------------------------

 SCF Done:  E(RCAM-B3LYP) =  -1706.99389336     A.U. after   15 cycles

 Excitation energies and oscillator strengths:

 Excited State   1:      Singlet-A      2.0459 eV  606.02 nm  f=3.1240  <S**2>=0.000
     155 ->158         0.15847
     156 ->157         0.68977
 This state for optimization and/or second-order correction.
 Total Energy, E(TD-HF/TD-DFT) =  -1706.91870855
 Copying the excited state density for this state as the 1-particle RhoCI density.

 The electronic state is 1-A.
 Alpha  occ. eigenvalues --  -19.21703 -19.19390 -10.31430 -10.29756 -10.27904
 Alpha  occ. eigenvalues --  -10.27841 -10.27780 -10.27670 -10.27490 -10.27385
 Alpha  occ. eigenvalues --  -10.27317 -10.27223 -10.27196 -10.27186 -10.27160
 Alpha  occ. eigenvalues --  -10.27030 -10.26891 -10.26855 -10.26807 -10.26699
 Alpha  occ. eigenvalues --  -10.26653 -10.26585 -10.26531 -10.26489 -10.26464
 Alpha  occ. eigenvalues --  -10.26142 -10.25940 -10.25916 -10.25874 -10.25823
 Alpha  occ. eigenvalues --  -10.25702 -10.25639 -10.25539 -10.25218 -10.25142
 Alpha  occ. eigenvalues --  -10.25008 -10.24875 -10.24769 -10.24721 -10.24633
 Alpha  occ. eigenvalues --  -10.24462 -10.23091  -1.08303  -1.06609  -0.93888
 Alpha  occ. eigenvalues --   -0.92937  -0.92406  -0.92020  -0.90905  -0.90329
 Alpha  occ. eigenvalues --   -0.87903  -0.86818  -0.86346  -0.85330  -0.84524
 Alpha  occ. eigenvalues --   -0.83060  -0.81972  -0.80485  -0.79855  -0.78025
 Alpha  occ. eigenvalues --   -0.76734  -0.76469  -0.76267  -0.76011  -0.75513
 Alpha  occ. eigenvalues --   -0.75227  -0.75074  -0.74913  -0.73339  -0.70634
 Alpha  occ. eigenvalues --   -0.68908  -0.67580  -0.66472  -0.65039  -0.64140
 Alpha  occ. eigenvalues --   -0.63389  -0.62862  -0.62556  -0.60913  -0.60084
 Alpha  occ. eigenvalues --   -0.59308  -0.58056  -0.57813  -0.57387  -0.56126
 Alpha  occ. eigenvalues --   -0.55468  -0.55232  -0.54835  -0.53637  -0.53390
 Alpha  occ. eigenvalues --   -0.52935  -0.52781  -0.52165  -0.51851  -0.50839
 Alpha  occ. eigenvalues --   -0.50532  -0.49990  -0.49821  -0.49303  -0.49156
 Alpha  occ. eigenvalues --   -0.48637  -0.48301  -0.48166  -0.48114  -0.47964
 Alpha  occ. eigenvalues --   -0.47754  -0.47550  -0.47333  -0.47247  -0.46615
 Alpha  occ. eigenvalues --   -0.45689  -0.45264  -0.44891  -0.44747  -0.44462
 Alpha  occ. eigenvalues --   -0.44171  -0.44134  -0.43595  -0.43514  -0.43368
 Alpha  occ. eigenvalues --   -0.43176  -0.42923  -0.42750  -0.42446  -0.42242
 Alpha  occ. eigenvalues --   -0.41852  -0.41410  -0.41097  -0.40772  -0.40698
 Alpha  occ. eigenvalues --   -0.40424  -0.40238  -0.39741  -0.39512  -0.39430
 Alpha  occ. eigenvalues --   -0.39176  -0.39036  -0.38484  -0.37851  -0.37525
 Alpha  occ. eigenvalues --   -0.37029  -0.36720  -0.36311  -0.35864  -0.35489
 Alpha  occ. eigenvalues --   -0.35118  -0.35003  -0.33723  -0.32583  -0.31709
 Alpha  occ. eigenvalues --   -0.30716  -0.29683  -0.29143  -0.27131  -0.23342
 Alpha  occ. eigenvalues --   -0.19236
 Alpha virt. eigenvalues --   -0.06298  -0.01623   0.02606   0.05038   0.06824
 Alpha virt. eigenvalues --    0.08671   0.10453   0.11098   0.11598   0.12241
 Alpha virt. eigenvalues --    0.12767   0.13084   0.13320   0.13842   0.14088

 Mulliken charges:
               1
     1  O   -0.566912
     2  O   -0.571513
     3  C    0.028750
     4  C   -0.135134
     5  C   -0.197300
     6  C    0.163764
     7  C    0.098068
     8  C   -0.000909
     9  C   -0.319395
    10  C   -0.280076
    11  C   -0.187978
    12  C   -0.146057
    13  C    0.161793
    14  C    0.087852
    15  C   -0.100757
    16  C   -0.194910
    17  C    0.011607
    18  C   -0.303860
    19  C   -0.282884
    20  C   -0.348299
    21  C   -0.074675
    22  C   -0.147378
    23  C   -0.361858
    24  C    0.115964
    25  C   -0.108218
    26  C   -0.371415
    27  C    0.109243
    28  C   -0.140060
    29  C   -0.387875
    30  C   -0.123670
    31  C   -0.064250
    32  C   -0.063854
    33  C   -0.146056
    34  C    0.108162
    35  C   -0.125472
    36  C    0.122755
    37  C   -0.359940
    38  C   -0.107809
    39  C   -0.134140
    40  C   -0.366190
    41  C   -0.095294
    42  C   -0.083935
    43  H    0.077875
    44  H    0.121982
    45  H    0.092324
    46  H    0.084836
    47  H    0.109565
    48  H    0.066444
    49  H    0.101777
    50  H    0.105209
    51  H    0.093184
    52  H    0.105263
    53  H    0.100401
    54  H    0.089952
    55  H    0.077711
    56  H    0.077711
    57  H    0.092315
    58  H    0.111435
    59  H    0.114306
    60  H    0.083502
    61  H    0.091460
    62  H    0.093767
    63  H    0.088699
    64  H    0.090958
    65  H    0.113614
    66  H    0.139172
    67  H    0.124757
    68  H    0.090940
    69  H    0.294426
    70  H    0.071647
    71  H    0.081700
    72  H    0.099732
    73  H    0.123112
    74  H    0.118142
    75  H    0.299985
    76  H    0.090487
    77  H    0.112745
    78  H    0.124905
    79  H    0.115301
    80  H    0.077063
    81  H    0.120812
    82  H    0.122068
    83  H    0.110442
    84  H    0.077416
    85  H    0.070516
    86  H    0.079070
    87  H    0.076106
    88  H    0.081687
    89  H    0.103306
    90  H    0.138458
    91  H    0.114884
    92  H    0.067900
    93  H    0.080820
    94  H    0.109002
    95  H    0.100902
    96  H    0.127485
    97  H    0.078327
    98  H    0.082508
 Sum of Mulliken charges =  -0.00000

 Dipole moment (field-independent basis, Debye):
    X=              0.6927    Y=             -0.4405    Z=              0.1063  Tot=              0.8277
 Quadrupole moment (field-independent basis, Debye-Ang):
   XX=           -282.2667   YY=           -245.0565   ZZ=           -261.3867
   XY=              2.5758   XZ=             43.9141   YZ=              1.9230

 Normal termination of Gaussian 16 at Mon Jul 15 17:45:24 2019.
