 Gaussian 16, Revision A.03,
 Gaussian 16:  ES64L-G16RevA.03 25-Dec-2016

 -------------------------------------
 # td=(NStates=1) CAM-B3LYP/6-31G(d,p)
 -------------------------------------

 --
 TD
 --
 Symbolic Z-matrix:
 Charge =  0 Multiplicity = 1

                         Standard orientation:
 ---------------------------------------------------------------------
 Center     Atomic      Atomic             Coordinates (Angstroms)
 Number     Number       Type             X           Y           Z
 ---------------------------------------------------------------------
      1          8           0      -14.146256   -2.027693    0.611787
      2          8           0       14.823467    1.034744    0.341562
      3          6           0      -11.712466    0.089561    1.399495
      4          6           0      -10.971758    0.255905    0.014672
      5          6           0      -11.913662   -1.432042    1.575316
      6          6           0      -12.752747   -2.145824    0.389860
      7          6           0      -11.647225   -0.492032   -1.135835
      8          6           0       11.107857    1.030828    1.124396
      9          6           0      -10.811542    0.589267    2.522877
     10          6           0      -13.081368    0.905404    1.358585
     11          6           0       12.531360    1.546104    0.833696
     12          6           0      -12.382388   -1.567435   -0.900987
     13          6           0       13.551090    0.528793    0.548193
     14          6           0       10.695343   -0.130358    0.141303
     15          6           0       -9.528604   -0.090721    0.034905
     16          6           0       13.153828   -0.211609   -0.712208
     17          6           0       11.621915   -0.599230   -0.656196
     18          6           0       10.131304    2.181551    0.866473
     19          6           0       10.831702    0.468633    2.545154
     20          6           0      -11.438789    0.025878   -2.470890
     21          6           0       -8.542152    0.818669   -0.191778
     22          6           0        9.321927   -0.548166    0.083442
     23          6           0       11.403010   -1.652079   -1.783339
     24          6           0       -7.104413    0.512893   -0.153980
     25          6           0        8.806214   -1.707754   -0.106128
     26          6           0       -6.628927   -0.929605    0.023589
     27          6           0        7.418310   -2.141747   -0.220869
     28          6           0       -6.185372    1.514006   -0.316585
     29          6           0        7.082012   -3.623047   -0.070913
     30          6           0        6.379559   -1.203239   -0.433471
     31          6           0       -4.739544    1.385074   -0.570491
     32          6           0        4.918219   -1.574530   -0.193203
     33          6           0       -4.041597    2.598686   -0.642289
     34          6           0       -2.601784    2.672786   -0.802751
     35          6           0        4.010878   -0.608602   -0.370506
     36          6           0        2.560929   -0.755948   -0.460650
     37          6           0       -2.001900    4.008744   -1.199196
     38          6           0       -1.812411    1.589844   -0.640733
     39          6           0        1.776045    0.365820   -0.501705
     40          6           0        2.021404   -2.112276   -0.034877
     41          6           0       -0.360765    1.551965   -0.697965
     42          6           0        0.348593    0.412050   -0.404375
     43          1           0      -11.257282    1.276890   -0.185222
     44          1           0      -12.522796   -1.611208    2.625505
     45          1           0      -10.887560   -1.884332    1.595256
     46          1           0      -12.410075   -3.376507    0.574900
     47          1           0      -10.038664   -0.138019    2.881801
     48          1           0      -10.733975    1.726544    2.474363
     49          1           0      -11.573739    0.459643    3.340547
     50          1           0      -13.492842    0.501114    0.442188
     51          1           0      -13.398864    0.787411    2.202772
     52          1           0      -12.770081    1.921350    0.930980
     53          1           0       12.448475    2.216938   -0.015261
     54          1           0       12.540622    2.191682    1.821684
     55          1           0      -13.097810   -2.090577   -1.771043
     56          1           0       13.518944   -0.383939    1.281187
     57          1           0       -9.344377   -1.054282    0.073262
     58          1           0       13.625673   -1.176672   -0.805948
     59          1           0       13.239253    0.556235   -1.434171
     60          1           0        9.014892    1.917183    1.040223
     61          1           0       10.224865    2.588217   -0.188005
     62          1           0       10.458438    3.106465    1.546554
     63          1           0       11.313791   -0.447565    2.513088
     64          1           0        9.835926    0.056009    2.726346
     65          1           0       11.165836    1.141682    3.313425
     66          1           0      -10.223014    0.206329   -2.453250
     67          1           0      -11.877848    1.044248   -2.566785
     68          1           0      -11.841558   -0.597633   -3.380130
     69          1           0      -14.511503   -2.371861   -0.119142
     70          1           0        8.701062    0.136558    0.450921
     71          1           0       -8.715696    1.990297   -0.174945
     72          1           0       11.450518   -2.701074   -1.642384
     73          1           0       10.332958   -1.491323   -2.049661
     74          1           0       11.982444   -1.565134   -2.818661
     75          1           0       15.162850    0.905368    1.396727
     76          1           0        9.481617   -2.726620   -0.164271
     77          1           0       -5.564856   -0.964122    0.156072
     78          1           0       -6.801289   -1.243009    0.983975
     79          1           0       -7.091107   -1.541070   -0.615630
     80          1           0       -6.761745    2.439150   -0.496904
     81          1           0        6.811310   -3.965040    1.039159
     82          1           0        6.373318   -4.174894   -0.846113
     83          1           0        7.972524   -4.370517   -0.011409
     84          1           0        6.577270   -0.118060   -0.742770
     85          1           0       -4.342111    0.488600   -0.257290
     86          1           0        4.730642   -2.526514   -0.036010
     87          1           0       -4.308467    3.524338   -0.852662
     88          1           0        4.441412    0.375281   -0.522000
     89          1           0       -1.240956    3.894149   -2.073069
     90          1           0       -1.288090    4.597127   -0.370049
     91          1           0       -2.744611    4.872405   -1.297609
     92          1           0       -2.389179    0.619787   -0.368283
     93          1           0        2.262356    1.198475   -0.901594
     94          1           0        2.687990   -2.406004    0.847355
     95          1           0        0.907859   -2.225427    0.234994
     96          1           0        2.204473   -2.924533   -0.706430
     97          1           0       -0.002231    2.590098   -0.922217
     98          1           0       -0.125203   -0.467342   -0.071370
 ---------------------------------------------------------------------

 SCF Done:  E(RCAM-B3LYP) =  -1706.90882912     A.U. after   14 cycles

 Excitation energies and oscillator strengths:

 Excited State   1:      Singlet-A      2.5385 eV  488.41 nm  f=2.8099  <S**2>=0.000
     155 ->158        -0.17734
     156 ->157         0.68040
 This state for optimization and/or second-order correction.
 Total Energy, E(TD-HF/TD-DFT) =  -1706.81554041
 Copying the excited state density for this state as the 1-particle RhoCI density.

 The electronic state is 1-A.
 Alpha  occ. eigenvalues --  -19.22807 -19.20967 -10.32430 -10.30324 -10.28363
 Alpha  occ. eigenvalues --  -10.28204 -10.28097 -10.27626 -10.27576 -10.27517
 Alpha  occ. eigenvalues --  -10.27332 -10.27293 -10.27122 -10.27003 -10.26864
 Alpha  occ. eigenvalues --  -10.26845 -10.26749 -10.26660 -10.26621 -10.26525
 Alpha  occ. eigenvalues --  -10.26423 -10.26356 -10.26319 -10.26255 -10.26248
 Alpha  occ. eigenvalues --  -10.26174 -10.26086 -10.26082 -10.25907 -10.25897
 Alpha  occ. eigenvalues --  -10.25723 -10.25591 -10.25477 -10.25459 -10.24995
 Alpha  occ. eigenvalues --  -10.24927 -10.24792 -10.24476 -10.24017 -10.23753
 Alpha  occ. eigenvalues --  -10.23711 -10.22802  -1.11797  -1.09623  -0.93945
 Alpha  occ. eigenvalues --   -0.93778  -0.92088  -0.91406  -0.90148  -0.89712
 Alpha  occ. eigenvalues --   -0.87377  -0.87328  -0.86161  -0.85477  -0.84687
 Alpha  occ. eigenvalues --   -0.82965  -0.81747  -0.80762  -0.79943  -0.78109
 Alpha  occ. eigenvalues --   -0.77476  -0.76781  -0.76453  -0.75395  -0.75300
 Alpha  occ. eigenvalues --   -0.75098  -0.74744  -0.74037  -0.73278  -0.70958
 Alpha  occ. eigenvalues --   -0.69146  -0.67450  -0.66691  -0.64758  -0.64548
 Alpha  occ. eigenvalues --   -0.63580  -0.62734  -0.62007  -0.61362  -0.60063
 Alpha  occ. eigenvalues --   -0.59485  -0.58871  -0.58416  -0.57416  -0.56428
 Alpha  occ. eigenvalues --   -0.55951  -0.55489  -0.54663  -0.54022  -0.53656
 Alpha  occ. eigenvalues --   -0.53334  -0.52779  -0.52371  -0.51943  -0.51430
 Alpha  occ. eigenvalues --   -0.51165  -0.50910  -0.50518  -0.50219  -0.49238
 Alpha  occ. eigenvalues --   -0.49043  -0.48938  -0.48033  -0.47932  -0.47470
 Alpha  occ. eigenvalues --   -0.47294  -0.47058  -0.46858  -0.46703  -0.46582
 Alpha  occ. eigenvalues --   -0.46099  -0.45886  -0.45522  -0.44954  -0.44687
 Alpha  occ. eigenvalues --   -0.44500  -0.44345  -0.44202  -0.43664  -0.43469
 Alpha  occ. eigenvalues --   -0.43003  -0.42819  -0.42565  -0.42446  -0.42125
 Alpha  occ. eigenvalues --   -0.42027  -0.41834  -0.41214  -0.41083  -0.40421
 Alpha  occ. eigenvalues --   -0.39921  -0.39641  -0.39481  -0.39227  -0.39142
 Alpha  occ. eigenvalues --   -0.39082  -0.38898  -0.38726  -0.38292  -0.37663
 Alpha  occ. eigenvalues --   -0.36888  -0.36664  -0.36484  -0.36068  -0.35660
 Alpha  occ. eigenvalues --   -0.35336  -0.33817  -0.33560  -0.32388  -0.32174
 Alpha  occ. eigenvalues --   -0.31549  -0.29669  -0.29401  -0.27047  -0.23948
 Alpha  occ. eigenvalues --   -0.20858
 Alpha virt. eigenvalues --   -0.04918  -0.00920   0.02559   0.05492   0.07095
 Alpha virt. eigenvalues --    0.08521   0.08989   0.10929   0.11713   0.12169
 Alpha virt. eigenvalues --    0.12836   0.13333   0.13441   0.13792   0.14349

 Mulliken charges:
               1
     1  O   -0.508517
     2  O   -0.537930
     3  C   -0.007669
     4  C   -0.136503
     5  C   -0.178799
     6  C    0.144216
     7  C    0.116861
     8  C   -0.032963
     9  C   -0.295301
    10  C   -0.260837
    11  C   -0.161398
    12  C   -0.120039
    13  C    0.135108
    14  C    0.103354
    15  C   -0.056393
    16  C   -0.198854
    17  C   -0.014323
    18  C   -0.294843
    19  C   -0.302969
    20  C   -0.348829
    21  C   -0.099966
    22  C   -0.092456
    23  C   -0.380223
    24  C    0.091430
    25  C   -0.092854
    26  C   -0.366619
    27  C    0.100496
    28  C   -0.129466
    29  C   -0.385226
    30  C   -0.150079
    31  C   -0.088797
    32  C   -0.055048
    33  C   -0.048534
    34  C    0.085609
    35  C   -0.109321
    36  C    0.103917
    37  C   -0.389983
    38  C   -0.110016
    39  C   -0.113295
    40  C   -0.386717
    41  C   -0.083207
    42  C   -0.077432
    43  H    0.083316
    44  H    0.079631
    45  H    0.091790
    46  H    0.037039
    47  H    0.108570
    48  H    0.100534
    49  H    0.086487
    50  H    0.126846
    51  H    0.098024
    52  H    0.078769
    53  H    0.107866
    54  H    0.077305
    55  H    0.040333
    56  H    0.060703
    57  H    0.084658
    58  H    0.118033
    59  H    0.123343
    60  H    0.099078
    61  H    0.099986
    62  H    0.076454
    63  H    0.111919
    64  H    0.110387
    65  H    0.099072
    66  H    0.101068
    67  H    0.115404
    68  H    0.108039
    69  H    0.292340
    70  H    0.066776
    71  H    0.079861
    72  H    0.121207
    73  H    0.117218
    74  H    0.086277
    75  H    0.313077
    76  H    0.063720
    77  H    0.098468
    78  H    0.126282
    79  H    0.128620
    80  H    0.069781
    81  H    0.106990
    82  H    0.118227
    83  H    0.102868
    84  H    0.090857
    85  H    0.098358
    86  H    0.079124
    87  H    0.070876
    88  H    0.079406
    89  H    0.125750
    90  H    0.093337
    91  H    0.109396
    92  H    0.063972
    93  H    0.082738
    94  H    0.115950
    95  H    0.104664
    96  H    0.126885
    97  H    0.090719
    98  H    0.086020
 Sum of Mulliken charges =  -0.00000

 Dipole moment (field-independent basis, Debye):
    X=              0.3093    Y=             -0.9396    Z=              0.5435  Tot=              1.1287
 Quadrupole moment (field-independent basis, Debye-Ang):
   XX=           -291.2748   YY=           -243.7506   ZZ=           -263.4292
   XY=            -11.7553   XZ=             39.3354   YZ=             -0.3360

 Normal termination of Gaussian 16 at Mon Jul 15 07:47:35 2019.
