 Gaussian 16, Revision A.03,
 Gaussian 16:  ES64L-G16RevA.03 25-Dec-2016

 -------------------------------------
 # td=(NStates=1) CAM-B3LYP/6-31G(d,p)
 -------------------------------------

 --
 TD
 --
 Symbolic Z-matrix:
 Charge =  0 Multiplicity = 1

                         Standard orientation:
 ---------------------------------------------------------------------
 Center     Atomic      Atomic             Coordinates (Angstroms)
 Number     Number       Type             X           Y           Z
 ---------------------------------------------------------------------
      1          8           0      -14.145009   -1.842326    0.374698
      2          8           0       14.764362    0.859182    0.111883
      3          6           0      -11.748916   -0.067731    1.353769
      4          6           0      -10.939063    0.339271    0.105281
      5          6           0      -12.100287   -1.573067    1.464561
      6          6           0      -12.785520   -2.035765    0.249404
      7          6           0      -11.614773   -0.268246   -1.197887
      8          6           0       11.051322    1.043370    1.069762
      9          6           0      -11.090637    0.450223    2.636079
     10          6           0      -13.090686    0.726325    1.268979
     11          6           0       12.449637    1.546367    0.812790
     12          6           0      -12.332850   -1.402970   -1.163453
     13          6           0       13.431356    0.457686    0.404301
     14          6           0       10.660377   -0.070761    0.051936
     15          6           0       -9.516263   -0.125456    0.018896
     16          6           0       13.016179   -0.167298   -0.859006
     17          6           0       11.444794   -0.517321   -0.885267
     18          6           0       10.183959    2.269465    1.042798
     19          6           0       11.152378    0.416633    2.474505
     20          6           0      -11.210738    0.316485   -2.532799
     21          6           0       -8.469914    0.757547   -0.106595
     22          6           0        9.182243   -0.474539    0.132769
     23          6           0       11.117622   -1.353739   -2.101793
     24          6           0       -6.994381    0.473616   -0.117247
     25          6           0        8.742185   -1.740089   -0.117644
     26          6           0       -6.645069   -0.976408   -0.092585
     27          6           0        7.365028   -2.213769   -0.063470
     28          6           0       -6.150751    1.507037   -0.376116
     29          6           0        7.152688   -3.666067    0.080843
     30          6           0        6.320021   -1.348258   -0.138917
     31          6           0       -4.738524    1.530960   -0.364157
     32          6           0        4.905822   -1.605250   -0.155776
     33          6           0       -3.985733    2.736136   -0.582845
     34          6           0       -2.554620    2.652251   -0.674313
     35          6           0        3.993482   -0.652756   -0.434403
     36          6           0        2.701094   -0.802070   -0.219177
     37          6           0       -1.831154    3.885334   -0.934226
     38          6           0       -1.753476    1.528886   -0.634658
     39          6           0        1.849551    0.296197   -0.355315
     40          6           0        2.179878   -2.202963    0.129792
     41          6           0       -0.347276    1.460583   -0.440988
     42          6           0        0.434087    0.249148   -0.337716
     43          1           0      -10.849076    1.375245    0.028261
     44          1           0      -12.625583   -1.746718    2.454507
     45          1           0      -11.162533   -2.074244    1.641713
     46          1           0      -12.713446   -3.069401    0.221765
     47          1           0      -10.312043   -0.232136    2.838825
     48          1           0      -10.831858    1.381141    2.509016
     49          1           0      -11.639314    0.390106    3.702605
     50          1           0      -13.643555    0.662204    0.211711
     51          1           0      -13.997387    0.171026    1.803757
     52          1           0      -12.924306    1.722727    1.356329
     53          1           0       12.433803    2.241335    0.110877
     54          1           0       12.546761    2.324364    1.696759
     55          1           0      -12.825367   -1.721635   -2.075861
     56          1           0       13.490420   -0.316356    1.370707
     57          1           0       -9.297310   -1.103165    0.338007
     58          1           0       13.597505   -1.136679   -0.839300
     59          1           0       13.249403    0.537438   -1.631479
     60          1           0        9.126893    2.077614    1.286643
     61          1           0       10.087430    2.604257    0.049236
     62          1           0       10.602026    3.145445    1.479183
     63          1           0       11.727150   -0.663046    2.583796
     64          1           0       10.135402    0.037996    2.685859
     65          1           0       11.436128    1.065083    3.218030
     66          1           0      -10.114416    0.385990   -2.610382
     67          1           0      -11.549980    1.423927   -2.701990
     68          1           0      -11.773044   -0.268595   -3.315536
     69          1           0      -14.585948   -2.191590   -0.415302
     70          1           0        8.587554    0.350105    0.464878
     71          1           0       -8.623064    1.929490   -0.195179
     72          1           0       11.142003   -2.457716   -2.025394
     73          1           0       10.160443   -1.180117   -2.107288
     74          1           0       11.582402   -0.968318   -2.921695
     75          1           0       15.227476    1.349698    0.908923
     76          1           0        9.398075   -2.581894   -0.194691
     77          1           0       -5.601940   -1.372486   -0.070027
     78          1           0       -7.053137   -1.526865    0.899397
     79          1           0       -7.221635   -1.399561   -0.780411
     80          1           0       -6.727892    2.446558   -0.520301
     81          1           0        6.430359   -3.844027    0.920478
     82          1           0        6.929412   -3.955210   -1.109381
     83          1           0        8.057427   -4.140661    0.374691
     84          1           0        6.737143   -0.353140   -0.267464
     85          1           0       -4.133034    0.654871    0.022666
     86          1           0        4.582958   -2.752174    0.026955
     87          1           0       -4.374143    3.757417   -0.766697
     88          1           0        4.336236    0.219989   -0.605514
     89          1           0       -1.292313    3.970555   -1.972574
     90          1           0       -1.253554    4.096130   -0.090596
     91          1           0       -2.486138    4.816760   -1.122697
     92          1           0       -2.207405    0.574701   -0.557614
     93          1           0        2.333269    1.152853   -0.367228
     94          1           0        2.142949   -2.446891    1.243945
     95          1           0        1.105557   -2.413293   -0.574656
     96          1           0        2.878855   -3.085556   -0.252188
     97          1           0        0.279344    2.384972   -0.493239
     98          1           0       -0.078225   -0.657336   -0.218136
 ---------------------------------------------------------------------

 SCF Done:  E(RCAM-B3LYP) =  -1706.95552070     A.U. after   15 cycles

 Excitation energies and oscillator strengths:

 Excited State   1:      Singlet-A      2.0028 eV  619.05 nm  f=2.9004  <S**2>=0.000
     155 ->158         0.13674
     156 ->157         0.69700
     156 <-157        -0.10239
 This state for optimization and/or second-order correction.
 Total Energy, E(TD-HF/TD-DFT) =  -1706.88191867
 Copying the excited state density for this state as the 1-particle RhoCI density.

 The electronic state is 1-A.
 Alpha  occ. eigenvalues --  -19.21165 -19.20496 -10.30765 -10.29975 -10.28345
 Alpha  occ. eigenvalues --  -10.27794 -10.27762 -10.27577 -10.27398 -10.27119
 Alpha  occ. eigenvalues --  -10.26938 -10.26926 -10.26790 -10.26651 -10.26572
 Alpha  occ. eigenvalues --  -10.26533 -10.26507 -10.26478 -10.26348 -10.26291
 Alpha  occ. eigenvalues --  -10.26286 -10.26232 -10.26205 -10.26188 -10.26150
 Alpha  occ. eigenvalues --  -10.26017 -10.25764 -10.25658 -10.25265 -10.25243
 Alpha  occ. eigenvalues --  -10.25243 -10.24969 -10.24920 -10.24845 -10.24760
 Alpha  occ. eigenvalues --  -10.24523 -10.24390 -10.23754 -10.23430 -10.23206
 Alpha  occ. eigenvalues --  -10.23205 -10.22729  -1.10635  -1.07640  -0.93764
 Alpha  occ. eigenvalues --   -0.93080  -0.93004  -0.91640  -0.90736  -0.90210
 Alpha  occ. eigenvalues --   -0.87625  -0.86653  -0.86336  -0.84985  -0.84314
 Alpha  occ. eigenvalues --   -0.82962  -0.81755  -0.80628  -0.80377  -0.77940
 Alpha  occ. eigenvalues --   -0.77365  -0.77029  -0.76788  -0.75731  -0.75698
 Alpha  occ. eigenvalues --   -0.75338  -0.74815  -0.74111  -0.73031  -0.70008
 Alpha  occ. eigenvalues --   -0.68935  -0.68302  -0.66650  -0.64648  -0.64071
 Alpha  occ. eigenvalues --   -0.63173  -0.62712  -0.61947  -0.60630  -0.59881
 Alpha  occ. eigenvalues --   -0.59572  -0.59178  -0.58001  -0.57640  -0.56896
 Alpha  occ. eigenvalues --   -0.56417  -0.54896  -0.54745  -0.54251  -0.53841
 Alpha  occ. eigenvalues --   -0.53431  -0.52644  -0.52576  -0.52035  -0.50987
 Alpha  occ. eigenvalues --   -0.50578  -0.50534  -0.50263  -0.49764  -0.49534
 Alpha  occ. eigenvalues --   -0.49069  -0.48866  -0.48674  -0.48499  -0.48156
 Alpha  occ. eigenvalues --   -0.47801  -0.47596  -0.47427  -0.46892  -0.46470
 Alpha  occ. eigenvalues --   -0.46337  -0.46068  -0.45793  -0.45624  -0.45187
 Alpha  occ. eigenvalues --   -0.44755  -0.44333  -0.44206  -0.44034  -0.43733
 Alpha  occ. eigenvalues --   -0.43306  -0.42327  -0.42125  -0.41994  -0.41776
 Alpha  occ. eigenvalues --   -0.41676  -0.41104  -0.40772  -0.40546  -0.40372
 Alpha  occ. eigenvalues --   -0.40239  -0.39611  -0.39524  -0.39329  -0.38828
 Alpha  occ. eigenvalues --   -0.38717  -0.38337  -0.38272  -0.37983  -0.37743
 Alpha  occ. eigenvalues --   -0.37145  -0.36677  -0.36172  -0.35887  -0.35774
 Alpha  occ. eigenvalues --   -0.35104  -0.34044  -0.33588  -0.31789  -0.31119
 Alpha  occ. eigenvalues --   -0.31009  -0.29913  -0.29019  -0.27115  -0.24008
 Alpha  occ. eigenvalues --   -0.18763
 Alpha virt. eigenvalues --   -0.06177  -0.01060   0.02934   0.05798   0.07811
 Alpha virt. eigenvalues --    0.09549   0.11352   0.11547   0.12087   0.12388
 Alpha virt. eigenvalues --    0.12488   0.13230   0.13621   0.13776   0.13964

 Mulliken charges:
               1
     1  O   -0.539892
     2  O   -0.575343
     3  C    0.011725
     4  C   -0.114472
     5  C   -0.195565
     6  C    0.166633
     7  C    0.125672
     8  C   -0.018371
     9  C   -0.287829
    10  C   -0.294512
    11  C   -0.177306
    12  C   -0.162805
    13  C    0.179686
    14  C    0.077990
    15  C   -0.084376
    16  C   -0.199987
    17  C   -0.016577
    18  C   -0.331138
    19  C   -0.283697
    20  C   -0.356848
    21  C   -0.117579
    22  C   -0.113381
    23  C   -0.342900
    24  C    0.133253
    25  C   -0.101968
    26  C   -0.378455
    27  C    0.067389
    28  C   -0.127002
    29  C   -0.360479
    30  C   -0.110090
    31  C   -0.093773
    32  C   -0.107140
    33  C   -0.106804
    34  C    0.097997
    35  C   -0.055668
    36  C    0.132053
    37  C   -0.384476
    38  C   -0.109977
    39  C   -0.111265
    40  C   -0.363932
    41  C   -0.098391
    42  C   -0.084054
    43  H    0.092749
    44  H    0.115853
    45  H    0.091897
    46  H    0.074111
    47  H    0.097208
    48  H    0.107000
    49  H    0.079851
    50  H    0.082671
    51  H    0.109554
    52  H    0.091699
    53  H    0.093577
    54  H    0.060765
    55  H    0.073927
    56  H    0.043704
    57  H    0.089782
    58  H    0.118541
    59  H    0.123532
    60  H    0.101129
    61  H    0.119604
    62  H    0.109488
    63  H    0.086300
    64  H    0.093087
    65  H    0.106594
    66  H    0.128594
    67  H    0.093378
    68  H    0.102479
    69  H    0.303052
    70  H    0.089044
    71  H    0.071269
    72  H    0.108707
    73  H    0.128429
    74  H    0.114680
    75  H    0.305252
    76  H    0.087256
    77  H    0.111871
    78  H    0.088740
    79  H    0.144803
    80  H    0.078869
    81  H    0.125613
    82  H    0.111306
    83  H    0.111254
    84  H    0.066278
    85  H    0.103691
    86  H    0.075932
    87  H    0.093820
    88  H    0.060713
    89  H    0.115323
    90  H    0.136790
    91  H    0.086016
    92  H    0.066492
    93  H    0.069703
    94  H    0.127948
    95  H    0.080152
    96  H    0.099742
    97  H    0.081186
    98  H    0.082646
 Sum of Mulliken charges =  -0.00000

 Dipole moment (field-independent basis, Debye):
    X=              0.1314    Y=             -0.3648    Z=              0.1479  Tot=              0.4150
 Quadrupole moment (field-independent basis, Debye-Ang):
   XX=           -278.2428   YY=           -239.5393   ZZ=           -262.2078
   XY=             16.5676   XZ=             31.9541   YZ=              0.8360

 Normal termination of Gaussian 16 at Mon Jul 15 03:13:09 2019.
