 Gaussian 16, Revision A.03,
 Gaussian 16:  ES64L-G16RevA.03 25-Dec-2016

 -------------------------------------
 # td=(NStates=1) CAM-B3LYP/6-31G(d,p)
 -------------------------------------

 --
 TD
 --
 Symbolic Z-matrix:
 Charge =  0 Multiplicity = 1

                         Standard orientation:
 ---------------------------------------------------------------------
 Center     Atomic      Atomic             Coordinates (Angstroms)
 Number     Number       Type             X           Y           Z
 ---------------------------------------------------------------------
      1          8           0      -13.980149   -1.966462    0.732207
      2          8           0       14.810620    1.004776    0.406177
      3          6           0      -11.686264    0.108272    1.350017
      4          6           0      -10.982108    0.331468   -0.026365
      5          6           0      -11.925569   -1.462678    1.458986
      6          6           0      -12.559259   -2.165711    0.385427
      7          6           0      -11.634571   -0.524727   -1.222724
      8          6           0       11.047262    0.964714    1.045745
      9          6           0      -10.837782    0.608168    2.424562
     10          6           0      -13.062953    0.790964    1.324830
     11          6           0       12.506171    1.502194    0.815930
     12          6           0      -12.344000   -1.647524   -1.022457
     13          6           0       13.472880    0.383900    0.579919
     14          6           0       10.655576   -0.067288   -0.038117
     15          6           0       -9.472976   -0.009046   -0.015882
     16          6           0       13.069851   -0.199055   -0.798573
     17          6           0       11.570623   -0.555683   -0.899282
     18          6           0       10.150136    2.222586    1.065632
     19          6           0       10.880084    0.293643    2.397158
     20          6           0      -11.377855    0.091696   -2.493616
     21          6           0       -8.466343    0.801978   -0.292834
     22          6           0        9.219620   -0.431677   -0.157181
     23          6           0       11.362006   -1.424625   -2.055374
     24          6           0       -7.030500    0.475918   -0.277416
     25          6           0        8.722318   -1.711888   -0.285687
     26          6           0       -6.643344   -0.866549    0.209814
     27          6           0        7.386788   -2.128283   -0.311041
     28          6           0       -6.238451    1.464364   -0.556327
     29          6           0        7.189859   -3.583078   -0.124175
     30          6           0        6.346843   -1.194878   -0.176788
     31          6           0       -4.797953    1.545067   -0.500137
     32          6           0        4.947305   -1.643885   -0.067258
     33          6           0       -4.093832    2.562928   -0.703803
     34          6           0       -2.558235    2.644331   -0.825056
     35          6           0        3.884624   -0.639331   -0.150041
     36          6           0        2.511356   -0.781510   -0.062809
     37          6           0       -1.999237    3.976731   -1.007885
     38          6           0       -1.807432    1.560722   -0.650881
     39          6           0        1.649399    0.284297   -0.258485
     40          6           0        1.945247   -2.214173    0.199664
     41          6           0       -0.349581    1.601574   -0.502675
     42          6           0        0.314178    0.368294   -0.243798
     43          1           0      -10.840173    1.414732   -0.375370
     44          1           0      -12.354681   -1.808746    2.425398
     45          1           0      -10.818514   -1.706262    1.674319
     46          1           0      -12.336068   -3.312270    0.374256
     47          1           0       -9.857481    0.027472    2.682170
     48          1           0      -10.638707    1.699751    2.144557
     49          1           0      -11.352624    0.384196    3.288297
     50          1           0      -13.655486    0.508549    0.466218
     51          1           0      -13.644022    0.764689    2.298722
     52          1           0      -12.931278    1.793053    1.251376
     53          1           0       12.558825    2.396510    0.137331
     54          1           0       12.669182    2.044257    1.612553
     55          1           0      -13.028864   -2.242673   -1.843057
     56          1           0       13.544238   -0.313760    1.436451
     57          1           0       -9.367156   -1.216673    0.479386
     58          1           0       13.773665   -1.117376   -1.173490
     59          1           0       13.474461    0.448618   -1.749059
     60          1           0        9.149443    2.005052    1.372413
     61          1           0       10.193105    2.742957    0.174129
     62          1           0       10.483758    2.903572    1.809137
     63          1           0       11.700801   -0.427535    2.746633
     64          1           0        9.844248   -0.094059    2.743085
     65          1           0       10.962827    0.926475    3.393249
     66          1           0      -10.331959   -0.018236   -2.848408
     67          1           0      -11.735009    1.126836   -2.657855
     68          1           0      -12.011912   -0.481539   -3.187834
     69          1           0      -14.433728   -1.790121   -0.124502
     70          1           0        8.594816    0.302468    0.386942
     71          1           0       -9.063713    1.664161   -0.627395
     72          1           0       11.684930   -2.544246   -1.825275
     73          1           0       10.385311   -1.560674   -2.564233
     74          1           0       12.095854   -1.139458   -2.868812
     75          1           0       15.178546    1.374358    1.337129
     76          1           0        9.341340   -2.461103   -0.541860
     77          1           0       -5.508477   -1.235633    0.049390
     78          1           0       -6.617751   -1.011610    1.373534
     79          1           0       -7.287872   -1.706606   -0.295207
     80          1           0       -6.647400    2.472064   -0.760808
     81          1           0        6.682374   -3.834617    0.684487
     82          1           0        6.523532   -4.055602   -0.796321
     83          1           0        8.257019   -4.072456   -0.109555
     84          1           0        6.681925   -0.115059   -0.316733
     85          1           0       -4.127350    0.724793   -0.148578
     86          1           0        4.734587   -2.554301    0.303965
     87          1           0       -4.634765    3.428267   -1.006166
     88          1           0        4.367097    0.393842   -0.347000
     89          1           0       -1.290294    4.140813   -1.920276
     90          1           0       -1.494406    4.306741   -0.032695
     91          1           0       -2.732651    4.681740   -1.460680
     92          1           0       -2.216790    0.464560   -0.558646
     93          1           0        2.293195    1.202863   -0.514167
     94          1           0        2.490076   -2.812245    1.103028
     95          1           0        0.842160   -2.243034    0.396158
     96          1           0        2.302499   -2.767002   -0.868228
     97          1           0        0.110479    2.400668   -0.722905
     98          1           0       -0.388239   -0.400997   -0.192380
 ---------------------------------------------------------------------

 SCF Done:  E(RCAM-B3LYP) =  -1706.93404010     A.U. after   15 cycles

 Excitation energies and oscillator strengths:

 Excited State   1:      Singlet-A      2.2430 eV  552.76 nm  f=2.7271  <S**2>=0.000
     155 ->158        -0.13820
     156 ->157         0.69435
 This state for optimization and/or second-order correction.
 Total Energy, E(TD-HF/TD-DFT) =  -1706.85161132
 Copying the excited state density for this state as the 1-particle RhoCI density.

 The electronic state is 1-A.
 Alpha  occ. eigenvalues --  -19.20941 -19.20444 -10.31100 -10.30980 -10.28590
 Alpha  occ. eigenvalues --  -10.27974 -10.27967 -10.27858 -10.27786 -10.27639
 Alpha  occ. eigenvalues --  -10.27496 -10.27460 -10.27334 -10.27294 -10.27279
 Alpha  occ. eigenvalues --  -10.27155 -10.26923 -10.26839 -10.26724 -10.26600
 Alpha  occ. eigenvalues --  -10.26488 -10.26453 -10.26397 -10.26238 -10.26134
 Alpha  occ. eigenvalues --  -10.26126 -10.26018 -10.25931 -10.25895 -10.25874
 Alpha  occ. eigenvalues --  -10.25855 -10.25847 -10.25294 -10.25081 -10.24811
 Alpha  occ. eigenvalues --  -10.24746 -10.24675 -10.24371 -10.24316 -10.23851
 Alpha  occ. eigenvalues --  -10.23520 -10.22693  -1.07660  -1.05376  -0.93543
 Alpha  occ. eigenvalues --   -0.93195  -0.92644  -0.91748  -0.90962  -0.90313
 Alpha  occ. eigenvalues --   -0.87934  -0.87511  -0.86977  -0.85671  -0.84218
 Alpha  occ. eigenvalues --   -0.83702  -0.82054  -0.81602  -0.80247  -0.77974
 Alpha  occ. eigenvalues --   -0.76919  -0.76492  -0.76314  -0.75823  -0.75723
 Alpha  occ. eigenvalues --   -0.75152  -0.74925  -0.74519  -0.73109  -0.70451
 Alpha  occ. eigenvalues --   -0.68555  -0.67613  -0.66045  -0.65532  -0.64623
 Alpha  occ. eigenvalues --   -0.64222  -0.62845  -0.61896  -0.60889  -0.59708
 Alpha  occ. eigenvalues --   -0.59283  -0.58019  -0.57611  -0.56950  -0.55969
 Alpha  occ. eigenvalues --   -0.55117  -0.54923  -0.54615  -0.53776  -0.53618
 Alpha  occ. eigenvalues --   -0.53244  -0.52916  -0.52450  -0.52083  -0.51330
 Alpha  occ. eigenvalues --   -0.50741  -0.50255  -0.49663  -0.49529  -0.49119
 Alpha  occ. eigenvalues --   -0.48738  -0.48317  -0.48177  -0.47911  -0.47769
 Alpha  occ. eigenvalues --   -0.47494  -0.47421  -0.47034  -0.46900  -0.46517
 Alpha  occ. eigenvalues --   -0.46265  -0.45515  -0.45373  -0.44463  -0.44380
 Alpha  occ. eigenvalues --   -0.44026  -0.43659  -0.43506  -0.43187  -0.43050
 Alpha  occ. eigenvalues --   -0.42737  -0.42647  -0.42400  -0.42000  -0.41890
 Alpha  occ. eigenvalues --   -0.41653  -0.41506  -0.41361  -0.40808  -0.40559
 Alpha  occ. eigenvalues --   -0.40302  -0.39866  -0.39410  -0.39268  -0.39130
 Alpha  occ. eigenvalues --   -0.38932  -0.38634  -0.38280  -0.37866  -0.37279
 Alpha  occ. eigenvalues --   -0.37131  -0.37075  -0.36662  -0.36541  -0.35797
 Alpha  occ. eigenvalues --   -0.35227  -0.34228  -0.33533  -0.32220  -0.31919
 Alpha  occ. eigenvalues --   -0.31534  -0.30192  -0.29347  -0.26886  -0.24502
 Alpha  occ. eigenvalues --   -0.19580
 Alpha virt. eigenvalues --   -0.05768  -0.00202   0.02410   0.05205   0.06954
 Alpha virt. eigenvalues --    0.09121   0.10491   0.10765   0.11573   0.12393
 Alpha virt. eigenvalues --    0.12666   0.13249   0.13386   0.13415   0.13966

 Mulliken charges:
               1
     1  O   -0.552819
     2  O   -0.586171
     3  C    0.026377
     4  C   -0.152958
     5  C   -0.161304
     6  C    0.152598
     7  C    0.145853
     8  C   -0.036692
     9  C   -0.294325
    10  C   -0.270754
    11  C   -0.165796
    12  C   -0.180744
    13  C    0.164142
    14  C    0.074101
    15  C   -0.076560
    16  C   -0.229225
    17  C    0.098868
    18  C   -0.313502
    19  C   -0.308526
    20  C   -0.377116
    21  C   -0.088975
    22  C   -0.132198
    23  C   -0.375708
    24  C    0.143755
    25  C   -0.080147
    26  C   -0.371922
    27  C    0.103151
    28  C   -0.137084
    29  C   -0.379784
    30  C   -0.130613
    31  C   -0.026516
    32  C   -0.096378
    33  C   -0.114918
    34  C    0.098827
    35  C   -0.135152
    36  C    0.125101
    37  C   -0.386721
    38  C   -0.139516
    39  C   -0.121249
    40  C   -0.352690
    41  C   -0.047985
    42  C   -0.072666
    43  H    0.073420
    44  H    0.112063
    45  H    0.068373
    46  H    0.081279
    47  H    0.093688
    48  H    0.096808
    49  H    0.109638
    50  H    0.097763
    51  H    0.093218
    52  H    0.088807
    53  H    0.103302
    54  H    0.087036
    55  H    0.080202
    56  H    0.098281
    57  H    0.049628
    58  H    0.086735
    59  H    0.111140
    60  H    0.101356
    61  H    0.114611
    62  H    0.104655
    63  H    0.094435
    64  H    0.109132
    65  H    0.073497
    66  H    0.132916
    67  H    0.117492
    68  H    0.103610
    69  H    0.299712
    70  H    0.077187
    71  H    0.076494
    72  H    0.099524
    73  H    0.120759
    74  H    0.104012
    75  H    0.300038
    76  H    0.074636
    77  H    0.097077
    78  H    0.120638
    79  H    0.115476
    80  H    0.083936
    81  H    0.137192
    82  H    0.120525
    83  H    0.094385
    84  H    0.090917
    85  H    0.067018
    86  H    0.083450
    87  H    0.062146
    88  H    0.078084
    89  H    0.109199
    90  H    0.129847
    91  H    0.112543
    92  H    0.080426
    93  H    0.078792
    94  H    0.100498
    95  H    0.113063
    96  H    0.101866
    97  H    0.069901
    98  H    0.081514
 Sum of Mulliken charges =  -0.00000

 Dipole moment (field-independent basis, Debye):
    X=             -0.2244    Y=              0.6808    Z=              0.1738  Tot=              0.7376
 Quadrupole moment (field-independent basis, Debye-Ang):
   XX=           -288.3069   YY=           -246.1797   ZZ=           -258.5597
   XY=             -7.0020   XZ=             43.9223   YZ=              0.8569

 Normal termination of Gaussian 16 at Sat Jul 13 06:52:01 2019.
