 Gaussian 16, Revision A.03,
 Gaussian 16:  ES64L-G16RevA.03 25-Dec-2016

 -------------------------------------
 # td=(NStates=1) CAM-B3LYP/6-31G(d,p)
 -------------------------------------

 --
 TD
 --
 Symbolic Z-matrix:
 Charge =  0 Multiplicity = 1

                         Standard orientation:
 ---------------------------------------------------------------------
 Center     Atomic      Atomic             Coordinates (Angstroms)
 Number     Number       Type             X           Y           Z
 ---------------------------------------------------------------------
      1          8           0      -14.133713   -2.029007    0.245172
      2          8           0       14.858671    0.639971    0.059388
      3          6           0      -11.702888   -0.119559    1.249846
      4          6           0      -10.966586    0.302584   -0.059518
      5          6           0      -11.941336   -1.607478    1.290727
      6          6           0      -12.678181   -2.120279    0.072214
      7          6           0      -11.601011   -0.389268   -1.235774
      8          6           0       11.166650    0.961368    0.953975
      9          6           0      -10.922170    0.354453    2.501439
     10          6           0      -13.046876    0.612018    1.103968
     11          6           0       12.461347    1.490285    0.550833
     12          6           0      -12.315409   -1.531896   -1.172894
     13          6           0       13.454936    0.302166    0.302028
     14          6           0       10.652511   -0.073708   -0.057486
     15          6           0       -9.511394   -0.037545    0.070181
     16          6           0       12.972764   -0.410649   -1.029201
     17          6           0       11.452752   -0.625089   -0.985498
     18          6           0       10.064050    2.139287    0.911774
     19          6           0       11.118141    0.417442    2.446034
     20          6           0      -11.286041    0.418494   -2.556945
     21          6           0       -8.474145    0.778536   -0.110004
     22          6           0        9.205513   -0.386143    0.097911
     23          6           0       10.961784   -1.469253   -2.176000
     24          6           0       -7.086301    0.441174   -0.153366
     25          6           0        8.727851   -1.633647   -0.269045
     26          6           0       -6.689112   -0.958961   -0.001405
     27          6           0        7.385378   -2.121793   -0.118898
     28          6           0       -6.221938    1.532889   -0.322929
     29          6           0        7.177724   -3.593283    0.251032
     30          6           0        6.372035   -1.245124   -0.241057
     31          6           0       -4.810046    1.515987   -0.290529
     32          6           0        5.068517   -1.450003   -0.016770
     33          6           0       -3.946515    2.551770   -0.439552
     34          6           0       -2.557499    2.686378   -0.424839
     35          6           0        4.050959   -0.522530   -0.125097
     36          6           0        2.661675   -0.617943    0.074741
     37          6           0       -1.891213    3.996527   -0.695046
     38          6           0       -1.796253    1.498877   -0.437016
     39          6           0        1.809873    0.459192   -0.215504
     40          6           0        2.009686   -1.961271    0.549865
     41          6           0       -0.326866    1.550062   -0.366485
     42          6           0        0.444026    0.481842   -0.144979
     43          1           0      -11.080658    1.380790   -0.404062
     44          1           0      -12.734880   -1.701716    2.084851
     45          1           0      -10.970300   -1.956460    1.541176
     46          1           0      -12.555921   -3.299229    0.187794
     47          1           0      -10.090966   -0.222583    2.663913
     48          1           0      -10.636500    1.369554    2.450016
     49          1           0      -11.530651    0.191752    3.481534
     50          1           0      -13.765500    0.282442    0.286917
     51          1           0      -13.674419    0.291725    2.040332
     52          1           0      -12.780193    1.646095    1.089442
     53          1           0       12.455459    1.997890   -0.467650
     54          1           0       12.784029    2.165879    1.274060
     55          1           0      -12.641111   -1.876697   -2.067640
     56          1           0       13.132081   -0.428335    1.186574
     57          1           0       -9.288506   -1.082001    0.322991
     58          1           0       13.356032   -1.482351   -1.067805
     59          1           0       13.256341    0.197865   -1.909122
     60          1           0        8.995281    1.678480    1.199772
     61          1           0       10.068433    2.591292   -0.134194
     62          1           0       10.443347    2.967688    1.597779
     63          1           0       11.781812   -0.482780    2.606731
     64          1           0       10.058926    0.130857    2.695444
     65          1           0       11.387304    1.444222    2.988418
     66          1           0      -10.139452    0.346616   -2.732060
     67          1           0      -11.660230    1.491775   -2.619467
     68          1           0      -11.748966   -0.007098   -3.367310
     69          1           0      -14.571747   -2.042582   -0.660816
     70          1           0        8.502453    0.366066    0.483836
     71          1           0       -8.763588    1.867347   -0.236661
     72          1           0       11.212374   -2.436174   -2.148649
     73          1           0        9.970545   -1.222756   -2.226740
     74          1           0       11.456163   -0.943682   -3.192704
     75          1           0       14.978851    1.275732    0.868350
     76          1           0        9.326744   -2.400656   -0.440008
     77          1           0       -5.482607   -1.391950   -0.326816
     78          1           0       -6.849167   -1.318780    1.023912
     79          1           0       -7.419313   -1.469209   -0.679958
     80          1           0       -6.423694    2.593089   -0.584952
     81          1           0        6.889948   -3.634161    1.371380
     82          1           0        6.546178   -3.829164   -0.527963
     83          1           0        8.220448   -4.138611    0.137946
     84          1           0        6.672771   -0.128741   -0.213451
     85          1           0       -4.228306    0.643327   -0.016129
     86          1           0        4.694659   -2.464018    0.135226
     87          1           0       -4.540213    3.394112   -0.757373
     88          1           0        4.294452    0.475632   -0.556037
     89          1           0       -1.415829    4.338205   -1.661255
     90          1           0       -0.897367    4.227029   -0.001906
     91          1           0       -2.688139    4.865383   -0.466424
     92          1           0       -2.333976    0.572097   -0.470608
     93          1           0        2.111092    1.520002   -0.464907
     94          1           0        2.232575   -2.266368    1.608522
     95          1           0        0.965594   -1.741351    0.587416
     96          1           0        2.456494   -2.769867    0.031161
     97          1           0        0.248752    2.443361   -0.752117
     98          1           0       -0.064971   -0.602170    0.088414
 ---------------------------------------------------------------------

 SCF Done:  E(RCAM-B3LYP) =  -1706.99872843     A.U. after   15 cycles

 Excitation energies and oscillator strengths:

 Excited State   1:      Singlet-A      2.1679 eV  571.91 nm  f=3.1299  <S**2>=0.000
     155 ->158         0.16059
     156 ->157         0.68773
 This state for optimization and/or second-order correction.
 Total Energy, E(TD-HF/TD-DFT) =  -1706.91905988
 Copying the excited state density for this state as the 1-particle RhoCI density.

 The electronic state is 1-A.
 Alpha  occ. eigenvalues --  -19.22926 -19.20950 -10.31778 -10.31122 -10.28128
 Alpha  occ. eigenvalues --  -10.28026 -10.27980 -10.27942 -10.27684 -10.27682
 Alpha  occ. eigenvalues --  -10.27620 -10.27089 -10.27037 -10.27026 -10.26790
 Alpha  occ. eigenvalues --  -10.26776 -10.26756 -10.26749 -10.26737 -10.26617
 Alpha  occ. eigenvalues --  -10.26484 -10.26463 -10.26388 -10.26146 -10.26114
 Alpha  occ. eigenvalues --  -10.26058 -10.25944 -10.25872 -10.25860 -10.25826
 Alpha  occ. eigenvalues --  -10.25707 -10.25476 -10.25418 -10.25294 -10.25223
 Alpha  occ. eigenvalues --  -10.25090 -10.25077 -10.24588 -10.24586 -10.24484
 Alpha  occ. eigenvalues --  -10.23682 -10.23304  -1.07875  -1.07559  -0.94209
 Alpha  occ. eigenvalues --   -0.93930  -0.92541  -0.92112  -0.91281  -0.90281
 Alpha  occ. eigenvalues --   -0.87825  -0.86757  -0.86665  -0.85677  -0.84694
 Alpha  occ. eigenvalues --   -0.83527  -0.82498  -0.80336  -0.79557  -0.77854
 Alpha  occ. eigenvalues --   -0.76830  -0.76546  -0.76381  -0.76332  -0.76192
 Alpha  occ. eigenvalues --   -0.75444  -0.74700  -0.74603  -0.73013  -0.70462
 Alpha  occ. eigenvalues --   -0.69146  -0.67985  -0.66949  -0.64867  -0.63848
 Alpha  occ. eigenvalues --   -0.63324  -0.62707  -0.61716  -0.60703  -0.59819
 Alpha  occ. eigenvalues --   -0.59560  -0.58434  -0.57651  -0.57500  -0.56654
 Alpha  occ. eigenvalues --   -0.56359  -0.55441  -0.54679  -0.54077  -0.53559
 Alpha  occ. eigenvalues --   -0.53115  -0.52972  -0.52140  -0.51641  -0.51506
 Alpha  occ. eigenvalues --   -0.51163  -0.50827  -0.50602  -0.50108  -0.49455
 Alpha  occ. eigenvalues --   -0.49446  -0.48841  -0.48132  -0.47991  -0.47780
 Alpha  occ. eigenvalues --   -0.47378  -0.47171  -0.46932  -0.46656  -0.45938
 Alpha  occ. eigenvalues --   -0.45668  -0.45380  -0.45141  -0.44980  -0.44898
 Alpha  occ. eigenvalues --   -0.44828  -0.44397  -0.44045  -0.43721  -0.43195
 Alpha  occ. eigenvalues --   -0.43083  -0.42932  -0.42673  -0.42512  -0.42345
 Alpha  occ. eigenvalues --   -0.41838  -0.41825  -0.41564  -0.41345  -0.41049
 Alpha  occ. eigenvalues --   -0.40569  -0.40268  -0.40105  -0.39325  -0.39226
 Alpha  occ. eigenvalues --   -0.39036  -0.38804  -0.38578  -0.38197  -0.37747
 Alpha  occ. eigenvalues --   -0.37575  -0.37433  -0.37150  -0.36564  -0.36316
 Alpha  occ. eigenvalues --   -0.35865  -0.34223  -0.33821  -0.32321  -0.31670
 Alpha  occ. eigenvalues --   -0.31143  -0.29472  -0.29430  -0.26977  -0.23438
 Alpha  occ. eigenvalues --   -0.19607
 Alpha virt. eigenvalues --   -0.05929  -0.01482   0.02705   0.05018   0.06668
 Alpha virt. eigenvalues --    0.09390   0.11171   0.11404   0.11834   0.11899
 Alpha virt. eigenvalues --    0.11950   0.12695   0.13016   0.13693   0.13814

 Mulliken charges:
               1
     1  O   -0.571423
     2  O   -0.552191
     3  C   -0.008869
     4  C   -0.123573
     5  C   -0.172717
     6  C    0.150682
     7  C    0.096659
     8  C   -0.048623
     9  C   -0.301806
    10  C   -0.285125
    11  C   -0.180268
    12  C   -0.111586
    13  C    0.147300
    14  C    0.111736
    15  C   -0.093510
    16  C   -0.204261
    17  C   -0.007592
    18  C   -0.296519
    19  C   -0.281516
    20  C   -0.363510
    21  C   -0.076042
    22  C   -0.108952
    23  C   -0.341854
    24  C    0.110969
    25  C   -0.096291
    26  C   -0.364400
    27  C    0.024478
    28  C   -0.129576
    29  C   -0.347711
    30  C   -0.085821
    31  C   -0.049642
    32  C   -0.086902
    33  C   -0.136320
    34  C    0.135888
    35  C   -0.119034
    36  C    0.087767
    37  C   -0.376035
    38  C   -0.123048
    39  C   -0.128318
    40  C   -0.358774
    41  C   -0.122391
    42  C   -0.039897
    43  H    0.086772
    44  H    0.120059
    45  H    0.099715
    46  H    0.069480
    47  H    0.107562
    48  H    0.108346
    49  H    0.084212
    50  H    0.113489
    51  H    0.075932
    52  H    0.087773
    53  H    0.100956
    54  H    0.079339
    55  H    0.072056
    56  H    0.063799
    57  H    0.078144
    58  H    0.107939
    59  H    0.119482
    60  H    0.094308
    61  H    0.106679
    62  H    0.089205
    63  H    0.109585
    64  H    0.109403
    65  H    0.085555
    66  H    0.121223
    67  H    0.112952
    68  H    0.113130
    69  H    0.307582
    70  H    0.088096
    71  H    0.078512
    72  H    0.124343
    73  H    0.135779
    74  H    0.069028
    75  H    0.308206
    76  H    0.076305
    77  H    0.083644
    78  H    0.132104
    79  H    0.124403
    80  H    0.082048
    81  H    0.132584
    82  H    0.143804
    83  H    0.094460
    84  H    0.071588
    85  H    0.056777
    86  H    0.071109
    87  H    0.058087
    88  H    0.073047
    89  H    0.130815
    90  H    0.096028
    91  H    0.092269
    92  H    0.095204
    93  H    0.078406
    94  H    0.114242
    95  H    0.108690
    96  H    0.124772
    97  H    0.089670
    98  H    0.069923
 Sum of Mulliken charges =  -0.00000

 Dipole moment (field-independent basis, Debye):
    X=              0.7239    Y=             -0.2180    Z=             -0.5360  Tot=              0.9268
 Quadrupole moment (field-independent basis, Debye-Ang):
   XX=           -296.9124   YY=           -246.4917   ZZ=           -261.7824
   XY=              3.6576   XZ=             42.0207   YZ=             -0.2154

 Normal termination of Gaussian 16 at Sun Jul 14 19:05:57 2019.
