 Gaussian 16, Revision A.03,
 Gaussian 16:  ES64L-G16RevA.03 25-Dec-2016

 -------------------------------------
 # td=(NStates=1) CAM-B3LYP/6-31G(d,p)
 -------------------------------------

 --
 TD
 --
 Symbolic Z-matrix:
 Charge =  0 Multiplicity = 1

                         Standard orientation:
 ---------------------------------------------------------------------
 Center     Atomic      Atomic             Coordinates (Angstroms)
 Number     Number       Type             X           Y           Z
 ---------------------------------------------------------------------
      1          8           0      -14.152776   -2.022463    0.610130
      2          8           0       14.903338    0.733482    0.015716
      3          6           0      -11.831666    0.061526    1.265597
      4          6           0      -11.052499    0.301673   -0.062718
      5          6           0      -12.016434   -1.463766    1.423056
      6          6           0      -12.781905   -2.152061    0.304488
      7          6           0      -11.657438   -0.467431   -1.256868
      8          6           0       11.208035    0.977116    0.975878
      9          6           0      -10.971157    0.519781    2.346017
     10          6           0      -13.049478    0.846824    1.248773
     11          6           0       12.596680    1.428550    0.733354
     12          6           0      -12.336698   -1.594945   -1.043737
     13          6           0       13.525267    0.238124    0.375264
     14          6           0       10.758246   -0.123284   -0.013715
     15          6           0       -9.642169   -0.108593   -0.014504
     16          6           0       13.086989   -0.499857   -0.801421
     17          6           0       11.585101   -0.752636   -0.826829
     18          6           0       10.237083    2.271432    1.002754
     19          6           0       11.023833    0.376942    2.472768
     20          6           0      -11.331247   -0.037662   -2.595111
     21          6           0       -8.530079    0.768908   -0.060971
     22          6           0        9.292064   -0.308413   -0.031608
     23          6           0       11.164072   -1.644223   -1.969080
     24          6           0       -7.118134    0.395450   -0.143919
     25          6           0        8.802275   -1.534401   -0.003075
     26          6           0       -6.774866   -0.934443    0.111853
     27          6           0        7.391350   -1.996030   -0.182631
     28          6           0       -6.260518    1.461433   -0.415732
     29          6           0        7.073591   -3.433968    0.073519
     30          6           0        6.459432   -1.050320   -0.194612
     31          6           0       -4.888655    1.480013   -0.279063
     32          6           0        5.020801   -1.393199   -0.060349
     33          6           0       -4.043936    2.574781   -0.625634
     34          6           0       -2.620956    2.672029   -0.695088
     35          6           0        3.957150   -0.420244   -0.206959
     36          6           0        2.669169   -0.650261   -0.037648
     37          6           0       -1.859717    4.040510   -1.000366
     38          6           0       -1.879404    1.555232   -0.441494
     39          6           0        1.859816    0.498205   -0.312697
     40          6           0        2.136429   -1.961346    0.272429
     41          6           0       -0.464660    1.473451   -0.557881
     42          6           0        0.453528    0.418033   -0.377301
     43          1           0      -10.986925    1.308467   -0.290625
     44          1           0      -12.629216   -1.464219    2.318281
     45          1           0      -10.980691   -1.850703    1.617379
     46          1           0      -12.639116   -3.234027    0.153868
     47          1           0      -10.117868   -0.101920    2.456683
     48          1           0      -10.718801    1.419248    2.366784
     49          1           0      -11.448489    0.368819    3.352575
     50          1           0      -13.590154    0.595267    0.256583
     51          1           0      -13.660311    0.546975    2.144650
     52          1           0      -12.793806    1.828819    1.025724
     53          1           0       12.567197    2.032512   -0.270616
     54          1           0       12.924622    2.072587    1.441120
     55          1           0      -12.729384   -2.118072   -1.906045
     56          1           0       13.593286   -0.578817    1.282805
     57          1           0       -9.298503   -1.113207    0.179058
     58          1           0       13.578873   -1.484783   -0.941511
     59          1           0       13.435086   -0.170177   -1.709598
     60          1           0        9.299707    1.952487    1.331484
     61          1           0       10.119364    2.475205   -0.051439
     62          1           0       10.563873    2.947917    1.542394
     63          1           0       11.670928   -0.532892    2.634933
     64          1           0        9.861507    0.191136    2.704613
     65          1           0       11.283556    1.108025    3.261423
     66          1           0      -10.256250    0.097371   -2.636893
     67          1           0      -11.782941    0.926845   -3.095715
     68          1           0      -11.455690   -0.816271   -3.280722
     69          1           0      -14.589251   -2.182698   -0.233457
     70          1           0        8.554140    0.511708    0.136561
     71          1           0       -8.844395    1.782190    0.012701
     72          1           0       11.268895   -2.465969   -1.581947
     73          1           0       10.069884   -1.478324   -2.458426
     74          1           0       11.697325   -1.473016   -2.888110
     75          1           0       15.224066    1.349322    0.787348
     76          1           0        9.558877   -2.399859   -0.053690
     77          1           0       -5.667921   -0.941830    0.112906
     78          1           0       -7.240155   -1.313120    1.132428
     79          1           0       -7.279607   -1.736591   -0.576645
     80          1           0       -6.651136    2.404755   -0.800426
     81          1           0        7.332771   -3.701056    1.266957
     82          1           0        5.954167   -3.773746   -0.298995
     83          1           0        7.845935   -4.017794   -0.468233
     84          1           0        6.568828   -0.067989   -0.315375
     85          1           0       -4.299960    0.577608   -0.194756
     86          1           0        4.754847   -2.532719    0.141685
     87          1           0       -4.603074    3.563239   -0.887680
     88          1           0        4.534553    0.594235   -0.432551
     89          1           0       -1.120002    3.971181   -1.748144
     90          1           0       -1.348108    4.324920   -0.093112
     91          1           0       -2.412801    4.880297   -1.248602
     92          1           0       -2.246954    0.547024   -0.349220
     93          1           0        2.214304    1.465630   -0.495230
     94          1           0        2.675588   -2.182454    1.241946
     95          1           0        1.013582   -2.138398    0.209881
     96          1           0        2.472674   -2.717815   -0.442439
     97          1           0       -0.065794    2.549004   -0.737646
     98          1           0       -0.321398   -0.490059   -0.000115
 ---------------------------------------------------------------------

 SCF Done:  E(RCAM-B3LYP) =  -1706.94029644     A.U. after   15 cycles

 Excitation energies and oscillator strengths:

 Excited State   1:      Singlet-A      1.9916 eV  622.55 nm  f=3.0764  <S**2>=0.000
     155 ->158         0.13397
     156 ->157         0.69831
     156 <-157        -0.10594
 This state for optimization and/or second-order correction.
 Total Energy, E(TD-HF/TD-DFT) =  -1706.86710822
 Copying the excited state density for this state as the 1-particle RhoCI density.

 The electronic state is 1-A.
 Alpha  occ. eigenvalues --  -19.21406 -19.20965 -10.31871 -10.30334 -10.28347
 Alpha  occ. eigenvalues --  -10.28309 -10.27957 -10.27741 -10.27500 -10.27453
 Alpha  occ. eigenvalues --  -10.27306 -10.27139 -10.26932 -10.26769 -10.26746
 Alpha  occ. eigenvalues --  -10.26720 -10.26662 -10.26635 -10.26393 -10.26292
 Alpha  occ. eigenvalues --  -10.26286 -10.26115 -10.25989 -10.25865 -10.25857
 Alpha  occ. eigenvalues --  -10.25853 -10.25639 -10.25576 -10.25560 -10.25491
 Alpha  occ. eigenvalues --  -10.25283 -10.25227 -10.25030 -10.24970 -10.24779
 Alpha  occ. eigenvalues --  -10.24637 -10.24583 -10.24447 -10.24012 -10.23101
 Alpha  occ. eigenvalues --  -10.22883 -10.21299  -1.10008  -1.05668  -0.94686
 Alpha  occ. eigenvalues --   -0.93853  -0.92745  -0.91933  -0.90783  -0.90391
 Alpha  occ. eigenvalues --   -0.88549  -0.87473  -0.86348  -0.85600  -0.84601
 Alpha  occ. eigenvalues --   -0.83085  -0.81641  -0.81108  -0.80269  -0.78956
 Alpha  occ. eigenvalues --   -0.77573  -0.77365  -0.77284  -0.76760  -0.76362
 Alpha  occ. eigenvalues --   -0.75880  -0.75474  -0.74831  -0.72809  -0.70364
 Alpha  occ. eigenvalues --   -0.68718  -0.67876  -0.66346  -0.65570  -0.63819
 Alpha  occ. eigenvalues --   -0.63126  -0.63030  -0.60889  -0.60384  -0.59866
 Alpha  occ. eigenvalues --   -0.59583  -0.58381  -0.58128  -0.57484  -0.56980
 Alpha  occ. eigenvalues --   -0.55699  -0.55146  -0.54955  -0.54575  -0.54006
 Alpha  occ. eigenvalues --   -0.53684  -0.53204  -0.52784  -0.52556  -0.51601
 Alpha  occ. eigenvalues --   -0.50918  -0.50688  -0.50331  -0.49923  -0.49545
 Alpha  occ. eigenvalues --   -0.49032  -0.48652  -0.48499  -0.48386  -0.47864
 Alpha  occ. eigenvalues --   -0.47513  -0.47310  -0.47212  -0.47076  -0.46877
 Alpha  occ. eigenvalues --   -0.46467  -0.46261  -0.45756  -0.45619  -0.45242
 Alpha  occ. eigenvalues --   -0.45002  -0.44711  -0.44509  -0.44191  -0.43964
 Alpha  occ. eigenvalues --   -0.43467  -0.43280  -0.43254  -0.43088  -0.42536
 Alpha  occ. eigenvalues --   -0.41914  -0.41337  -0.41020  -0.40857  -0.40624
 Alpha  occ. eigenvalues --   -0.39965  -0.39851  -0.39650  -0.39423  -0.39086
 Alpha  occ. eigenvalues --   -0.38848  -0.38424  -0.38088  -0.37914  -0.37458
 Alpha  occ. eigenvalues --   -0.36961  -0.36900  -0.36733  -0.36608  -0.35888
 Alpha  occ. eigenvalues --   -0.35713  -0.35137  -0.33217  -0.31995  -0.31895
 Alpha  occ. eigenvalues --   -0.31149  -0.29539  -0.29254  -0.26897  -0.23544
 Alpha  occ. eigenvalues --   -0.18803
 Alpha virt. eigenvalues --   -0.06457  -0.01073   0.03080   0.05299   0.07150
 Alpha virt. eigenvalues --    0.09239   0.10890   0.11532   0.11762   0.12214
 Alpha virt. eigenvalues --    0.12508   0.12769   0.12890   0.13111   0.13941

 Mulliken charges:
               1
     1  O   -0.534999
     2  O   -0.581824
     3  C    0.007358
     4  C   -0.128278
     5  C   -0.179175
     6  C    0.161434
     7  C    0.149242
     8  C   -0.036615
     9  C   -0.270608
    10  C   -0.270000
    11  C   -0.178857
    12  C   -0.177671
    13  C    0.168529
    14  C    0.067991
    15  C   -0.088508
    16  C   -0.211116
    17  C    0.015779
    18  C   -0.289398
    19  C   -0.301659
    20  C   -0.377296
    21  C   -0.114207
    22  C   -0.112142
    23  C   -0.343591
    24  C    0.146208
    25  C   -0.092957
    26  C   -0.389715
    27  C    0.084362
    28  C   -0.114535
    29  C   -0.347621
    30  C   -0.069693
    31  C   -0.064873
    32  C   -0.127435
    33  C   -0.151626
    34  C    0.095576
    35  C   -0.115613
    36  C    0.134780
    37  C   -0.382357
    38  C   -0.100537
    39  C   -0.120507
    40  C   -0.377198
    41  C   -0.104665
    42  C   -0.088827
    43  H    0.083087
    44  H    0.107330
    45  H    0.089134
    46  H    0.074905
    47  H    0.098891
    48  H    0.099109
    49  H    0.076189
    50  H    0.088186
    51  H    0.102289
    52  H    0.095680
    53  H    0.093417
    54  H    0.090045
    55  H    0.066617
    56  H    0.064919
    57  H    0.072962
    58  H    0.106080
    59  H    0.134426
    60  H    0.103571
    61  H    0.104865
    62  H    0.103043
    63  H    0.097013
    64  H    0.091219
    65  H    0.091290
    66  H    0.122985
    67  H    0.104259
    68  H    0.116129
    69  H    0.300295
    70  H    0.088456
    71  H    0.072314
    72  H    0.134432
    73  H    0.101397
    74  H    0.109125
    75  H    0.303651
    76  H    0.063180
    77  H    0.107899
    78  H    0.110490
    79  H    0.121630
    80  H    0.089001
    81  H    0.104389
    82  H    0.102978
    83  H    0.114230
    84  H    0.070422
    85  H    0.080482
    86  H    0.067984
    87  H    0.067111
    88  H    0.078868
    89  H    0.134935
    90  H    0.134563
    91  H    0.115600
    92  H    0.078757
    93  H    0.097032
    94  H    0.126507
    95  H    0.117277
    96  H    0.126827
    97  H    0.054716
    98  H    0.060661
 Sum of Mulliken charges =  -0.00000

 Dipole moment (field-independent basis, Debye):
    X=              0.9448    Y=              0.2509    Z=             -0.6927  Tot=              1.1981
 Quadrupole moment (field-independent basis, Debye-Ang):
   XX=           -288.1734   YY=           -242.1384   ZZ=           -261.8668
   XY=              6.0602   XZ=             36.7952   YZ=              3.9234

 Normal termination of Gaussian 16 at Sat Jul 13 19:39:41 2019.
