 Gaussian 16, Revision A.03,
 Gaussian 16:  ES64L-G16RevA.03 25-Dec-2016

 -------------------------------------
 # td=(NStates=1) CAM-B3LYP/6-31G(d,p)
 -------------------------------------

 --
 TD
 --
 Symbolic Z-matrix:
 Charge =  0 Multiplicity = 1

                         Standard orientation:
 ---------------------------------------------------------------------
 Center     Atomic      Atomic             Coordinates (Angstroms)
 Number     Number       Type             X           Y           Z
 ---------------------------------------------------------------------
      1          8           0      -14.279463   -2.001132    0.426801
      2          8           0       14.839645    1.050075    0.390887
      3          6           0      -11.862074   -0.136820    1.462729
      4          6           0      -11.009046    0.324413    0.223619
      5          6           0      -12.102158   -1.607341    1.418081
      6          6           0      -12.791274   -2.098661    0.190875
      7          6           0      -11.702831   -0.162476   -1.090549
      8          6           0       11.132989    1.035084    1.280680
      9          6           0      -10.966919    0.195275    2.703310
     10          6           0      -13.093781    0.852697    1.524154
     11          6           0       12.556844    1.462690    1.071519
     12          6           0      -12.496344   -1.253900   -1.004544
     13          6           0       13.520834    0.462666    0.453893
     14          6           0       10.698236    0.006403    0.187467
     15          6           0       -9.521066   -0.078760    0.241028
     16          6           0       13.036837   -0.043954   -0.817523
     17          6           0       11.558501   -0.377663   -0.749237
     18          6           0       10.089056    2.151924    1.192866
     19          6           0       11.027646    0.280330    2.587392
     20          6           0      -11.361764    0.599447   -2.478184
     21          6           0       -8.507231    0.891782    0.028998
     22          6           0        9.301295   -0.422571    0.209115
     23          6           0       11.103380   -1.173479   -2.014157
     24          6           0       -7.165493    0.432996    0.009872
     25          6           0        8.923448   -1.683666   -0.097167
     26          6           0       -6.686411   -0.933640   -0.093620
     27          6           0        7.547291   -2.278225   -0.212158
     28          6           0       -6.205310    1.490820   -0.252081
     29          6           0        7.233243   -3.646949   -0.105346
     30          6           0        6.451401   -1.286931   -0.315034
     31          6           0       -4.829212    1.441971   -0.461915
     32          6           0        5.090107   -1.587129   -0.206027
     33          6           0       -3.992477    2.601424   -0.714366
     34          6           0       -2.660382    2.496194   -0.717657
     35          6           0        4.072242   -0.626428   -0.625806
     36          6           0        2.664723   -0.900446   -0.572025
     37          6           0       -1.999916    3.835055   -1.174844
     38          6           0       -1.767645    1.372914   -0.650721
     39          6           0        1.788250    0.199293   -0.766516
     40          6           0        2.240421   -2.265884   -0.166881
     41          6           0       -0.434704    1.345669   -0.889264
     42          6           0        0.503730    0.206977   -0.654942
     43          1           0      -11.023363    1.426348    0.413648
     44          1           0      -12.644307   -1.727977    2.294219
     45          1           0      -11.140024   -2.108372    1.321187
     46          1           0      -12.653848   -3.113571    0.022466
     47          1           0      -10.053140   -0.165889    2.851088
     48          1           0      -10.708471    1.171753    2.517819
     49          1           0      -11.472116    0.334224    3.614835
     50          1           0      -13.731709    0.664212    0.630440
     51          1           0      -13.553407    0.827296    2.395801
     52          1           0      -12.761246    1.912821    1.517628
     53          1           0       12.621041    2.441258    0.465720
     54          1           0       13.107193    1.974210    2.068692
     55          1           0      -13.003276   -1.553479   -2.056065
     56          1           0       13.616053   -0.419434    1.100189
     57          1           0       -9.316724   -1.066843    0.398234
     58          1           0       13.404276   -0.809942   -1.333761
     59          1           0       13.357865    0.789891   -1.511739
     60          1           0        9.129717    1.940147    1.909541
     61          1           0        9.954055    2.290835    0.101058
     62          1           0       10.439725    3.355863    1.642056
     63          1           0       11.851474   -0.561347    2.753396
     64          1           0       10.073040   -0.208805    2.707965
     65          1           0       11.306486    0.926397    3.508649
     66          1           0      -10.217585    0.768715   -2.400309
     67          1           0      -11.935221    1.504035   -2.163458
     68          1           0      -11.714345   -0.009909   -3.288010
     69          1           0      -14.526775   -2.017617   -0.455521
     70          1           0        8.709642    0.293736    0.662253
     71          1           0       -8.966184    1.774794   -0.088719
     72          1           0       11.560800   -2.309852   -1.858618
     73          1           0       10.046892   -1.325281   -2.151625
     74          1           0       11.704665   -0.795148   -2.912541
     75          1           0       15.154968    1.260442    1.296303
     76          1           0        9.698476   -2.408851   -0.476501
     77          1           0       -5.470110   -1.112979    0.179909
     78          1           0       -7.170274   -1.218900    0.861847
     79          1           0       -7.176111   -1.436521   -0.858145
     80          1           0       -6.833685    2.494168   -0.370884
     81          1           0        6.729087   -3.919394    0.985515
     82          1           0        6.445521   -4.021784   -0.573662
     83          1           0        8.179382   -4.330709   -0.341256
     84          1           0        6.795910   -0.202519   -0.526171
     85          1           0       -4.277719    0.457471   -0.405871
     86          1           0        4.809850   -2.676555   -0.006015
     87          1           0       -4.371803    3.675896   -0.884205
     88          1           0        4.421721    0.410278   -0.658285
     89          1           0       -1.528017    3.819582   -2.099777
     90          1           0       -1.328115    4.130494   -0.397145
     91          1           0       -2.734502    4.503906   -1.030872
     92          1           0       -2.285821    0.536483   -0.682842
     93          1           0        2.297872    0.980746   -1.263390
     94          1           0        2.360314   -2.428255    1.080664
     95          1           0        1.248632   -2.415323   -0.453994
     96          1           0        2.986495   -3.097055   -0.717569
     97          1           0        0.156315    2.318616   -1.268835
     98          1           0       -0.357632   -0.640466   -0.337055
 ---------------------------------------------------------------------

 SCF Done:  E(RCAM-B3LYP) =  -1706.83706158     A.U. after   19 cycles

 Excitation energies and oscillator strengths:

 Excited State   1:      Singlet-A      1.3841 eV  895.78 nm  f=2.8111  <S**2>=0.000
     155 ->158        -0.10518
     156 ->157         0.73195
     156 <-157        -0.22188
 This state for optimization and/or second-order correction.
 Total Energy, E(TD-HF/TD-DFT) =  -1706.78619719
 Copying the excited state density for this state as the 1-particle RhoCI density.

 The electronic state is 1-A.
 Alpha  occ. eigenvalues --  -19.20771 -19.19754 -10.30358 -10.30224 -10.28894
 Alpha  occ. eigenvalues --  -10.28597 -10.28230 -10.28148 -10.27921 -10.27716
 Alpha  occ. eigenvalues --  -10.27605 -10.27599 -10.27586 -10.27559 -10.27528
 Alpha  occ. eigenvalues --  -10.27513 -10.27465 -10.27419 -10.27325 -10.27145
 Alpha  occ. eigenvalues --  -10.27092 -10.27012 -10.26984 -10.26902 -10.26880
 Alpha  occ. eigenvalues --  -10.26808 -10.26713 -10.26674 -10.26578 -10.26567
 Alpha  occ. eigenvalues --  -10.26508 -10.26284 -10.25643 -10.25398 -10.25276
 Alpha  occ. eigenvalues --  -10.25249 -10.25098 -10.24409 -10.24306 -10.23640
 Alpha  occ. eigenvalues --  -10.23075 -10.22028  -1.08349  -1.08156  -0.94144
 Alpha  occ. eigenvalues --   -0.94019  -0.92458  -0.91756  -0.91052  -0.89767
 Alpha  occ. eigenvalues --   -0.87282  -0.86772  -0.86487  -0.85821  -0.85213
 Alpha  occ. eigenvalues --   -0.83605  -0.82287  -0.81348  -0.80132  -0.79571
 Alpha  occ. eigenvalues --   -0.77441  -0.77232  -0.76394  -0.75927  -0.75641
 Alpha  occ. eigenvalues --   -0.75490  -0.74933  -0.74671  -0.72025  -0.70966
 Alpha  occ. eigenvalues --   -0.69458  -0.68519  -0.66492  -0.65395  -0.64624
 Alpha  occ. eigenvalues --   -0.62963  -0.62719  -0.61392  -0.60897  -0.59632
 Alpha  occ. eigenvalues --   -0.59105  -0.58594  -0.57981  -0.57311  -0.56410
 Alpha  occ. eigenvalues --   -0.55717  -0.55412  -0.54992  -0.54406  -0.54145
 Alpha  occ. eigenvalues --   -0.53840  -0.53544  -0.52732  -0.52562  -0.51771
 Alpha  occ. eigenvalues --   -0.51309  -0.50869  -0.50611  -0.50123  -0.49858
 Alpha  occ. eigenvalues --   -0.49554  -0.49042  -0.48673  -0.48380  -0.47813
 Alpha  occ. eigenvalues --   -0.47379  -0.47243  -0.47008  -0.46826  -0.46312
 Alpha  occ. eigenvalues --   -0.45861  -0.45806  -0.45447  -0.45257  -0.45031
 Alpha  occ. eigenvalues --   -0.44716  -0.44425  -0.43847  -0.43843  -0.43529
 Alpha  occ. eigenvalues --   -0.42742  -0.42689  -0.42528  -0.42379  -0.42349
 Alpha  occ. eigenvalues --   -0.41658  -0.41604  -0.41475  -0.41301  -0.40920
 Alpha  occ. eigenvalues --   -0.40683  -0.40405  -0.40280  -0.39880  -0.39304
 Alpha  occ. eigenvalues --   -0.38733  -0.38483  -0.38244  -0.37977  -0.37495
 Alpha  occ. eigenvalues --   -0.36896  -0.36627  -0.36175  -0.36003  -0.35811
 Alpha  occ. eigenvalues --   -0.35175  -0.34323  -0.34026  -0.32601  -0.32011
 Alpha  occ. eigenvalues --   -0.31974  -0.30110  -0.28648  -0.26795  -0.23378
 Alpha  occ. eigenvalues --   -0.16764
 Alpha virt. eigenvalues --   -0.08907  -0.01811   0.02337   0.05092   0.06560
 Alpha virt. eigenvalues --    0.07996   0.10579   0.11100   0.11401   0.11648
 Alpha virt. eigenvalues --    0.11865   0.12124   0.12795   0.13197   0.13953

 Mulliken charges:
               1
     1  O   -0.555866
     2  O   -0.578550
     3  C   -0.008377
     4  C   -0.153485
     5  C   -0.148638
     6  C    0.133267
     7  C    0.072317
     8  C    0.034716
     9  C   -0.314701
    10  C   -0.296603
    11  C   -0.196824
    12  C   -0.155484
    13  C    0.177821
    14  C    0.035974
    15  C   -0.097349
    16  C   -0.194413
    17  C    0.035535
    18  C   -0.301479
    19  C   -0.293124
    20  C   -0.335039
    21  C   -0.069899
    22  C   -0.076589
    23  C   -0.365272
    24  C    0.089944
    25  C   -0.126883
    26  C   -0.361669
    27  C    0.096348
    28  C   -0.112834
    29  C   -0.376104
    30  C   -0.114418
    31  C   -0.105896
    32  C   -0.099003
    33  C   -0.120613
    34  C    0.078545
    35  C   -0.125748
    36  C    0.105163
    37  C   -0.363708
    38  C   -0.093394
    39  C   -0.115652
    40  C   -0.343410
    41  C   -0.093443
    42  C   -0.074389
    43  H    0.083378
    44  H    0.121948
    45  H    0.092033
    46  H    0.102315
    47  H    0.107039
    48  H    0.096700
    49  H    0.098509
    50  H    0.118954
    51  H    0.112565
    52  H    0.085041
    53  H    0.097329
    54  H    0.052601
    55  H    0.058155
    56  H    0.080539
    57  H    0.082777
    58  H    0.113261
    59  H    0.110547
    60  H    0.103293
    61  H    0.125420
    62  H    0.055052
    63  H    0.084468
    64  H    0.111286
    65  H    0.085546
    66  H    0.121015
    67  H    0.131184
    68  H    0.122454
    69  H    0.293385
    70  H    0.087358
    71  H    0.089106
    72  H    0.078439
    73  H    0.137618
    74  H    0.104940
    75  H    0.309452
    76  H    0.085345
    77  H    0.107822
    78  H    0.125091
    79  H    0.144140
    80  H    0.071434
    81  H    0.095269
    82  H    0.139085
    83  H    0.097298
    84  H    0.082294
    85  H    0.088074
    86  H    0.078576
    87  H    0.094877
    88  H    0.089262
    89  H    0.132023
    90  H    0.116588
    91  H    0.098442
    92  H    0.067072
    93  H    0.096071
    94  H    0.098185
    95  H    0.119412
    96  H    0.092996
    97  H    0.069302
    98  H    0.066863
 Sum of Mulliken charges =  -0.00000

 Dipole moment (field-independent basis, Debye):
    X=             -2.0943    Y=             -0.3339    Z=             -0.4403  Tot=              2.1660
 Quadrupole moment (field-independent basis, Debye-Ang):
   XX=           -296.8015   YY=           -249.1933   ZZ=           -260.9798
   XY=            -10.0626   XZ=             32.7313   YZ=              4.3167

 Normal termination of Gaussian 16 at Mon Jul 15 20:14:47 2019.
