 Gaussian 16, Revision A.03,
 Gaussian 16:  ES64L-G16RevA.03 25-Dec-2016

 -------------------------------------
 # td=(NStates=1) CAM-B3LYP/6-31G(d,p)
 -------------------------------------

 --
 TD
 --
 Symbolic Z-matrix:
 Charge =  0 Multiplicity = 1

                         Standard orientation:
 ---------------------------------------------------------------------
 Center     Atomic      Atomic             Coordinates (Angstroms)
 Number     Number       Type             X           Y           Z
 ---------------------------------------------------------------------
      1          8           0      -14.037977   -2.063893    0.591099
      2          8           0       14.877523    0.749508    0.066684
      3          6           0      -11.734348   -0.036829    1.311514
      4          6           0      -10.992696    0.285720   -0.114762
      5          6           0      -11.896999   -1.480515    1.404629
      6          6           0      -12.671527   -2.154252    0.267787
      7          6           0      -11.642883   -0.394627   -1.306996
      8          6           0       11.105839    1.060655    0.963108
      9          6           0      -10.897711    0.618404    2.442023
     10          6           0      -13.007003    0.820398    1.202998
     11          6           0       12.642946    1.390428    0.777838
     12          6           0      -12.326035   -1.547612   -1.115926
     13          6           0       13.533975    0.284676    0.304240
     14          6           0       10.732715   -0.047964    0.028812
     15          6           0       -9.551571   -0.082941    0.026343
     16          6           0       13.055906   -0.234310   -0.881004
     17          6           0       11.520089   -0.538371   -0.935779
     18          6           0       10.176681    2.228379    0.938905
     19          6           0       10.991808    0.574455    2.461068
     20          6           0      -11.424389    0.226185   -2.575752
     21          6           0       -8.572235    0.870723   -0.208764
     22          6           0        9.351728   -0.421198    0.068650
     23          6           0       11.126397   -1.443661   -2.180126
     24          6           0       -7.141304    0.465719   -0.094925
     25          6           0        8.765562   -1.692015   -0.011017
     26          6           0       -6.682934   -0.858890    0.128424
     27          6           0        7.414445   -2.066917    0.048606
     28          6           0       -6.216438    1.502087   -0.473480
     29          6           0        7.139323   -3.517280    0.284485
     30          6           0        6.293992   -1.195577   -0.266116
     31          6           0       -4.752792    1.534151   -0.395593
     32          6           0        4.947176   -1.412534   -0.154769
     33          6           0       -4.018965    2.603854   -0.630422
     34          6           0       -2.567873    2.622462   -0.653176
     35          6           0        3.868572   -0.608355   -0.197107
     36          6           0        2.524877   -0.875180   -0.233587
     37          6           0       -1.849511    4.016882   -0.775297
     38          6           0       -1.801990    1.570283   -0.349330
     39          6           0        1.653786    0.187993   -0.399641
     40          6           0        2.052810   -2.232301    0.202106
     41          6           0       -0.422887    1.440371   -0.496993
     42          6           0        0.265532    0.219452   -0.312399
     43          1           0      -11.237719    1.404819   -0.347722
     44          1           0      -12.209483   -1.553685    2.289813
     45          1           0      -10.880774   -1.901894    1.479127
     46          1           0      -12.296936   -3.147842    0.213290
     47          1           0       -9.786944    0.090887    2.768978
     48          1           0      -10.819950    1.792214    2.319731
     49          1           0      -11.557346    0.714185    3.431963
     50          1           0      -13.589067    0.574811    0.409091
     51          1           0      -13.934807    0.396004    1.937964
     52          1           0      -13.080585    1.874724    1.420189
     53          1           0       12.778511    2.319329    0.068198
     54          1           0       13.099551    1.801808    1.752762
     55          1           0      -12.862934   -2.131548   -1.947484
     56          1           0       13.499068   -0.379171    1.158180
     57          1           0       -9.389087   -1.230374    0.098493
     58          1           0       13.429175   -1.140697   -1.276951
     59          1           0       13.184313    0.689740   -1.579345
     60          1           0        9.224488    2.057154    1.423390
     61          1           0       10.051832    2.517867   -0.114274
     62          1           0       10.626716    2.988601    1.455703
     63          1           0       11.728418   -0.323233    2.505472
     64          1           0        9.986353    0.202387    2.735945
     65          1           0       11.295575    1.469013    3.055270
     66          1           0      -10.378650    0.321348   -2.642171
     67          1           0      -11.717701    1.273697   -2.588655
     68          1           0      -11.973251   -0.544964   -3.273218
     69          1           0      -14.499109   -2.333350   -0.198539
     70          1           0        8.705686    0.532115    0.287960
     71          1           0       -9.044937    1.790060   -0.588705
     72          1           0       11.200018   -2.593455   -1.983358
     73          1           0       10.201734   -1.351556   -2.309744
     74          1           0       11.836984   -1.170652   -2.982155
     75          1           0       15.155240    1.221092    0.864716
     76          1           0        9.457313   -2.617510   -0.219815
     77          1           0       -5.540680   -1.054619    0.593991
     78          1           0       -7.313502   -1.276113    0.998043
     79          1           0       -7.172780   -1.425464   -0.675163
     80          1           0       -6.623775    2.474969   -0.739642
     81          1           0        6.888765   -3.663717    1.316823
     82          1           0        6.458183   -4.045419   -0.202366
     83          1           0        8.107870   -4.280581    0.191061
     84          1           0        6.699276   -0.194045   -0.748068
     85          1           0       -4.215810    0.585506   -0.067949
     86          1           0        4.774157   -2.462548    0.357367
     87          1           0       -4.244054    3.551637   -1.044593
     88          1           0        4.214155    0.473238   -0.475826
     89          1           0       -0.907888    4.040876   -1.501059
     90          1           0       -1.349986    4.124776    0.153581
     91          1           0       -2.598596    4.812115   -0.848257
     92          1           0       -2.180598    0.637016   -0.096694
     93          1           0        2.242740    1.067405   -0.714630
     94          1           0        2.771100   -2.533640    1.115754
     95          1           0        0.898886   -2.365828    0.559748
     96          1           0        2.105417   -3.068415   -0.603991
     97          1           0        0.293156    2.085928   -1.053690
     98          1           0       -0.176505   -0.671607    0.007746
 ---------------------------------------------------------------------

 SCF Done:  E(RCAM-B3LYP) =  -1706.92522151     A.U. after   15 cycles

 Excitation energies and oscillator strengths:

 Excited State   1:      Singlet-A      2.0598 eV  601.91 nm  f=3.1529  <S**2>=0.000
     155 ->158         0.15321
     156 ->157         0.69106
 This state for optimization and/or second-order correction.
 Total Energy, E(TD-HF/TD-DFT) =  -1706.84952406
 Copying the excited state density for this state as the 1-particle RhoCI density.

 The electronic state is 1-A.
 Alpha  occ. eigenvalues --  -19.21785 -19.21144 -10.30829 -10.29415 -10.28549
 Alpha  occ. eigenvalues --  -10.27900 -10.27772 -10.27726 -10.27528 -10.27488
 Alpha  occ. eigenvalues --  -10.27355 -10.27313 -10.27251 -10.27116 -10.27017
 Alpha  occ. eigenvalues --  -10.26918 -10.26876 -10.26849 -10.26795 -10.26780
 Alpha  occ. eigenvalues --  -10.26699 -10.26664 -10.26609 -10.26534 -10.26406
 Alpha  occ. eigenvalues --  -10.26299 -10.26000 -10.25958 -10.25877 -10.25781
 Alpha  occ. eigenvalues --  -10.25724 -10.25574 -10.25526 -10.25435 -10.25077
 Alpha  occ. eigenvalues --  -10.25069 -10.24980 -10.24552 -10.24435 -10.24062
 Alpha  occ. eigenvalues --  -10.23863 -10.23120  -1.10794  -1.09238  -0.94303
 Alpha  occ. eigenvalues --   -0.93994  -0.92405  -0.91678  -0.90444  -0.89788
 Alpha  occ. eigenvalues --   -0.88334  -0.87694  -0.87390  -0.85825  -0.84695
 Alpha  occ. eigenvalues --   -0.83612  -0.82207  -0.81160  -0.80155  -0.78188
 Alpha  occ. eigenvalues --   -0.77243  -0.77100  -0.76754  -0.76372  -0.75178
 Alpha  occ. eigenvalues --   -0.74853  -0.74811  -0.73787  -0.72837  -0.70509
 Alpha  occ. eigenvalues --   -0.69761  -0.68487  -0.66507  -0.64910  -0.64809
 Alpha  occ. eigenvalues --   -0.63219  -0.62462  -0.62130  -0.60639  -0.59787
 Alpha  occ. eigenvalues --   -0.59412  -0.59393  -0.58032  -0.57858  -0.56929
 Alpha  occ. eigenvalues --   -0.55928  -0.55169  -0.54817  -0.54293  -0.53720
 Alpha  occ. eigenvalues --   -0.53505  -0.53243  -0.52259  -0.51886  -0.51170
 Alpha  occ. eigenvalues --   -0.50772  -0.50100  -0.49802  -0.49658  -0.49276
 Alpha  occ. eigenvalues --   -0.48960  -0.48931  -0.48473  -0.48130  -0.47949
 Alpha  occ. eigenvalues --   -0.47528  -0.47077  -0.47027  -0.46993  -0.46841
 Alpha  occ. eigenvalues --   -0.46380  -0.45757  -0.45681  -0.45509  -0.45074
 Alpha  occ. eigenvalues --   -0.44952  -0.44736  -0.44445  -0.43444  -0.43226
 Alpha  occ. eigenvalues --   -0.42793  -0.42408  -0.42217  -0.41950  -0.41663
 Alpha  occ. eigenvalues --   -0.41558  -0.41213  -0.41053  -0.40749  -0.40654
 Alpha  occ. eigenvalues --   -0.40264  -0.39923  -0.39770  -0.39625  -0.39513
 Alpha  occ. eigenvalues --   -0.38934  -0.38888  -0.38456  -0.38097  -0.37636
 Alpha  occ. eigenvalues --   -0.37362  -0.36870  -0.36578  -0.36488  -0.35491
 Alpha  occ. eigenvalues --   -0.35132  -0.34707  -0.33398  -0.32867  -0.32576
 Alpha  occ. eigenvalues --   -0.31477  -0.29418  -0.28903  -0.26500  -0.23400
 Alpha  occ. eigenvalues --   -0.18879
 Alpha virt. eigenvalues --   -0.05966  -0.01381   0.02349   0.05851   0.07084
 Alpha virt. eigenvalues --    0.09020   0.10912   0.11118   0.11937   0.12232
 Alpha virt. eigenvalues --    0.12343   0.12531   0.13170   0.13315   0.13382

 Mulliken charges:
               1
     1  O   -0.526705
     2  O   -0.559105
     3  C    0.050626
     4  C   -0.169299
     5  C   -0.145626
     6  C    0.145948
     7  C    0.144280
     8  C   -0.022952
     9  C   -0.299191
    10  C   -0.318239
    11  C   -0.222124
    12  C   -0.184629
    13  C    0.181269
    14  C    0.091862
    15  C   -0.073252
    16  C   -0.189102
    17  C    0.007889
    18  C   -0.307501
    19  C   -0.289600
    20  C   -0.349238
    21  C   -0.094909
    22  C   -0.133629
    23  C   -0.333323
    24  C    0.109938
    25  C   -0.131377
    26  C   -0.387107
    27  C    0.103515
    28  C   -0.130860
    29  C   -0.380254
    30  C   -0.121054
    31  C   -0.075529
    32  C   -0.077492
    33  C   -0.071749
    34  C    0.057103
    35  C   -0.133352
    36  C    0.153639
    37  C   -0.372655
    38  C   -0.105986
    39  C   -0.120248
    40  C   -0.373242
    41  C   -0.085754
    42  C   -0.083534
    43  H    0.072771
    44  H    0.109093
    45  H    0.082805
    46  H    0.085665
    47  H    0.078617
    48  H    0.095324
    49  H    0.085800
    50  H    0.123307
    51  H    0.061980
    52  H    0.107711
    53  H    0.082310
    54  H    0.067936
    55  H    0.061297
    56  H    0.082035
    57  H    0.094119
    58  H    0.112625
    59  H    0.107763
    60  H    0.116636
    61  H    0.104303
    62  H    0.110178
    63  H    0.086713
    64  H    0.109246
    65  H    0.096230
    66  H    0.128744
    67  H    0.118772
    68  H    0.101941
    69  H    0.301129
    70  H    0.082667
    71  H    0.101113
    72  H    0.099190
    73  H    0.132498
    74  H    0.114704
    75  H    0.302294
    76  H    0.082550
    77  H    0.115646
    78  H    0.107687
    79  H    0.140349
    80  H    0.077370
    81  H    0.129235
    82  H    0.135370
    83  H    0.076612
    84  H    0.068601
    85  H    0.081850
    86  H    0.058936
    87  H    0.078253
    88  H    0.067418
    89  H    0.109671
    90  H    0.144284
    91  H    0.105674
    92  H    0.075795
    93  H    0.074220
    94  H    0.106314
    95  H    0.092620
    96  H    0.116218
    97  H    0.085356
    98  H    0.075006
 Sum of Mulliken charges =  -0.00000

 Dipole moment (field-independent basis, Debye):
    X=             -1.8436    Y=             -0.1242    Z=             -0.2301  Tot=              1.8621
 Quadrupole moment (field-independent basis, Debye-Ang):
   XX=           -270.9476   YY=           -242.7622   ZZ=           -264.9706
   XY=              9.1243   XZ=             38.5213   YZ=              2.5933

 Normal termination of Gaussian 16 at Mon Jul 15 10:45:54 2019.
