 Gaussian 16, Revision A.03,
 Gaussian 16:  ES64L-G16RevA.03 25-Dec-2016

 -------------------------------------
 # td=(NStates=1) CAM-B3LYP/6-31G(d,p)
 -------------------------------------

 --
 TD
 --
 Symbolic Z-matrix:
 Charge =  0 Multiplicity = 1

                         Standard orientation:
 ---------------------------------------------------------------------
 Center     Atomic      Atomic             Coordinates (Angstroms)
 Number     Number       Type             X           Y           Z
 ---------------------------------------------------------------------
      1          8           0      -14.196549   -1.916233    0.572479
      2          8           0       14.834091    1.087154    0.212357
      3          6           0      -11.807054    0.094181    1.316797
      4          6           0      -11.013133    0.312314   -0.086498
      5          6           0      -11.984071   -1.371325    1.457050
      6          6           0      -12.826074   -2.010342    0.396848
      7          6           0      -11.689457   -0.333574   -1.215180
      8          6           0       11.087166    1.002733    1.056373
      9          6           0      -10.966658    0.626227    2.598793
     10          6           0      -13.098332    0.975166    1.309876
     11          6           0       12.487637    1.579035    0.822753
     12          6           0      -12.334695   -1.535946   -0.968434
     13          6           0       13.558316    0.514328    0.443522
     14          6           0       10.677648    0.015852   -0.002696
     15          6           0       -9.549437   -0.022434    0.047176
     16          6           0       12.986945   -0.060499   -0.858291
     17          6           0       11.578335   -0.493128   -0.815216
     18          6           0       10.061878    2.121631    1.046608
     19          6           0       11.062797    0.293655    2.376427
     20          6           0      -11.402531    0.015361   -2.627626
     21          6           0       -8.542038    0.817675   -0.038449
     22          6           0        9.188435   -0.392812    0.003246
     23          6           0       11.241973   -1.421210   -1.975625
     24          6           0       -7.066122    0.545868   -0.162689
     25          6           0        8.820291   -1.613005    0.029561
     26          6           0       -6.703203   -0.966524   -0.008177
     27          6           0        7.469116   -2.135426   -0.030760
     28          6           0       -6.214051    1.526034   -0.297828
     29          6           0        7.167243   -3.610549    0.249350
     30          6           0        6.446601   -1.291138   -0.303317
     31          6           0       -4.772445    1.430400   -0.503188
     32          6           0        4.966099   -1.635579   -0.115514
     33          6           0       -3.984153    2.484732   -0.703560
     34          6           0       -2.606177    2.585135   -0.709393
     35          6           0        4.022773   -0.640418   -0.429633
     36          6           0        2.637865   -0.923337   -0.191910
     37          6           0       -1.826741    3.841297   -0.941724
     38          6           0       -1.791375    1.451025   -0.463599
     39          6           0        1.797195    0.220697   -0.522314
     40          6           0        2.192285   -2.296518    0.149278
     41          6           0       -0.372723    1.347547   -0.571705
     42          6           0        0.439474    0.279655   -0.570209
     43          1           0      -11.112289    1.479678   -0.235776
     44          1           0      -12.496249   -1.705026    2.401352
     45          1           0      -10.958254   -1.814817    1.557093
     46          1           0      -12.669234   -3.175456    0.181233
     47          1           0      -10.160822    0.101004    2.907336
     48          1           0      -10.579439    1.685044    2.373727
     49          1           0      -11.761779    0.921808    3.389429
     50          1           0      -13.759481    0.701310    0.440248
     51          1           0      -13.470721    0.725877    2.416275
     52          1           0      -12.743591    2.017159    1.260893
     53          1           0       12.627874    2.166614   -0.117103
     54          1           0       12.693501    2.171584    1.733585
     55          1           0      -12.605601   -2.176970   -1.806616
     56          1           0       13.651229   -0.173113    1.154956
     57          1           0       -9.460646   -1.015130   -0.126107
     58          1           0       13.495812   -0.969497   -1.116301
     59          1           0       13.295200    0.450966   -1.667567
     60          1           0        8.942462    1.635108    1.149293
     61          1           0       10.049115    2.588736   -0.073160
     62          1           0       10.441517    3.066765    1.673038
     63          1           0       11.796450   -0.496066    2.307498
     64          1           0       10.027561   -0.057584    2.589439
     65          1           0       11.337813    0.829136    3.297005
     66          1           0      -10.376993    0.371327   -2.735856
     67          1           0      -11.924732    0.967617   -2.957386
     68          1           0      -11.728917   -0.815936   -3.220873
     69          1           0      -14.645746   -2.167101   -0.222738
     70          1           0        8.381515    0.226580    0.218590
     71          1           0       -8.700821    1.852370   -0.157260
     72          1           0       11.746009   -2.359789   -1.987712
     73          1           0       10.179598   -1.430753   -1.790408
     74          1           0       11.469887   -0.971491   -2.849052
     75          1           0       15.004414    1.629612    1.045474
     76          1           0        9.589662   -2.409775    0.305539
     77          1           0       -5.686542   -1.075373    0.077519
     78          1           0       -7.199926   -1.392491    0.838497
     79          1           0       -7.081548   -1.581037   -0.841657
     80          1           0       -6.569709    2.532310   -0.460972
     81          1           0        6.559738   -3.832842    1.206685
     82          1           0        6.679194   -4.172865   -0.588100
     83          1           0        8.376466   -3.936331    0.549664
     84          1           0        6.857591   -0.371627   -0.400347
     85          1           0       -4.265085    0.356384   -0.400308
     86          1           0        4.667479   -2.578753   -0.009849
     87          1           0       -4.390546    3.546373   -1.092735
     88          1           0        4.418519    0.165073   -0.814992
     89          1           0       -1.340260    3.749637   -1.887625
     90          1           0       -1.003085    3.948173   -0.230965
     91          1           0       -2.632241    4.598714   -0.973166
     92          1           0       -2.301301    0.289049   -0.368721
     93          1           0        2.452680    1.053051   -0.700003
     94          1           0        3.173354   -3.068114    0.818994
     95          1           0        0.942357   -2.168726    0.800336
     96          1           0        1.777442   -2.879890   -1.042793
     97          1           0       -0.017366    2.353301   -0.873243
     98          1           0       -0.129465   -0.711876   -0.363761
 ---------------------------------------------------------------------

 SCF Done:  E(RCAM-B3LYP) =  -1706.87383105     A.U. after   15 cycles

 Excitation energies and oscillator strengths:

 Excited State   1:      Singlet-A      2.2102 eV  560.97 nm  f=2.6622  <S**2>=0.000
     155 ->158         0.13193
     156 ->157         0.69621
 This state for optimization and/or second-order correction.
 Total Energy, E(TD-HF/TD-DFT) =  -1706.79260865
 Copying the excited state density for this state as the 1-particle RhoCI density.

 The electronic state is 1-A.
 Alpha  occ. eigenvalues --  -19.21499 -19.21210 -10.33609 -10.31172 -10.29192
 Alpha  occ. eigenvalues --  -10.28688 -10.27877 -10.27810 -10.27775 -10.27700
 Alpha  occ. eigenvalues --  -10.27581 -10.27357 -10.27322 -10.27273 -10.26994
 Alpha  occ. eigenvalues --  -10.26961 -10.26824 -10.26747 -10.26681 -10.26570
 Alpha  occ. eigenvalues --  -10.26428 -10.26406 -10.26100 -10.26001 -10.25909
 Alpha  occ. eigenvalues --  -10.25901 -10.25733 -10.25631 -10.25627 -10.25446
 Alpha  occ. eigenvalues --  -10.25223 -10.25178 -10.25103 -10.25089 -10.25069
 Alpha  occ. eigenvalues --  -10.25043 -10.25036 -10.25001 -10.24669 -10.24146
 Alpha  occ. eigenvalues --  -10.23534 -10.22659  -1.11043  -1.09019  -0.94639
 Alpha  occ. eigenvalues --   -0.93577  -0.92739  -0.91963  -0.91106  -0.90467
 Alpha  occ. eigenvalues --   -0.87893  -0.87670  -0.86799  -0.85814  -0.85033
 Alpha  occ. eigenvalues --   -0.83115  -0.81926  -0.81074  -0.80310  -0.77888
 Alpha  occ. eigenvalues --   -0.77586  -0.76495  -0.76290  -0.75872  -0.75115
 Alpha  occ. eigenvalues --   -0.75070  -0.74597  -0.74192  -0.73081  -0.71258
 Alpha  occ. eigenvalues --   -0.69023  -0.67909  -0.67214  -0.65937  -0.64732
 Alpha  occ. eigenvalues --   -0.63186  -0.62804  -0.62499  -0.60230  -0.59888
 Alpha  occ. eigenvalues --   -0.59624  -0.59130  -0.58740  -0.57769  -0.56444
 Alpha  occ. eigenvalues --   -0.55982  -0.55557  -0.55228  -0.54344  -0.53822
 Alpha  occ. eigenvalues --   -0.53275  -0.53012  -0.52209  -0.51501  -0.51058
 Alpha  occ. eigenvalues --   -0.51006  -0.50340  -0.50217  -0.50015  -0.49397
 Alpha  occ. eigenvalues --   -0.49291  -0.48840  -0.48742  -0.47898  -0.47688
 Alpha  occ. eigenvalues --   -0.47664  -0.47367  -0.47064  -0.46765  -0.46716
 Alpha  occ. eigenvalues --   -0.46279  -0.46115  -0.45624  -0.45503  -0.45312
 Alpha  occ. eigenvalues --   -0.44987  -0.44794  -0.44345  -0.44301  -0.43732
 Alpha  occ. eigenvalues --   -0.43590  -0.42940  -0.42525  -0.42086  -0.41892
 Alpha  occ. eigenvalues --   -0.41300  -0.41124  -0.40923  -0.40831  -0.40579
 Alpha  occ. eigenvalues --   -0.40478  -0.39871  -0.39643  -0.39400  -0.39379
 Alpha  occ. eigenvalues --   -0.39028  -0.38512  -0.38338  -0.38012  -0.37438
 Alpha  occ. eigenvalues --   -0.37405  -0.36829  -0.36708  -0.36430  -0.35824
 Alpha  occ. eigenvalues --   -0.35158  -0.34507  -0.33688  -0.32062  -0.31463
 Alpha  occ. eigenvalues --   -0.31081  -0.29850  -0.28326  -0.27754  -0.25006
 Alpha  occ. eigenvalues --   -0.20089
 Alpha virt. eigenvalues --   -0.06297  -0.00497   0.02484   0.04663   0.06660
 Alpha virt. eigenvalues --    0.07141   0.08040   0.09947   0.10451   0.11400
 Alpha virt. eigenvalues --    0.11732   0.12126   0.12457   0.12685   0.13222

 Mulliken charges:
               1
     1  O   -0.529503
     2  O   -0.567632
     3  C    0.020531
     4  C   -0.165368
     5  C   -0.174445
     6  C    0.181538
     7  C    0.141026
     8  C   -0.013435
     9  C   -0.310768
    10  C   -0.285039
    11  C   -0.208832
    12  C   -0.176459
    13  C    0.174862
    14  C    0.095534
    15  C   -0.053799
    16  C   -0.233170
    17  C    0.017773
    18  C   -0.283401
    19  C   -0.289671
    20  C   -0.358871
    21  C   -0.089069
    22  C   -0.160873
    23  C   -0.353119
    24  C    0.115281
    25  C   -0.073566
    26  C   -0.369132
    27  C    0.085430
    28  C   -0.135406
    29  C   -0.357099
    30  C   -0.107955
    31  C   -0.080006
    32  C   -0.101861
    33  C   -0.097656
    34  C    0.084286
    35  C   -0.066525
    36  C    0.125085
    37  C   -0.379475
    38  C   -0.106204
    39  C   -0.100214
    40  C   -0.314202
    41  C   -0.066952
    42  C   -0.097798
    43  H    0.061423
    44  H    0.097728
    45  H    0.101565
    46  H    0.041445
    47  H    0.113424
    48  H    0.086782
    49  H    0.091602
    50  H    0.113643
    51  H    0.090652
    52  H    0.097815
    53  H    0.103822
    54  H    0.072287
    55  H    0.067427
    56  H    0.085178
    57  H    0.083600
    58  H    0.100823
    59  H    0.129740
    60  H    0.086264
    61  H    0.080874
    62  H    0.088645
    63  H    0.102051
    64  H    0.102719
    65  H    0.094254
    66  H    0.119495
    67  H    0.108225
    68  H    0.115727
    69  H    0.305447
    70  H    0.089899
    71  H    0.073294
    72  H    0.110417
    73  H    0.117961
    74  H    0.117757
    75  H    0.307837
    76  H    0.084539
    77  H    0.110770
    78  H    0.123847
    79  H    0.120152
    80  H    0.083389
    81  H    0.114601
    82  H    0.129916
    83  H    0.065949
    84  H    0.057391
    85  H    0.089190
    86  H    0.078918
    87  H    0.065149
    88  H    0.083813
    89  H    0.141120
    90  H    0.140819
    91  H    0.102056
    92  H    0.043789
    93  H    0.084830
    94  H    0.087878
    95  H    0.072295
    96  H    0.087154
    97  H    0.067239
    98  H    0.071530
 Sum of Mulliken charges =  -0.00000

 Dipole moment (field-independent basis, Debye):
    X=             -0.6361    Y=              0.1931    Z=             -0.9360  Tot=              1.1481
 Quadrupole moment (field-independent basis, Debye-Ang):
   XX=           -291.1416   YY=           -248.2075   ZZ=           -261.6752
   XY=              6.1734   XZ=             41.3129   YZ=              1.7467

 Normal termination of Gaussian 16 at Sat Jul 13 11:02:29 2019.
