 Gaussian 16, Revision A.03,
 Gaussian 16:  ES64L-G16RevA.03 25-Dec-2016

 -------------------------------------
 # td=(NStates=1) CAM-B3LYP/6-31G(d,p)
 -------------------------------------

 --
 TD
 --
 Symbolic Z-matrix:
 Charge =  0 Multiplicity = 1

                         Standard orientation:
 ---------------------------------------------------------------------
 Center     Atomic      Atomic             Coordinates (Angstroms)
 Number     Number       Type             X           Y           Z
 ---------------------------------------------------------------------
      1          8           0      -14.013252   -1.911584    0.513061
      2          8           0       14.630148    1.067742    0.301547
      3          6           0      -11.732915    0.040340    1.328450
      4          6           0      -10.921608    0.285769    0.018099
      5          6           0      -11.889134   -1.457746    1.513435
      6          6           0      -12.679515   -2.138097    0.413339
      7          6           0      -11.591925   -0.424649   -1.175752
      8          6           0       10.968694    0.967293    1.203354
      9          6           0      -10.902003    0.618241    2.455881
     10          6           0      -12.991306    0.799552    1.331183
     11          6           0       12.273697    1.687912    0.905352
     12          6           0      -12.235833   -1.563960   -0.922269
     13          6           0       13.238521    0.526266    0.541217
     14          6           0       10.642289   -0.029787    0.068899
     15          6           0       -9.396717    0.050095    0.090752
     16          6           0       12.952158   -0.114232   -0.717035
     17          6           0       11.556593   -0.544302   -0.847431
     18          6           0        9.992085    2.218921    1.240750
     19          6           0       10.842794    0.318906    2.564074
     20          6           0      -11.378552    0.120913   -2.561009
     21          6           0       -8.439831    0.887918   -0.101194
     22          6           0        9.241660   -0.508512    0.167670
     23          6           0       11.171365   -1.393111   -2.058694
     24          6           0       -7.008609    0.581466    0.004194
     25          6           0        8.750020   -1.814053   -0.152629
     26          6           0       -6.754192   -0.762452    0.310902
     27          6           0        7.332845   -2.270780   -0.148039
     28          6           0       -6.121570    1.615512   -0.254297
     29          6           0        7.178028   -3.715940    0.114341
     30          6           0        6.370483   -1.345669   -0.249616
     31          6           0       -4.696258    1.518683   -0.409046
     32          6           0        4.966399   -1.678507   -0.332848
     33          6           0       -3.856858    2.626138   -0.736472
     34          6           0       -2.461240    2.602607   -0.908450
     35          6           0        4.000488   -0.727200   -0.439170
     36          6           0        2.624705   -0.875551   -0.416422
     37          6           0       -1.857641    3.924569   -1.265342
     38          6           0       -1.670735    1.410617   -0.700581
     39          6           0        1.847994    0.204669   -0.590302
     40          6           0        2.069774   -2.218108   -0.093187
     41          6           0       -0.284754    1.376302   -0.787820
     42          6           0        0.466548    0.178881   -0.479899
     43          1           0      -11.131601    1.391575   -0.523218
     44          1           0      -12.526180   -1.651717    2.370524
     45          1           0      -10.790027   -1.973684    1.565974
     46          1           0      -12.226580   -3.249777    0.440655
     47          1           0       -9.997754    0.095571    2.516248
     48          1           0      -10.538944    1.628421    2.374417
     49          1           0      -11.432823    0.665643    3.568860
     50          1           0      -13.729932    0.554861    0.673843
     51          1           0      -13.620811    0.689304    2.210889
     52          1           0      -13.022774    1.927663    1.444347
     53          1           0       12.244171    2.370277   -0.022940
     54          1           0       12.631847    2.382184    1.783238
     55          1           0      -12.662766   -2.099801   -1.614367
     56          1           0       13.315965   -0.165057    1.313640
     57          1           0       -9.409203   -1.106120    0.565776
     58          1           0       13.680685   -0.902507   -1.135540
     59          1           0       12.911993    0.887251   -1.474805
     60          1           0        8.913418    2.153057    1.559868
     61          1           0        9.911542    2.611740    0.139247
     62          1           0       10.417921    3.113049    1.710685
     63          1           0       11.550255   -0.383461    2.586057
     64          1           0        9.793003    0.073699    2.830628
     65          1           0       11.230707    1.084937    3.285438
     66          1           0      -10.301972    0.531356   -2.566752
     67          1           0      -12.045046    0.986064   -2.723198
     68          1           0      -11.779051   -0.876060   -3.171044
     69          1           0      -14.369020   -2.622335   -0.198138
     70          1           0        8.595484    0.321349    0.530033
     71          1           0       -8.813834    1.981089   -0.503505
     72          1           0       11.419223   -2.514793   -1.869661
     73          1           0       10.156612   -1.313776   -2.433477
     74          1           0       11.631324   -1.005450   -2.907997
     75          1           0       15.204911    1.288069    1.051920
     76          1           0        9.336535   -2.650995   -0.501492
     77          1           0       -5.738377   -1.050967    0.489194
     78          1           0       -7.168714   -1.046956    1.261770
     79          1           0       -6.952790   -1.345392   -0.553602
     80          1           0       -6.593419    2.563306   -0.493511
     81          1           0        7.405796   -4.059241    1.304311
     82          1           0        6.017546   -4.289013    0.045991
     83          1           0        8.024919   -4.310737   -0.570434
     84          1           0        6.340421   -0.305276   -0.387226
     85          1           0       -4.313152    0.548825   -0.193700
     86          1           0        4.518082   -2.575272   -0.006653
     87          1           0       -4.238059    3.627837   -0.819871
     88          1           0        4.482266    0.216075   -0.559058
     89          1           0       -1.322476    3.665546   -2.267020
     90          1           0       -0.922940    4.372522   -0.629644
     91          1           0       -2.694678    4.852768   -1.208988
     92          1           0       -2.337384    0.528090   -0.671720
     93          1           0        2.285671    1.179606   -0.692589
     94          1           0        2.169212   -2.310202    1.042352
     95          1           0        0.932014   -2.206509   -0.339628
     96          1           0        2.782519   -3.065988   -0.592871
     97          1           0        0.325719    2.422215   -0.683757
     98          1           0       -0.180283   -0.755610   -0.412705
 ---------------------------------------------------------------------

 SCF Done:  E(RCAM-B3LYP) =  -1706.89926981     A.U. after   15 cycles

 Excitation energies and oscillator strengths:

 Excited State   1:      Singlet-A      1.9982 eV  620.47 nm  f=2.7884  <S**2>=0.000
     155 ->158        -0.12733
     156 ->157         0.69983
     156 <-157        -0.11022
 This state for optimization and/or second-order correction.
 Total Energy, E(TD-HF/TD-DFT) =  -1706.82583626
 Copying the excited state density for this state as the 1-particle RhoCI density.

 The electronic state is 1-A.
 Alpha  occ. eigenvalues --  -19.23742 -19.19285 -10.31012 -10.30237 -10.30156
 Alpha  occ. eigenvalues --  -10.28556 -10.27717 -10.27624 -10.27430 -10.27401
 Alpha  occ. eigenvalues --  -10.27358 -10.27178 -10.27150 -10.27108 -10.27041
 Alpha  occ. eigenvalues --  -10.27024 -10.26947 -10.26920 -10.26773 -10.26706
 Alpha  occ. eigenvalues --  -10.26700 -10.26657 -10.26561 -10.26516 -10.26513
 Alpha  occ. eigenvalues --  -10.26254 -10.26127 -10.26070 -10.25931 -10.25885
 Alpha  occ. eigenvalues --  -10.25680 -10.25516 -10.25311 -10.25295 -10.25171
 Alpha  occ. eigenvalues --  -10.24600 -10.24524 -10.24266 -10.23972 -10.23725
 Alpha  occ. eigenvalues --  -10.22485 -10.22173  -1.12043  -1.05490  -0.93874
 Alpha  occ. eigenvalues --   -0.93511  -0.92846  -0.91951  -0.90665  -0.90067
 Alpha  occ. eigenvalues --   -0.87522  -0.86887  -0.86712  -0.85067  -0.84264
 Alpha  occ. eigenvalues --   -0.83082  -0.81946  -0.80853  -0.79440  -0.78193
 Alpha  occ. eigenvalues --   -0.76882  -0.76717  -0.75880  -0.75557  -0.75166
 Alpha  occ. eigenvalues --   -0.75154  -0.74700  -0.74252  -0.72474  -0.69967
 Alpha  occ. eigenvalues --   -0.68924  -0.66720  -0.66125  -0.64433  -0.63536
 Alpha  occ. eigenvalues --   -0.63124  -0.62529  -0.61785  -0.61380  -0.59933
 Alpha  occ. eigenvalues --   -0.59535  -0.58761  -0.58459  -0.57061  -0.55559
 Alpha  occ. eigenvalues --   -0.55335  -0.54975  -0.54375  -0.54230  -0.53465
 Alpha  occ. eigenvalues --   -0.53234  -0.52921  -0.52027  -0.51847  -0.51641
 Alpha  occ. eigenvalues --   -0.50782  -0.50435  -0.49964  -0.49454  -0.49324
 Alpha  occ. eigenvalues --   -0.48718  -0.48465  -0.48165  -0.47803  -0.47579
 Alpha  occ. eigenvalues --   -0.47343  -0.47169  -0.46460  -0.46093  -0.45485
 Alpha  occ. eigenvalues --   -0.45411  -0.45158  -0.45056  -0.44882  -0.44670
 Alpha  occ. eigenvalues --   -0.44205  -0.43890  -0.43376  -0.42926  -0.42908
 Alpha  occ. eigenvalues --   -0.42680  -0.42666  -0.42130  -0.41868  -0.41667
 Alpha  occ. eigenvalues --   -0.41555  -0.40839  -0.40644  -0.40564  -0.40288
 Alpha  occ. eigenvalues --   -0.40190  -0.40025  -0.39866  -0.39167  -0.38910
 Alpha  occ. eigenvalues --   -0.38756  -0.38353  -0.38273  -0.37992  -0.37855
 Alpha  occ. eigenvalues --   -0.37161  -0.36775  -0.36517  -0.35699  -0.35423
 Alpha  occ. eigenvalues --   -0.35356  -0.34263  -0.33506  -0.32318  -0.31711
 Alpha  occ. eigenvalues --   -0.31317  -0.28947  -0.28478  -0.26406  -0.23450
 Alpha  occ. eigenvalues --   -0.18716
 Alpha virt. eigenvalues --   -0.06175  -0.00554   0.02804   0.06001   0.07448
 Alpha virt. eigenvalues --    0.08405   0.09515   0.10966   0.11173   0.11368
 Alpha virt. eigenvalues --    0.11888   0.12085   0.12520   0.12889   0.13167

 Mulliken charges:
               1
     1  O   -0.511100
     2  O   -0.603515
     3  C    0.039935
     4  C   -0.140339
     5  C   -0.174287
     6  C    0.122901
     7  C    0.120075
     8  C   -0.026938
     9  C   -0.288090
    10  C   -0.313652
    11  C   -0.185567
    12  C   -0.103945
    13  C    0.158106
    14  C    0.047447
    15  C   -0.056083
    16  C   -0.193900
    17  C    0.064379
    18  C   -0.322093
    19  C   -0.269376
    20  C   -0.347237
    21  C   -0.110545
    22  C   -0.115894
    23  C   -0.361981
    24  C    0.115829
    25  C   -0.106592
    26  C   -0.386538
    27  C    0.097201
    28  C   -0.117917
    29  C   -0.341256
    30  C   -0.096693
    31  C   -0.084684
    32  C   -0.084497
    33  C   -0.119091
    34  C    0.105092
    35  C   -0.116743
    36  C    0.128057
    37  C   -0.370995
    38  C   -0.102740
    39  C   -0.097471
    40  C   -0.368778
    41  C   -0.107022
    42  C   -0.102572
    43  H    0.047755
    44  H    0.108498
    45  H    0.076121
    46  H    0.057058
    47  H    0.095678
    48  H    0.107452
    49  H    0.064675
    50  H    0.124082
    51  H    0.096569
    52  H    0.088370
    53  H    0.106187
    54  H    0.085341
    55  H    0.037993
    56  H    0.097536
    57  H    0.071453
    58  H    0.115691
    59  H    0.096376
    60  H    0.093582
    61  H    0.086850
    62  H    0.106520
    63  H    0.105760
    64  H    0.118841
    65  H    0.086646
    66  H    0.116032
    67  H    0.124731
    68  H    0.094901
    69  H    0.319453
    70  H    0.086869
    71  H    0.080896
    72  H    0.104804
    73  H    0.129590
    74  H    0.116522
    75  H    0.296891
    76  H    0.076161
    77  H    0.102944
    78  H    0.130151
    79  H    0.138538
    80  H    0.077444
    81  H    0.104298
    82  H    0.089536
    83  H    0.094082
    84  H    0.085481
    85  H    0.085344
    86  H    0.064124
    87  H    0.080835
    88  H    0.061319
    89  H    0.129268
    90  H    0.102888
    91  H    0.091918
    92  H    0.081429
    93  H    0.085048
    94  H    0.127046
    95  H    0.100943
    96  H    0.104488
    97  H    0.080970
    98  H    0.089128
 Sum of Mulliken charges =  -0.00000

 Dipole moment (field-independent basis, Debye):
    X=             -0.0536    Y=             -1.4652    Z=              0.6285  Tot=              1.5952
 Quadrupole moment (field-independent basis, Debye-Ang):
   XX=           -255.3010   YY=           -243.0135   ZZ=           -264.7071
   XY=             13.2970   XZ=             31.3843   YZ=              2.3848

 Normal termination of Gaussian 16 at Mon Jul 15 07:57:34 2019.
