 Gaussian 16, Revision A.03,
 Gaussian 16:  ES64L-G16RevA.03 25-Dec-2016

 -------------------------------------
 # td=(NStates=1) CAM-B3LYP/6-31G(d,p)
 -------------------------------------

 --
 TD
 --
 Symbolic Z-matrix:
 Charge =  0 Multiplicity = 1

                         Standard orientation:
 ---------------------------------------------------------------------
 Center     Atomic      Atomic             Coordinates (Angstroms)
 Number     Number       Type             X           Y           Z
 ---------------------------------------------------------------------
      1          8           0      -14.174503   -1.938172    0.332896
      2          8           0       14.784436    1.063933    0.089043
      3          6           0      -11.811890    0.034952    1.309253
      4          6           0      -10.971776    0.255070   -0.088183
      5          6           0      -12.052639   -1.487737    1.284655
      6          6           0      -12.756940   -2.027075    0.073995
      7          6           0      -11.635269   -0.313103   -1.188493
      8          6           0       11.122088    0.919862    1.072398
      9          6           0      -11.152599    0.474994    2.497800
     10          6           0      -13.065297    0.835778    1.188426
     11          6           0       12.535409    1.489198    0.895574
     12          6           0      -12.401010   -1.355480   -1.109240
     13          6           0       13.533070    0.405427    0.369249
     14          6           0       10.703229   -0.039102   -0.057494
     15          6           0       -9.526104   -0.053504   -0.022532
     16          6           0       13.066820   -0.082281   -0.968567
     17          6           0       11.599109   -0.465002   -1.011946
     18          6           0       10.051367    2.074105    0.951291
     19          6           0       10.979389    0.199320    2.482386
     20          6           0      -11.181538    0.323912   -2.521617
     21          6           0       -8.536887    0.807992   -0.127701
     22          6           0        9.306669   -0.448075   -0.021342
     23          6           0       11.177814   -1.396491   -2.194687
     24          6           0       -7.104234    0.558673   -0.073418
     25          6           0        8.866756   -1.692397   -0.220915
     26          6           0       -6.757061   -0.994825    0.230121
     27          6           0        7.459594   -2.072164   -0.078059
     28          6           0       -6.136824    1.460394   -0.305386
     29          6           0        7.087653   -3.626374    0.063794
     30          6           0        6.355757   -1.187232    0.067139
     31          6           0       -4.756481    1.448474   -0.266300
     32          6           0        4.966243   -1.478903    0.061922
     33          6           0       -3.955667    2.519950   -0.508318
     34          6           0       -2.530590    2.528938   -0.561569
     35          6           0        3.954392   -0.546516   -0.247314
     36          6           0        2.599921   -0.888761   -0.184934
     37          6           0       -1.891681    3.835467   -0.895309
     38          6           0       -1.793778    1.478126   -0.334253
     39          6           0        1.774603    0.263389   -0.386903
     40          6           0        2.168787   -2.272383    0.260165
     41          6           0       -0.365577    1.360869   -0.471843
     42          6           0        0.465653    0.260468   -0.193499
     43          1           0      -11.102887    1.466026   -0.384054
     44          1           0      -12.488212   -1.870196    2.144277
     45          1           0      -10.900029   -1.949973    1.374701
     46          1           0      -12.591922   -3.147214   -0.022476
     47          1           0      -10.158463   -0.152605    2.719885
     48          1           0      -10.668734    1.521716    2.369186
     49          1           0      -11.677115    0.392034    3.439289
     50          1           0      -13.653571    0.410466    0.230601
     51          1           0      -13.654855    0.641828    2.092370
     52          1           0      -13.059851    1.901088    1.170734
     53          1           0       12.426968    2.194440    0.153245
     54          1           0       12.921683    2.081123    1.877530
     55          1           0      -12.746500   -1.905047   -1.843365
     56          1           0       13.708588   -0.318355    0.995941
     57          1           0       -9.323236   -1.030164    0.157542
     58          1           0       13.641561   -0.917048   -1.261650
     59          1           0       13.141894    0.803828   -1.644726
     60          1           0        9.039602    1.884704    1.311489
     61          1           0       10.175601    2.676829   -0.070030
     62          1           0       10.303711    3.039835    1.592987
     63          1           0       11.696468   -0.699972    2.528651
     64          1           0        9.928055   -0.312672    2.469991
     65          1           0       10.968935    0.908611    3.139069
     66          1           0      -10.213160    0.075483   -2.898544
     67          1           0      -11.276246    1.389563   -2.503216
     68          1           0      -11.779505   -0.023382   -3.299505
     69          1           0      -14.543280   -2.133837   -0.491017
     70          1           0        8.718854    0.355470    0.514364
     71          1           0       -8.843753    1.868016   -0.256177
     72          1           0       11.711923   -2.267906   -2.281351
     73          1           0       10.112138   -1.527096   -2.257073
     74          1           0       11.612980   -0.874654   -3.164783
     75          1           0       15.050165    1.686311    0.902953
     76          1           0        9.339946   -2.473756   -0.392751
     77          1           0       -5.591505   -1.090490    0.310301
     78          1           0       -7.291197   -1.310468    0.979976
     79          1           0       -7.224396   -1.688675   -0.566200
     80          1           0       -6.608198    2.425891   -0.769030
     81          1           0        6.860569   -3.693382    1.335099
     82          1           0        6.242668   -4.061472   -0.514501
     83          1           0        8.054498   -4.178279    0.020284
     84          1           0        6.779726   -0.121397   -0.250326
     85          1           0       -4.203717    0.523653    0.143679
     86          1           0        4.650306   -2.386493    0.207462
     87          1           0       -4.470990    3.368885   -0.856548
     88          1           0        4.251749    0.536754   -0.716706
     89          1           0       -1.635604    3.778282   -1.969686
     90          1           0       -0.839484    4.150689   -0.388474
     91          1           0       -2.570619    4.893447   -0.832611
     92          1           0       -2.331802    0.529484   -0.238850
     93          1           0        2.402542    1.091856   -0.795696
     94          1           0        1.797967   -2.141397    1.682069
     95          1           0        1.069144   -2.429016   -0.615846
     96          1           0        3.476072   -3.144605    0.224084
     97          1           0        0.049425    2.292282   -0.853336
     98          1           0        0.092732   -0.692828    0.065190
 ---------------------------------------------------------------------

 SCF Done:  E(RCAM-B3LYP) =  -1706.76615013     A.U. after   15 cycles

 Excitation energies and oscillator strengths:

 Excited State   1:      Singlet-A      2.0156 eV  615.13 nm  f=2.9170  <S**2>=0.000
     155 ->158        -0.13642
     156 ->157         0.69608
 This state for optimization and/or second-order correction.
 Total Energy, E(TD-HF/TD-DFT) =  -1706.69207961
 Copying the excited state density for this state as the 1-particle RhoCI density.

 The electronic state is 1-A.
 Alpha  occ. eigenvalues --  -19.21112 -19.20436 -10.34825 -10.29914 -10.29434
 Alpha  occ. eigenvalues --  -10.28210 -10.28013 -10.27980 -10.27837 -10.27833
 Alpha  occ. eigenvalues --  -10.27761 -10.27467 -10.27126 -10.26992 -10.26937
 Alpha  occ. eigenvalues --  -10.26835 -10.26818 -10.26789 -10.26520 -10.26463
 Alpha  occ. eigenvalues --  -10.26453 -10.26343 -10.26177 -10.26051 -10.26007
 Alpha  occ. eigenvalues --  -10.25957 -10.25957 -10.25868 -10.25756 -10.25749
 Alpha  occ. eigenvalues --  -10.25461 -10.25295 -10.25225 -10.25177 -10.25171
 Alpha  occ. eigenvalues --  -10.25127 -10.24991 -10.24882 -10.24761 -10.24188
 Alpha  occ. eigenvalues --  -10.23254 -10.23079  -1.10223  -1.07211  -0.95251
 Alpha  occ. eigenvalues --   -0.93358  -0.92997  -0.92032  -0.90513  -0.89630
 Alpha  occ. eigenvalues --   -0.88308  -0.87627  -0.86568  -0.86393  -0.84571
 Alpha  occ. eigenvalues --   -0.83785  -0.81922  -0.80931  -0.79197  -0.77629
 Alpha  occ. eigenvalues --   -0.76932  -0.76532  -0.76426  -0.76325  -0.76083
 Alpha  occ. eigenvalues --   -0.75115  -0.74712  -0.73318  -0.72942  -0.71074
 Alpha  occ. eigenvalues --   -0.70016  -0.68612  -0.67296  -0.66329  -0.64518
 Alpha  occ. eigenvalues --   -0.63964  -0.63509  -0.62665  -0.59893  -0.59795
 Alpha  occ. eigenvalues --   -0.59218  -0.59044  -0.58778  -0.57310  -0.56483
 Alpha  occ. eigenvalues --   -0.55910  -0.55764  -0.54849  -0.54368  -0.54075
 Alpha  occ. eigenvalues --   -0.53772  -0.52763  -0.52338  -0.51665  -0.51012
 Alpha  occ. eigenvalues --   -0.50741  -0.50448  -0.49993  -0.49326  -0.49066
 Alpha  occ. eigenvalues --   -0.48928  -0.48503  -0.48056  -0.47884  -0.47819
 Alpha  occ. eigenvalues --   -0.47462  -0.47155  -0.46987  -0.46605  -0.46164
 Alpha  occ. eigenvalues --   -0.45940  -0.45735  -0.45593  -0.45477  -0.44927
 Alpha  occ. eigenvalues --   -0.44320  -0.44164  -0.43816  -0.43601  -0.43412
 Alpha  occ. eigenvalues --   -0.42707  -0.42580  -0.42378  -0.42131  -0.41814
 Alpha  occ. eigenvalues --   -0.41643  -0.41174  -0.41158  -0.40642  -0.40364
 Alpha  occ. eigenvalues --   -0.40099  -0.39979  -0.39953  -0.39364  -0.39294
 Alpha  occ. eigenvalues --   -0.39069  -0.38348  -0.38256  -0.37371  -0.37289
 Alpha  occ. eigenvalues --   -0.37039  -0.36545  -0.36260  -0.36008  -0.35929
 Alpha  occ. eigenvalues --   -0.35676  -0.34789  -0.34142  -0.32408  -0.32306
 Alpha  occ. eigenvalues --   -0.31762  -0.30118  -0.29302  -0.26695  -0.24069
 Alpha  occ. eigenvalues --   -0.18924
 Alpha virt. eigenvalues --   -0.06341  -0.01107   0.01982   0.03104   0.05500
 Alpha virt. eigenvalues --    0.07064   0.07984   0.09489   0.10647   0.11107
 Alpha virt. eigenvalues --    0.11439   0.12149   0.12381   0.12935   0.13315

 Mulliken charges:
               1
     1  O   -0.532525
     2  O   -0.581531
     3  C    0.044736
     4  C   -0.167603
     5  C   -0.160633
     6  C    0.108856
     7  C    0.126134
     8  C   -0.026994
     9  C   -0.305197
    10  C   -0.284388
    11  C   -0.195805
    12  C   -0.090131
    13  C    0.193984
    14  C    0.074808
    15  C   -0.036714
    16  C   -0.217935
    17  C    0.021292
    18  C   -0.335222
    19  C   -0.286205
    20  C   -0.359796
    21  C   -0.088847
    22  C   -0.107982
    23  C   -0.360397
    24  C    0.099027
    25  C   -0.028869
    26  C   -0.363775
    27  C    0.035252
    28  C   -0.137203
    29  C   -0.359586
    30  C   -0.122270
    31  C   -0.055716
    32  C   -0.054682
    33  C   -0.118208
    34  C    0.148818
    35  C   -0.098652
    36  C    0.107973
    37  C   -0.393017
    38  C   -0.120839
    39  C   -0.075141
    40  C   -0.274478
    41  C   -0.105948
    42  C   -0.084811
    43  H    0.056872
    44  H    0.108427
    45  H    0.056923
    46  H    0.077325
    47  H    0.067840
    48  H    0.095786
    49  H    0.111393
    50  H    0.094263
    51  H    0.095240
    52  H    0.099068
    53  H    0.110393
    54  H    0.063402
    55  H    0.065400
    56  H    0.089882
    57  H    0.074946
    58  H    0.113767
    59  H    0.128117
    60  H    0.126103
    61  H    0.103590
    62  H    0.074562
    63  H    0.100958
    64  H    0.091631
    65  H    0.115184
    66  H    0.130722
    67  H    0.113026
    68  H    0.109200
    69  H    0.291992
    70  H    0.088222
    71  H    0.073583
    72  H    0.123718
    73  H    0.125551
    74  H    0.085773
    75  H    0.302343
    76  H    0.060937
    77  H    0.098067
    78  H    0.133821
    79  H    0.106499
    80  H    0.069708
    81  H    0.087671
    82  H    0.126882
    83  H    0.106037
    84  H    0.067170
    85  H    0.082065
    86  H    0.029595
    87  H    0.080649
    88  H    0.082474
    89  H    0.132705
    90  H    0.110679
    91  H    0.087850
    92  H    0.073468
    93  H    0.081844
    94  H    0.075826
    95  H    0.088198
    96  H    0.065674
    97  H    0.078299
    98  H    0.078902
 Sum of Mulliken charges =  -0.00000

 Dipole moment (field-independent basis, Debye):
    X=              1.0412    Y=             -0.0733    Z=             -0.8518  Tot=              1.3472
 Quadrupole moment (field-independent basis, Debye-Ang):
   XX=           -276.4131   YY=           -246.1305   ZZ=           -260.5862
   XY=              6.7813   XZ=             39.1662   YZ=              2.7847

 Normal termination of Gaussian 16 at Sat Jul 13 11:57:57 2019.
