 Gaussian 16, Revision A.03,
 Gaussian 16:  ES64L-G16RevA.03 25-Dec-2016

 -------------------------------------
 # td=(NStates=1) CAM-B3LYP/6-31G(d,p)
 -------------------------------------

 --
 TD
 --
 Symbolic Z-matrix:
 Charge =  0 Multiplicity = 1

                         Standard orientation:
 ---------------------------------------------------------------------
 Center     Atomic      Atomic             Coordinates (Angstroms)
 Number     Number       Type             X           Y           Z
 ---------------------------------------------------------------------
      1          8           0      -14.007132   -2.076001    0.375128
      2          8           0       14.856648    0.779165   -0.107685
      3          6           0      -11.716718   -0.090563    1.234147
      4          6           0      -11.028196    0.274197   -0.178415
      5          6           0      -11.883257   -1.580199    1.306089
      6          6           0      -12.608279   -2.252994    0.209043
      7          6           0      -11.619437   -0.500423   -1.344606
      8          6           0       11.250556    0.984256    0.878235
      9          6           0      -10.888563    0.446166    2.422305
     10          6           0      -13.139600    0.578790    1.396707
     11          6           0       12.699231    1.444236    0.543274
     12          6           0      -12.270272   -1.671579   -1.142672
     13          6           0       13.575963    0.260500    0.195386
     14          6           0       10.720437   -0.098555   -0.091140
     15          6           0       -9.545405    0.012536   -0.093082
     16          6           0       13.091652   -0.414813   -1.076304
     17          6           0       11.576624   -0.755129   -1.002472
     18          6           0       10.249594    2.273257    0.854206
     19          6           0       11.154979    0.632195    2.377613
     20          6           0      -11.299477    0.144371   -2.606042
     21          6           0       -8.522185    0.871310   -0.217057
     22          6           0        9.322510   -0.495720    0.019267
     23          6           0       11.091178   -1.768666   -2.068785
     24          6           0       -7.119772    0.609584   -0.383380
     25          6           0        8.695801   -1.626630    0.017335
     26          6           0       -6.669542   -0.882166   -0.179952
     27          6           0        7.330025   -2.113441    0.070845
     28          6           0       -6.256619    1.707643   -0.344539
     29          6           0        7.027187   -3.566719    0.388802
     30          6           0        6.313226   -1.178905   -0.066987
     31          6           0       -4.860388    1.613521   -0.387119
     32          6           0        4.948374   -1.437390    0.117337
     33          6           0       -4.052766    2.700472   -0.489126
     34          6           0       -2.522505    2.791007   -0.360215
     35          6           0        3.912919   -0.509490   -0.237969
     36          6           0        2.562212   -0.768618    0.038604
     37          6           0       -2.048715    4.159304   -0.636677
     38          6           0       -1.848617    1.640786   -0.268375
     39          6           0        1.710205    0.390119   -0.339115
     40          6           0        2.025742   -2.025934    0.675019
     41          6           0       -0.441313    1.569389   -0.415273
     42          6           0        0.326606    0.383221   -0.215800
     43          1           0      -11.102916    1.254776   -0.121054
     44          1           0      -12.526045   -1.898761    2.267773
     45          1           0      -10.883232   -2.007773    1.496785
     46          1           0      -12.221222   -3.361627    0.225506
     47          1           0       -9.950752   -0.119621    2.493682
     48          1           0      -11.022184    1.621031    2.582397
     49          1           0      -11.515472    0.218286    3.280268
     50          1           0      -13.950198    0.109704    0.726568
     51          1           0      -13.458398    0.225258    2.433685
     52          1           0      -13.053151    1.706077    1.267687
     53          1           0       12.826893    2.159831   -0.452069
     54          1           0       13.013433    2.027434    1.356040
     55          1           0      -12.673048   -2.187668   -2.074453
     56          1           0       13.541170   -0.445560    1.011044
     57          1           0       -9.314736   -0.995592   -0.159477
     58          1           0       13.699267   -1.267501   -1.362007
     59          1           0       13.441939    0.215591   -1.822187
     60          1           0        9.372323    1.962533    1.521121
     61          1           0        9.758293    2.423017   -0.247734
     62          1           0       10.785626    3.023104    1.260390
     63          1           0       11.871780   -0.161810    2.878914
     64          1           0       10.089664    0.242043    2.755671
     65          1           0       11.245493    1.498901    3.008328
     66          1           0      -10.135143   -0.030711   -2.942916
     67          1           0      -11.396732    1.247523   -2.742002
     68          1           0      -11.856010   -0.257727   -3.441802
     69          1           0      -14.583383   -1.954519   -0.644353
     70          1           0        8.572841    0.361780    0.451219
     71          1           0       -8.835421    1.913416   -0.401460
     72          1           0       11.201393   -2.950911   -1.705659
     73          1           0        9.922450   -1.469190   -2.386218
     74          1           0       11.804295   -1.677076   -2.812623
     75          1           0       15.106789    1.190263    0.669851
     76          1           0        9.257706   -2.546110   -0.304972
     77          1           0       -5.574515   -0.809614   -0.150433
     78          1           0       -7.048954   -1.398891    0.727433
     79          1           0       -6.978784   -1.510869   -0.807469
     80          1           0       -6.814049    2.797640   -0.408585
     81          1           0        6.471197   -3.594875    1.355768
     82          1           0        6.499116   -4.149341   -0.341700
     83          1           0        7.988777   -4.140022    0.370663
     84          1           0        6.451166   -0.133933   -0.402868
     85          1           0       -4.235676    0.636722   -0.351785
     86          1           0        4.699951   -2.517402    0.323531
     87          1           0       -4.523378    3.624895   -0.599836
     88          1           0        4.435712    0.410325   -0.520708
     89          1           0       -1.672074    4.455325   -1.636779
     90          1           0       -1.226233    4.329555    0.075033
     91          1           0       -2.683582    4.948372   -0.628458
     92          1           0       -2.372401    0.641305    0.080542
     93          1           0        2.154258    1.472513   -0.706605
     94          1           0        2.500115   -2.450063    1.598068
     95          1           0        0.928035   -1.989350    0.824478
     96          1           0        1.951953   -2.886224    0.055463
     97          1           0       -0.036319    2.439797   -0.766510
     98          1           0       -0.204133   -0.363160    0.110604
 ---------------------------------------------------------------------

 SCF Done:  E(RCAM-B3LYP) =  -1706.94977207     A.U. after   15 cycles

 Excitation energies and oscillator strengths:

 Excited State   1:      Singlet-A      2.0669 eV  599.86 nm  f=3.0223  <S**2>=0.000
     155 ->158         0.13426
     156 ->157         0.69644
     156 <-157        -0.10173
 This state for optimization and/or second-order correction.
 Total Energy, E(TD-HF/TD-DFT) =  -1706.87381510
 Copying the excited state density for this state as the 1-particle RhoCI density.

 The electronic state is 1-A.
 Alpha  occ. eigenvalues --  -19.22842 -19.20768 -10.31517 -10.29838 -10.28980
 Alpha  occ. eigenvalues --  -10.28454 -10.28346 -10.27758 -10.27729 -10.27707
 Alpha  occ. eigenvalues --  -10.27658 -10.27282 -10.27191 -10.27095 -10.26828
 Alpha  occ. eigenvalues --  -10.26558 -10.26541 -10.26497 -10.26481 -10.26279
 Alpha  occ. eigenvalues --  -10.26247 -10.26236 -10.26202 -10.25995 -10.25994
 Alpha  occ. eigenvalues --  -10.25912 -10.25792 -10.25761 -10.25751 -10.25580
 Alpha  occ. eigenvalues --  -10.25497 -10.25304 -10.25232 -10.25149 -10.25146
 Alpha  occ. eigenvalues --  -10.25099 -10.24989 -10.24644 -10.24617 -10.24561
 Alpha  occ. eigenvalues --  -10.24401 -10.24307  -1.11177  -1.07405  -0.93170
 Alpha  occ. eigenvalues --   -0.92379  -0.91915  -0.90953  -0.90135  -0.89414
 Alpha  occ. eigenvalues --   -0.86959  -0.86770  -0.85988  -0.85456  -0.84652
 Alpha  occ. eigenvalues --   -0.82891  -0.82069  -0.80416  -0.80052  -0.79401
 Alpha  occ. eigenvalues --   -0.77387  -0.76761  -0.76023  -0.75746  -0.75436
 Alpha  occ. eigenvalues --   -0.75144  -0.74038  -0.73530  -0.72650  -0.70155
 Alpha  occ. eigenvalues --   -0.68209  -0.67218  -0.66367  -0.65182  -0.63935
 Alpha  occ. eigenvalues --   -0.63290  -0.62741  -0.62422  -0.60867  -0.59933
 Alpha  occ. eigenvalues --   -0.59866  -0.59158  -0.57694  -0.57529  -0.56074
 Alpha  occ. eigenvalues --   -0.55796  -0.55161  -0.54757  -0.54082  -0.53229
 Alpha  occ. eigenvalues --   -0.52951  -0.52756  -0.52084  -0.51470  -0.50830
 Alpha  occ. eigenvalues --   -0.50154  -0.50113  -0.49569  -0.49110  -0.48429
 Alpha  occ. eigenvalues --   -0.48349  -0.48049  -0.47809  -0.47618  -0.47454
 Alpha  occ. eigenvalues --   -0.47157  -0.47054  -0.46735  -0.46585  -0.46269
 Alpha  occ. eigenvalues --   -0.46029  -0.45428  -0.45280  -0.44985  -0.44864
 Alpha  occ. eigenvalues --   -0.44388  -0.44044  -0.43936  -0.43618  -0.43405
 Alpha  occ. eigenvalues --   -0.43031  -0.42730  -0.42442  -0.42132  -0.41961
 Alpha  occ. eigenvalues --   -0.41378  -0.41284  -0.41119  -0.40502  -0.40265
 Alpha  occ. eigenvalues --   -0.40050  -0.39751  -0.39593  -0.39339  -0.39167
 Alpha  occ. eigenvalues --   -0.38994  -0.38525  -0.38368  -0.38246  -0.37879
 Alpha  occ. eigenvalues --   -0.37530  -0.37108  -0.36841  -0.35990  -0.35528
 Alpha  occ. eigenvalues --   -0.35259  -0.34916  -0.33437  -0.32132  -0.31800
 Alpha  occ. eigenvalues --   -0.31556  -0.29470  -0.28810  -0.26153  -0.23566
 Alpha  occ. eigenvalues --   -0.18844
 Alpha virt. eigenvalues --   -0.06085  -0.00744   0.02451   0.04806   0.06202
 Alpha virt. eigenvalues --    0.08362   0.09296   0.11589   0.12067   0.12468
 Alpha virt. eigenvalues --    0.13040   0.13131   0.13353   0.13496   0.14446

 Mulliken charges:
               1
     1  O   -0.552700
     2  O   -0.543058
     3  C    0.006443
     4  C   -0.110278
     5  C   -0.176850
     6  C    0.201487
     7  C    0.159457
     8  C   -0.016475
     9  C   -0.297133
    10  C   -0.297880
    11  C   -0.182735
    12  C   -0.189629
    13  C    0.146730
    14  C    0.087752
    15  C   -0.088093
    16  C   -0.223422
    17  C    0.036512
    18  C   -0.296743
    19  C   -0.309853
    20  C   -0.364436
    21  C   -0.083314
    22  C   -0.132817
    23  C   -0.340823
    24  C    0.085162
    25  C   -0.072778
    26  C   -0.355815
    27  C    0.061517
    28  C   -0.125299
    29  C   -0.376435
    30  C   -0.105712
    31  C   -0.057174
    32  C   -0.100647
    33  C   -0.131027
    34  C    0.103951
    35  C   -0.106868
    36  C    0.089491
    37  C   -0.383954
    38  C   -0.119275
    39  C   -0.121639
    40  C   -0.384602
    41  C   -0.095730
    42  C   -0.044419
    43  H    0.078649
    44  H    0.087309
    45  H    0.090527
    46  H    0.071544
    47  H    0.108537
    48  H    0.087354
    49  H    0.099934
    50  H    0.109515
    51  H    0.092783
    52  H    0.079213
    53  H    0.083911
    54  H    0.085966
    55  H    0.072801
    56  H    0.088373
    57  H    0.067789
    58  H    0.106922
    59  H    0.131023
    60  H    0.100704
    61  H    0.091385
    62  H    0.110222
    63  H    0.084099
    64  H    0.097155
    65  H    0.108044
    66  H    0.106406
    67  H    0.119487
    68  H    0.105797
    69  H    0.311248
    70  H    0.056049
    71  H    0.061929
    72  H    0.091467
    73  H    0.111619
    74  H    0.117609
    75  H    0.296717
    76  H    0.060396
    77  H    0.101779
    78  H    0.112847
    79  H    0.131187
    80  H    0.085106
    81  H    0.129376
    82  H    0.128939
    83  H    0.105287
    84  H    0.078526
    85  H    0.083446
    86  H    0.072206
    87  H    0.068770
    88  H    0.088689
    89  H    0.121418
    90  H    0.119949
    91  H    0.125776
    92  H    0.080343
    93  H    0.087966
    94  H    0.128609
    95  H    0.111581
    96  H    0.133311
    97  H    0.077325
    98  H    0.064194
 Sum of Mulliken charges =  -0.00000

 Dipole moment (field-independent basis, Debye):
    X=             -0.4865    Y=             -0.0044    Z=             -0.4658  Tot=              0.6736
 Quadrupole moment (field-independent basis, Debye-Ang):
   XX=           -277.8288   YY=           -241.1965   ZZ=           -261.5637
   XY=              0.1420   XZ=             42.9033   YZ=              0.9746

 Normal termination of Gaussian 16 at Mon Jul 15 19:17:00 2019.
