 Gaussian 16, Revision A.03,
 Gaussian 16:  ES64L-G16RevA.03 25-Dec-2016

 -------------------------------------
 # td=(NStates=1) CAM-B3LYP/6-31G(d,p)
 -------------------------------------

 --
 TD
 --
 Symbolic Z-matrix:
 Charge =  0 Multiplicity = 1

                         Standard orientation:
 ---------------------------------------------------------------------
 Center     Atomic      Atomic             Coordinates (Angstroms)
 Number     Number       Type             X           Y           Z
 ---------------------------------------------------------------------
      1          8           0      -14.188224   -1.725621    0.822649
      2          8           0       14.756933    1.149068    0.043633
      3          6           0      -11.653493    0.278290    1.272478
      4          6           0      -10.913420    0.339266   -0.173319
      5          6           0      -11.965779   -1.168082    1.503280
      6          6           0      -12.805757   -2.000604    0.512535
      7          6           0      -11.698294   -0.477615   -1.131699
      8          6           0       11.129181    1.101961    1.053256
      9          6           0      -10.816383    0.863337    2.270355
     10          6           0      -13.036621    1.148170    1.127649
     11          6           0       12.443991    1.692712    0.606267
     12          6           0      -12.437649   -1.563044   -0.941820
     13          6           0       13.522882    0.609514    0.209633
     14          6           0       10.703681   -0.019431    0.042636
     15          6           0       -9.497231   -0.127342   -0.102315
     16          6           0       12.924990   -0.150300   -0.959556
     17          6           0       11.561756   -0.570083   -0.876130
     18          6           0       10.100436    2.244120    1.057139
     19          6           0       11.138929    0.471599    2.364539
     20          6           0      -11.362471   -0.126482   -2.546522
     21          6           0       -8.548642    0.756108   -0.258298
     22          6           0        9.305344   -0.421490    0.188436
     23          6           0       11.103747   -1.481955   -2.068700
     24          6           0       -7.057630    0.389912   -0.308921
     25          6           0        8.795922   -1.720404   -0.047666
     26          6           0       -6.738271   -0.936576    0.220321
     27          6           0        7.448723   -2.119483    0.061765
     28          6           0       -6.249332    1.440376   -0.649627
     29          6           0        7.081794   -3.542560    0.212167
     30          6           0        6.362329   -1.229830    0.124460
     31          6           0       -4.817915    1.372185   -0.408882
     32          6           0        5.093250   -1.595146    0.156114
     33          6           0       -3.977688    2.408707   -0.777028
     34          6           0       -2.635942    2.514282   -0.755301
     35          6           0        4.057457   -0.785901   -0.162129
     36          6           0        2.600064   -0.995170   -0.190299
     37          6           0       -1.835667    3.743312   -1.067124
     38          6           0       -1.866742    1.365810   -0.549747
     39          6           0        1.744640    0.126208   -0.351247
     40          6           0        2.105331   -2.367118    0.098327
     41          6           0       -0.416515    1.262993   -0.461445
     42          6           0        0.418913    0.090120   -0.445493
     43          1           0      -10.743968    1.343373   -0.442180
     44          1           0      -12.366327   -1.250007    2.345080
     45          1           0      -11.004365   -1.918902    1.664640
     46          1           0      -12.513800   -2.983974    0.787487
     47          1           0       -9.865258    0.314934    2.355107
     48          1           0      -10.824321    1.815944    2.171365
     49          1           0      -11.336584    0.746841    3.217696
     50          1           0      -13.504895    0.824952    0.244913
     51          1           0      -13.565275    1.246034    2.073444
     52          1           0      -12.972009    2.259236    1.142260
     53          1           0       12.506956    2.408674   -0.141692
     54          1           0       12.968068    2.407393    1.440957
     55          1           0      -12.698492   -2.056684   -1.766277
     56          1           0       13.689730   -0.084747    1.148055
     57          1           0       -9.091294   -1.150569    0.099772
     58          1           0       13.742014   -1.056089   -0.896418
     59          1           0       13.236350    0.293266   -1.897098
     60          1           0        9.193704    1.925330    1.585604
     61          1           0        9.667266    2.555427    0.084406
     62          1           0       10.506912    3.280696    1.507633
     63          1           0       11.926387   -0.279552    2.264136
     64          1           0       10.173648    0.035359    2.852627
     65          1           0       11.603077    1.134424    3.136728
     66          1           0      -10.284775   -0.288463   -2.826285
     67          1           0      -11.751299    0.846474   -2.752582
     68          1           0      -11.917120   -0.853752   -3.320156
     69          1           0      -14.742792   -2.510087    0.308339
     70          1           0        8.436210    0.336783    0.451796
     71          1           0       -8.888737    1.794657   -0.371119
     72          1           0       11.435276   -2.530320   -1.865611
     73          1           0        9.967585   -1.593258   -2.029511
     74          1           0       11.634166   -1.415091   -2.920838
     75          1           0       14.815781    1.626937    0.849272
     76          1           0        9.497912   -2.397829   -0.439866
     77          1           0       -5.617153   -0.802882    0.625667
     78          1           0       -7.190756   -1.205746    1.161538
     79          1           0       -6.843428   -1.744922   -0.447174
     80          1           0       -6.634817    2.327775   -0.944835
     81          1           0        6.659945   -3.877973    1.259636
     82          1           0        6.415176   -4.014530   -0.553204
     83          1           0        7.859883   -4.178781    0.354458
     84          1           0        6.579127   -0.152237    0.010443
     85          1           0       -4.514712    0.461225   -0.419154
     86          1           0        4.782904   -2.808563    0.247961
     87          1           0       -4.435985    3.427656   -0.826678
     88          1           0        4.375678    0.331201   -0.258480
     89          1           0       -1.199235    3.605180   -1.903336
     90          1           0       -1.278159    3.893718   -0.156272
     91          1           0       -2.432310    4.532738   -1.227545
     92          1           0       -2.301577    0.249600   -0.519819
     93          1           0        2.237343    1.211009   -0.370446
     94          1           0        2.258026   -2.361445    1.238640
     95          1           0        1.059100   -2.349717   -0.268765
     96          1           0        2.684945   -3.057467   -0.315014
     97          1           0        0.339697    2.325419   -0.315887
     98          1           0       -0.154614   -0.948435   -0.452221
 ---------------------------------------------------------------------

 SCF Done:  E(RCAM-B3LYP) =  -1706.89100985     A.U. after   16 cycles

 Excitation energies and oscillator strengths:

 Excited State   1:      Singlet-A      1.8882 eV  656.62 nm  f=3.0253  <S**2>=0.000
     155 ->158         0.14600
     156 ->157         0.69722
     156 <-157        -0.11050
 This state for optimization and/or second-order correction.
 Total Energy, E(TD-HF/TD-DFT) =  -1706.82161956
 Copying the excited state density for this state as the 1-particle RhoCI density.

 The electronic state is 1-A.
 Alpha  occ. eigenvalues --  -19.21692 -19.21658 -10.31143 -10.30252 -10.29013
 Alpha  occ. eigenvalues --  -10.28203 -10.27694 -10.27618 -10.27521 -10.27509
 Alpha  occ. eigenvalues --  -10.27383 -10.27290 -10.27218 -10.26924 -10.26875
 Alpha  occ. eigenvalues --  -10.26796 -10.26673 -10.26592 -10.26209 -10.26100
 Alpha  occ. eigenvalues --  -10.26086 -10.26018 -10.25802 -10.25678 -10.25662
 Alpha  occ. eigenvalues --  -10.25522 -10.25459 -10.25417 -10.25339 -10.25313
 Alpha  occ. eigenvalues --  -10.25220 -10.25203 -10.25064 -10.24871 -10.24786
 Alpha  occ. eigenvalues --  -10.24768 -10.24697 -10.23938 -10.23739 -10.23580
 Alpha  occ. eigenvalues --  -10.23294 -10.21491  -1.13263  -1.06589  -0.94258
 Alpha  occ. eigenvalues --   -0.93618  -0.92503  -0.92209  -0.90836  -0.90165
 Alpha  occ. eigenvalues --   -0.88029  -0.87464  -0.87064  -0.85919  -0.84730
 Alpha  occ. eigenvalues --   -0.83213  -0.82652  -0.80836  -0.79912  -0.78687
 Alpha  occ. eigenvalues --   -0.77746  -0.76970  -0.76324  -0.76245  -0.76056
 Alpha  occ. eigenvalues --   -0.75498  -0.75273  -0.74706  -0.72532  -0.70859
 Alpha  occ. eigenvalues --   -0.69546  -0.67963  -0.66411  -0.65040  -0.64146
 Alpha  occ. eigenvalues --   -0.62755  -0.62163  -0.61689  -0.60538  -0.59752
 Alpha  occ. eigenvalues --   -0.59333  -0.59179  -0.58851  -0.57284  -0.56673
 Alpha  occ. eigenvalues --   -0.55855  -0.55087  -0.54657  -0.54318  -0.53342
 Alpha  occ. eigenvalues --   -0.53278  -0.52335  -0.52242  -0.52111  -0.51607
 Alpha  occ. eigenvalues --   -0.50931  -0.50836  -0.50250  -0.50151  -0.50024
 Alpha  occ. eigenvalues --   -0.49834  -0.49415  -0.49002  -0.48914  -0.48788
 Alpha  occ. eigenvalues --   -0.48638  -0.48434  -0.48053  -0.47725  -0.45936
 Alpha  occ. eigenvalues --   -0.45864  -0.45513  -0.45175  -0.44961  -0.44910
 Alpha  occ. eigenvalues --   -0.44669  -0.44638  -0.44249  -0.44073  -0.43387
 Alpha  occ. eigenvalues --   -0.43171  -0.42998  -0.42684  -0.42227  -0.42202
 Alpha  occ. eigenvalues --   -0.42125  -0.41323  -0.41312  -0.40817  -0.40526
 Alpha  occ. eigenvalues --   -0.40014  -0.39975  -0.39836  -0.39613  -0.38931
 Alpha  occ. eigenvalues --   -0.38721  -0.38525  -0.38121  -0.37616  -0.37547
 Alpha  occ. eigenvalues --   -0.37347  -0.36994  -0.36840  -0.36308  -0.35524
 Alpha  occ. eigenvalues --   -0.35001  -0.34307  -0.33806  -0.32200  -0.30928
 Alpha  occ. eigenvalues --   -0.30841  -0.29417  -0.29297  -0.26833  -0.23336
 Alpha  occ. eigenvalues --   -0.18643
 Alpha virt. eigenvalues --   -0.06772  -0.01545   0.02992   0.05949   0.07226
 Alpha virt. eigenvalues --    0.08692   0.10166   0.10636   0.10959   0.11471
 Alpha virt. eigenvalues --    0.12075   0.13134   0.13696   0.13988   0.14197

 Mulliken charges:
               1
     1  O   -0.541295
     2  O   -0.532592
     3  C    0.024278
     4  C   -0.133163
     5  C   -0.145778
     6  C    0.118754
     7  C    0.118745
     8  C    0.018349
     9  C   -0.285349
    10  C   -0.315991
    11  C   -0.213970
    12  C   -0.107567
    13  C    0.165205
    14  C    0.040340
    15  C   -0.061058
    16  C   -0.246549
    17  C    0.100160
    18  C   -0.308863
    19  C   -0.288509
    20  C   -0.359999
    21  C   -0.097988
    22  C   -0.112693
    23  C   -0.367622
    24  C    0.092629
    25  C   -0.131569
    26  C   -0.396007
    27  C    0.098862
    28  C   -0.097179
    29  C   -0.386362
    30  C   -0.106452
    31  C   -0.063549
    32  C   -0.056725
    33  C   -0.127991
    34  C    0.086154
    35  C   -0.122915
    36  C    0.054728
    37  C   -0.350326
    38  C   -0.127639
    39  C   -0.094673
    40  C   -0.341709
    41  C   -0.103991
    42  C   -0.079552
    43  H    0.084891
    44  H    0.104146
    45  H    0.051073
    46  H    0.085433
    47  H    0.101220
    48  H    0.102814
    49  H    0.085969
    50  H    0.127890
    51  H    0.100333
    52  H    0.078288
    53  H    0.121273
    54  H    0.036715
    55  H    0.065693
    56  H    0.054911
    57  H    0.077274
    58  H    0.090114
    59  H    0.127499
    60  H    0.101344
    61  H    0.105104
    62  H    0.084978
    63  H    0.103217
    64  H    0.111646
    65  H    0.090393
    66  H    0.120942
    67  H    0.118591
    68  H    0.073615
    69  H    0.298938
    70  H    0.083069
    71  H    0.074255
    72  H    0.107155
    73  H    0.124881
    74  H    0.118738
    75  H    0.307675
    76  H    0.089975
    77  H    0.095032
    78  H    0.135477
    79  H    0.137888
    80  H    0.078630
    81  H    0.104971
    82  H    0.120203
    83  H    0.111583
    84  H    0.081622
    85  H    0.080458
    86  H    0.068882
    87  H    0.065242
    88  H    0.064963
    89  H    0.136901
    90  H    0.131211
    91  H    0.105790
    92  H    0.078164
    93  H    0.082499
    94  H    0.131602
    95  H    0.105706
    96  H    0.127387
    97  H    0.052081
    98  H    0.081075
 Sum of Mulliken charges =  -0.00000

 Dipole moment (field-independent basis, Debye):
    X=              0.3492    Y=             -1.4791    Z=              0.1704  Tot=              1.5293
 Quadrupole moment (field-independent basis, Debye-Ang):
   XX=           -284.3315   YY=           -237.2043   ZZ=           -263.5307
   XY=             14.0202   XZ=             20.1859   YZ=              2.7949

 Normal termination of Gaussian 16 at Sat Jul 13 17:03:27 2019.
