 Gaussian 16, Revision A.03,
 Gaussian 16:  ES64L-G16RevA.03 25-Dec-2016

 -------------------------------------
 # td=(NStates=1) CAM-B3LYP/6-31G(d,p)
 -------------------------------------

 --
 TD
 --
 Symbolic Z-matrix:
 Charge =  0 Multiplicity = 1

                         Standard orientation:
 ---------------------------------------------------------------------
 Center     Atomic      Atomic             Coordinates (Angstroms)
 Number     Number       Type             X           Y           Z
 ---------------------------------------------------------------------
      1          8           0      -14.142945   -1.812904    0.649960
      2          8           0       14.832085    0.696146    0.001862
      3          6           0      -11.705587    0.080596    1.182265
      4          6           0      -11.107425    0.307315   -0.249872
      5          6           0      -11.990992   -1.464184    1.436708
      6          6           0      -12.837932   -2.129939    0.464783
      7          6           0      -11.708787   -0.512343   -1.274843
      8          6           0       11.294986    0.911858    1.070414
      9          6           0      -10.901220    0.651904    2.341530
     10          6           0      -13.109781    0.870593    1.152200
     11          6           0       12.730350    1.427939    0.961811
     12          6           0      -12.422035   -1.574348   -1.049052
     13          6           0       13.528819    0.357433    0.338270
     14          6           0       10.751109    0.031457   -0.074734
     15          6           0       -9.578362   -0.147969   -0.122516
     16          6           0       13.083561   -0.073201   -1.035521
     17          6           0       11.578480   -0.326939   -1.118407
     18          6           0       10.309720    2.162274    1.235529
     19          6           0       11.138154    0.072782    2.345204
     20          6           0      -11.380891   -0.020888   -2.607048
     21          6           0       -8.609023    0.825772   -0.225674
     22          6           0        9.276813   -0.399731   -0.066889
     23          6           0       11.154631   -1.163616   -2.315248
     24          6           0       -7.222435    0.541804   -0.191279
     25          6           0        8.820582   -1.636092   -0.122168
     26          6           0       -6.716837   -0.933290   -0.074137
     27          6           0        7.441576   -2.041391   -0.024092
     28          6           0       -6.301851    1.570229   -0.362889
     29          6           0        7.223947   -3.533068    0.041800
     30          6           0        6.376746   -1.114806   -0.172697
     31          6           0       -4.859318    1.424233   -0.483818
     32          6           0        5.038423   -1.476779   -0.060715
     33          6           0       -4.025043    2.564351   -0.572104
     34          6           0       -2.613341    2.534334   -0.519642
     35          6           0        4.004678   -0.485384   -0.041298
     36          6           0        2.560669   -0.769775    0.066927
     37          6           0       -1.844297    3.926445   -0.829126
     38          6           0       -1.905546    1.439876   -0.387724
     39          6           0        1.746712    0.266452   -0.233267
     40          6           0        2.126800   -2.125233    0.435981
     41          6           0       -0.498053    1.460357   -0.377313
     42          6           0        0.331544    0.336821   -0.242132
     43          1           0      -11.053526    1.391592   -0.562345
     44          1           0      -12.373147   -1.318677    2.527786
     45          1           0      -10.971392   -1.933672    1.483933
     46          1           0      -12.741998   -3.209092    0.615731
     47          1           0       -9.957489   -0.091224    2.481828
     48          1           0      -10.539872    1.635604    2.218666
     49          1           0      -11.340331    0.408194    3.431076
     50          1           0      -13.798298    0.877681    0.275066
     51          1           0      -13.805566    0.599601    2.047916
     52          1           0      -12.703288    1.901295    1.207511
     53          1           0       12.894754    2.145779    0.286104
     54          1           0       13.011112    1.675189    2.005009
     55          1           0      -12.762007   -2.198092   -1.890316
     56          1           0       13.604571   -0.608325    1.039341
     57          1           0       -9.181876   -1.279617   -0.270577
     58          1           0       13.632887   -1.065469   -1.445029
     59          1           0       13.174615    0.699937   -1.771896
     60          1           0        9.116350    1.952962    1.508594
     61          1           0       10.325437    2.535614    0.152570
     62          1           0       10.812110    2.918029    1.967674
     63          1           0       11.701804   -0.793469    2.274621
     64          1           0       10.181672   -0.303694    2.295272
     65          1           0       11.430094    0.627209    3.151336
     66          1           0      -10.313545    0.115077   -2.819557
     67          1           0      -11.959380    0.980470   -2.926696
     68          1           0      -11.846501   -0.815482   -3.364859
     69          1           0      -14.658351   -2.237917    0.039098
     70          1           0        8.531581    0.236024    0.355845
     71          1           0       -8.733926    1.791590   -0.355174
     72          1           0       11.574914   -2.289335   -2.264660
     73          1           0       10.044822   -1.066165   -2.478550
     74          1           0       11.409406   -0.791114   -3.324112
     75          1           0       15.234390    1.034722    0.809858
     76          1           0        9.379756   -2.661965   -0.299924
     77          1           0       -5.574001   -0.878197    0.157735
     78          1           0       -7.148299   -1.459662    0.896205
     79          1           0       -7.161364   -1.632971   -0.740431
     80          1           0       -6.817042    2.466058   -0.360119
     81          1           0        6.892096   -3.669467    1.200987
     82          1           0        6.498832   -3.848219   -0.585014
     83          1           0        7.958518   -4.217520   -0.017315
     84          1           0        6.782295   -0.054629   -0.447886
     85          1           0       -4.381468    0.533005   -0.298662
     86          1           0        4.755706   -2.579912    0.387741
     87          1           0       -4.436418    3.502964   -0.526383
     88          1           0        4.412160    0.449541   -0.417245
     89          1           0       -1.546366    3.959830   -1.866259
     90          1           0       -0.953021    3.951552   -0.249271
     91          1           0       -2.513743    4.871884   -0.550971
     92          1           0       -2.496284    0.554749   -0.350263
     93          1           0        2.105646    1.266610   -0.362660
     94          1           0        2.888252   -2.877367    1.172856
     95          1           0        1.001761   -2.161735    1.116167
     96          1           0        1.891924   -2.836945   -0.631856
     97          1           0        0.133225    2.394617   -0.631274
     98          1           0       -0.202561   -0.678458    0.052911
 ---------------------------------------------------------------------

 SCF Done:  E(RCAM-B3LYP) =  -1706.92339365     A.U. after   15 cycles

 Excitation energies and oscillator strengths:

 Excited State   1:      Singlet-A      2.2460 eV  552.02 nm  f=3.0994  <S**2>=0.000
     155 ->158         0.16862
     156 ->157         0.68474
 This state for optimization and/or second-order correction.
 Total Energy, E(TD-HF/TD-DFT) =  -1706.84085498
 Copying the excited state density for this state as the 1-particle RhoCI density.

 The electronic state is 1-A.
 Alpha  occ. eigenvalues --  -19.20921 -19.20541 -10.31122 -10.31118 -10.30485
 Alpha  occ. eigenvalues --  -10.28089 -10.27828 -10.27537 -10.27450 -10.27359
 Alpha  occ. eigenvalues --  -10.27204 -10.27195 -10.27173 -10.27144 -10.27008
 Alpha  occ. eigenvalues --  -10.26890 -10.26867 -10.26846 -10.26819 -10.26636
 Alpha  occ. eigenvalues --  -10.26524 -10.26503 -10.26427 -10.26320 -10.26217
 Alpha  occ. eigenvalues --  -10.26182 -10.26035 -10.25838 -10.25794 -10.25789
 Alpha  occ. eigenvalues --  -10.25732 -10.25693 -10.25483 -10.25391 -10.25210
 Alpha  occ. eigenvalues --  -10.25088 -10.25083 -10.24899 -10.24833 -10.24711
 Alpha  occ. eigenvalues --  -10.23960 -10.21806  -1.12765  -1.10997  -0.93529
 Alpha  occ. eigenvalues --   -0.93257  -0.92303  -0.91336  -0.90614  -0.90129
 Alpha  occ. eigenvalues --   -0.86777  -0.86556  -0.86125  -0.85156  -0.83914
 Alpha  occ. eigenvalues --   -0.82820  -0.81761  -0.80634  -0.79458  -0.77508
 Alpha  occ. eigenvalues --   -0.76680  -0.76546  -0.75719  -0.75485  -0.74889
 Alpha  occ. eigenvalues --   -0.74726  -0.73898  -0.73722  -0.72885  -0.70217
 Alpha  occ. eigenvalues --   -0.69019  -0.68101  -0.66304  -0.65105  -0.63979
 Alpha  occ. eigenvalues --   -0.62782  -0.61781  -0.61279  -0.60262  -0.59890
 Alpha  occ. eigenvalues --   -0.59635  -0.59339  -0.58223  -0.57404  -0.56741
 Alpha  occ. eigenvalues --   -0.55916  -0.55195  -0.54639  -0.54377  -0.53509
 Alpha  occ. eigenvalues --   -0.53142  -0.52866  -0.52459  -0.51549  -0.51361
 Alpha  occ. eigenvalues --   -0.50261  -0.50161  -0.49405  -0.49108  -0.48878
 Alpha  occ. eigenvalues --   -0.48502  -0.48462  -0.48189  -0.47667  -0.47390
 Alpha  occ. eigenvalues --   -0.47157  -0.46931  -0.46556  -0.46370  -0.46197
 Alpha  occ. eigenvalues --   -0.45881  -0.45766  -0.45130  -0.44727  -0.44710
 Alpha  occ. eigenvalues --   -0.44434  -0.43965  -0.43719  -0.43495  -0.43289
 Alpha  occ. eigenvalues --   -0.43015  -0.42877  -0.42598  -0.42083  -0.41477
 Alpha  occ. eigenvalues --   -0.41273  -0.41117  -0.40831  -0.40617  -0.40458
 Alpha  occ. eigenvalues --   -0.40136  -0.40122  -0.39128  -0.39090  -0.38703
 Alpha  occ. eigenvalues --   -0.38445  -0.38280  -0.38135  -0.37649  -0.37450
 Alpha  occ. eigenvalues --   -0.37123  -0.36865  -0.36664  -0.35977  -0.35922
 Alpha  occ. eigenvalues --   -0.35182  -0.34393  -0.33999  -0.32078  -0.31803
 Alpha  occ. eigenvalues --   -0.31323  -0.29665  -0.28386  -0.26703  -0.23284
 Alpha  occ. eigenvalues --   -0.19682
 Alpha virt. eigenvalues --   -0.05527  -0.01425   0.02651   0.06053   0.07425
 Alpha virt. eigenvalues --    0.08362   0.10490   0.10701   0.11845   0.12182
 Alpha virt. eigenvalues --    0.12354   0.12765   0.13175   0.13234   0.13432

 Mulliken charges:
               1
     1  O   -0.503349
     2  O   -0.542049
     3  C    0.027155
     4  C   -0.144603
     5  C   -0.179609
     6  C    0.161194
     7  C    0.203205
     8  C   -0.043805
     9  C   -0.298441
    10  C   -0.281825
    11  C   -0.165182
    12  C   -0.197668
    13  C    0.154803
    14  C    0.058306
    15  C   -0.112829
    16  C   -0.197014
    17  C    0.029218
    18  C   -0.291212
    19  C   -0.283812
    20  C   -0.361520
    21  C   -0.053804
    22  C   -0.168296
    23  C   -0.360150
    24  C    0.114700
    25  C   -0.044882
    26  C   -0.378449
    27  C    0.066235
    28  C   -0.126795
    29  C   -0.365356
    30  C   -0.115370
    31  C   -0.075469
    32  C   -0.098402
    33  C   -0.108502
    34  C    0.078164
    35  C   -0.127818
    36  C    0.151005
    37  C   -0.367487
    38  C   -0.076067
    39  C   -0.112778
    40  C   -0.345557
    41  C   -0.110221
    42  C   -0.092769
    43  H    0.093522
    44  H    0.095521
    45  H    0.090178
    46  H    0.073375
    47  H    0.082667
    48  H    0.111385
    49  H    0.089585
    50  H    0.104594
    51  H    0.091307
    52  H    0.075198
    53  H    0.107572
    54  H    0.091602
    55  H    0.069962
    56  H    0.054192
    57  H    0.086346
    58  H    0.103119
    59  H    0.124537
    60  H    0.084997
    61  H    0.100363
    62  H    0.089479
    63  H    0.103380
    64  H    0.111370
    65  H    0.094987
    66  H    0.128571
    67  H    0.099073
    68  H    0.083215
    69  H    0.296451
    70  H    0.087739
    71  H    0.064489
    72  H    0.097640
    73  H    0.114416
    74  H    0.105935
    75  H    0.292281
    76  H    0.077194
    77  H    0.103742
    78  H    0.096252
    79  H    0.130671
    80  H    0.073909
    81  H    0.098027
    82  H    0.135402
    83  H    0.120391
    84  H    0.089846
    85  H    0.083822
    86  H    0.079042
    87  H    0.077630
    88  H    0.088901
    89  H    0.134330
    90  H    0.125723
    91  H    0.088828
    92  H    0.082137
    93  H    0.079348
    94  H    0.096359
    95  H    0.085189
    96  H    0.096750
    97  H    0.084317
    98  H    0.060241
 Sum of Mulliken charges =  -0.00000

 Dipole moment (field-independent basis, Debye):
    X=             -0.2570    Y=             -0.9466    Z=              0.0720  Tot=              0.9836
 Quadrupole moment (field-independent basis, Debye-Ang):
   XX=           -261.4772   YY=           -241.7454   ZZ=           -264.1864
   XY=             13.7921   XZ=             34.8066   YZ=              0.9903

 Normal termination of Gaussian 16 at Mon Jul 15 18:51:19 2019.
