 Gaussian 16, Revision A.03,
 Gaussian 16:  ES64L-G16RevA.03 25-Dec-2016

 -------------------------------------
 # td=(NStates=1) CAM-B3LYP/6-31G(d,p)
 -------------------------------------

 --
 TD
 --
 Symbolic Z-matrix:
 Charge =  0 Multiplicity = 1

                         Standard orientation:
 ---------------------------------------------------------------------
 Center     Atomic      Atomic             Coordinates (Angstroms)
 Number     Number       Type             X           Y           Z
 ---------------------------------------------------------------------
      1          8           0      -13.995401   -2.198474    0.614035
      2          8           0       14.756271    1.095656    0.083921
      3          6           0      -11.866336    0.190547    1.198642
      4          6           0      -11.001866    0.364225   -0.074486
      5          6           0      -11.940076   -1.286715    1.529189
      6          6           0      -12.548355   -2.209018    0.380994
      7          6           0      -11.470833   -0.492784   -1.255730
      8          6           0       11.100432    0.969249    1.029999
      9          6           0      -11.102611    0.854462    2.422885
     10          6           0      -13.263953    0.760767    1.022096
     11          6           0       12.496002    1.633337    0.695988
     12          6           0      -12.180002   -1.661833   -0.986575
     13          6           0       13.518208    0.521218    0.361368
     14          6           0       10.591701   -0.183449    0.098107
     15          6           0       -9.572115   -0.013404    0.154341
     16          6           0       13.038340   -0.254890   -0.864781
     17          6           0       11.600616   -0.633428   -0.820840
     18          6           0       10.144562    2.179310    1.062694
     19          6           0       11.110744    0.402052    2.475867
     20          6           0      -11.128002   -0.026389   -2.644313
     21          6           0       -8.531098    0.806053   -0.142977
     22          6           0        9.230290   -0.506467    0.190854
     23          6           0       11.250726   -1.483671   -1.995591
     24          6           0       -7.064272    0.598731   -0.097767
     25          6           0        8.738774   -1.698578   -0.111278
     26          6           0       -6.670131   -0.735270    0.337907
     27          6           0        7.371244   -2.060594   -0.043060
     28          6           0       -6.185170    1.573162   -0.384949
     29          6           0        7.104283   -3.574392    0.143464
     30          6           0        6.348867   -1.242284   -0.294637
     31          6           0       -4.769249    1.552607   -0.327474
     32          6           0        4.993657   -1.660439   -0.086642
     33          6           0       -3.997920    2.579007   -0.687351
     34          6           0       -2.562737    2.642363   -0.745861
     35          6           0        3.964832   -0.708425   -0.178503
     36          6           0        2.655481   -0.862509   -0.189690
     37          6           0       -1.977174    3.958366   -1.020014
     38          6           0       -1.801273    1.451994   -0.518981
     39          6           0        1.803693    0.240147   -0.414478
     40          6           0        2.039197   -2.240171    0.165820
     41          6           0       -0.481674    1.503326   -0.570930
     42          6           0        0.377778    0.283907   -0.336648
     43          1           0      -11.266163    1.496714   -0.454768
     44          1           0      -12.432654   -1.536712    2.414198
     45          1           0      -10.849218   -1.663026    1.781498
     46          1           0      -12.098234   -3.337109    0.325623
     47          1           0      -10.142980    0.382289    2.497010
     48          1           0      -10.812253    1.834640    2.272909
     49          1           0      -11.707946    0.762460    3.329475
     50          1           0      -13.639188    0.401408   -0.037699
     51          1           0      -13.775959    0.645794    1.918751
     52          1           0      -13.056704    1.912381    0.935380
     53          1           0       12.539858    2.237915   -0.272619
     54          1           0       12.736541    2.203676    1.641012
     55          1           0      -12.450440   -2.315420   -1.890843
     56          1           0       13.683346   -0.090564    1.235424
     57          1           0       -9.606147   -1.058370    0.513512
     58          1           0       13.395092   -1.131306   -0.974741
     59          1           0       13.383498    0.259565   -1.559579
     60          1           0        9.120899    1.857405    1.305745
     61          1           0        9.982129    2.602255   -0.012853
     62          1           0       10.446199    3.068454    1.436610
     63          1           0       11.491480   -0.561451    2.549085
     64          1           0        9.943391    0.366862    2.920637
     65          1           0       11.640863    1.117133    3.146825
     66          1           0      -10.245345   -0.131088   -2.811453
     67          1           0      -11.624250    1.058532   -2.537281
     68          1           0      -11.636412   -0.650290   -3.334080
     69          1           0      -14.330145   -2.639710   -0.174125
     70          1           0        8.567653    0.225979    0.489115
     71          1           0       -8.685497    1.746178   -0.551195
     72          1           0       11.459062   -2.365645   -1.704583
     73          1           0       10.150365   -1.477497   -2.243872
     74          1           0       11.743835   -1.220607   -2.989074
     75          1           0       15.148246    1.384943    0.833249
     76          1           0        9.214325   -2.531226   -0.319561
     77          1           0       -5.486736   -0.837726    0.589145
     78          1           0       -7.066665   -1.101596    1.357378
     79          1           0       -7.057580   -1.488490   -0.350689
     80          1           0       -6.475947    2.523597   -0.788569
     81          1           0        6.621574   -3.864138    1.040056
     82          1           0        6.635235   -4.094880   -0.742576
     83          1           0        7.910465   -4.181821    0.176785
     84          1           0        6.468414   -0.117350   -0.250652
     85          1           0       -4.325041    0.574409   -0.235072
     86          1           0        4.766318   -2.697717   -0.031410
     87          1           0       -4.695771    3.322683   -1.232285
     88          1           0        4.372057    0.380229   -0.432253
     89          1           0       -1.283457    3.922390   -1.831218
     90          1           0       -1.240820    4.249367   -0.211773
     91          1           0       -2.571171    4.729937   -1.099269
     92          1           0       -2.520138    0.487219   -0.640923
     93          1           0        2.114435    1.171834   -0.985753
     94          1           0        2.283696   -2.835143    1.150459
     95          1           0        0.965515   -2.164767    0.005303
     96          1           0        2.437006   -2.933470   -0.642652
     97          1           0       -0.074827    2.372245   -0.708404
     98          1           0       -0.338245   -0.629565   -0.256957
 ---------------------------------------------------------------------

 SCF Done:  E(RCAM-B3LYP) =  -1706.90118411     A.U. after   15 cycles

 Excitation energies and oscillator strengths:

 Excited State   1:      Singlet-A      1.8435 eV  672.54 nm  f=2.9362  <S**2>=0.000
     155 ->158         0.12161
     156 ->157         0.70444
     156 <-157        -0.12934
 This state for optimization and/or second-order correction.
 Total Energy, E(TD-HF/TD-DFT) =  -1706.83343568
 Copying the excited state density for this state as the 1-particle RhoCI density.

 The electronic state is 1-A.
 Alpha  occ. eigenvalues --  -19.21337 -19.20127 -10.32395 -10.29884 -10.27981
 Alpha  occ. eigenvalues --  -10.27623 -10.27548 -10.27507 -10.27318 -10.27276
 Alpha  occ. eigenvalues --  -10.27117 -10.27058 -10.26896 -10.26787 -10.26479
 Alpha  occ. eigenvalues --  -10.26464 -10.26435 -10.26325 -10.26318 -10.26310
 Alpha  occ. eigenvalues --  -10.26243 -10.26017 -10.25938 -10.25828 -10.25744
 Alpha  occ. eigenvalues --  -10.25693 -10.25540 -10.25510 -10.25276 -10.25237
 Alpha  occ. eigenvalues --  -10.25222 -10.25178 -10.25056 -10.24595 -10.24524
 Alpha  occ. eigenvalues --  -10.24411 -10.24183 -10.24011 -10.23977 -10.23959
 Alpha  occ. eigenvalues --  -10.23101 -10.22663  -1.11558  -1.08451  -0.93552
 Alpha  occ. eigenvalues --   -0.93523  -0.92489  -0.91896  -0.90858  -0.90382
 Alpha  occ. eigenvalues --   -0.87882  -0.87087  -0.86812  -0.86111  -0.84487
 Alpha  occ. eigenvalues --   -0.82926  -0.82279  -0.80969  -0.80770  -0.78676
 Alpha  occ. eigenvalues --   -0.76925  -0.76761  -0.76507  -0.76449  -0.75881
 Alpha  occ. eigenvalues --   -0.75523  -0.75385  -0.74753  -0.72578  -0.70969
 Alpha  occ. eigenvalues --   -0.69508  -0.67492  -0.66878  -0.66038  -0.63940
 Alpha  occ. eigenvalues --   -0.63465  -0.62874  -0.62779  -0.60619  -0.60493
 Alpha  occ. eigenvalues --   -0.60196  -0.59677  -0.57827  -0.57061  -0.56900
 Alpha  occ. eigenvalues --   -0.55927  -0.55499  -0.55040  -0.54420  -0.54010
 Alpha  occ. eigenvalues --   -0.53111  -0.52985  -0.52347  -0.52102  -0.51647
 Alpha  occ. eigenvalues --   -0.51320  -0.50740  -0.50254  -0.49799  -0.49608
 Alpha  occ. eigenvalues --   -0.48791  -0.48759  -0.48441  -0.48299  -0.47982
 Alpha  occ. eigenvalues --   -0.47957  -0.47570  -0.47097  -0.46872  -0.46714
 Alpha  occ. eigenvalues --   -0.46458  -0.46085  -0.45578  -0.45404  -0.45174
 Alpha  occ. eigenvalues --   -0.44912  -0.44564  -0.44189  -0.43916  -0.43783
 Alpha  occ. eigenvalues --   -0.43502  -0.43173  -0.42828  -0.42490  -0.42206
 Alpha  occ. eigenvalues --   -0.41997  -0.41720  -0.41276  -0.40940  -0.40586
 Alpha  occ. eigenvalues --   -0.40455  -0.40023  -0.39747  -0.39369  -0.39179
 Alpha  occ. eigenvalues --   -0.39107  -0.38740  -0.38660  -0.38067  -0.37768
 Alpha  occ. eigenvalues --   -0.36960  -0.36831  -0.36722  -0.36231  -0.36106
 Alpha  occ. eigenvalues --   -0.35128  -0.34846  -0.33629  -0.32376  -0.32279
 Alpha  occ. eigenvalues --   -0.31162  -0.29354  -0.28534  -0.26298  -0.23705
 Alpha  occ. eigenvalues --   -0.18122
 Alpha virt. eigenvalues --   -0.06791  -0.00671   0.02281   0.05115   0.06855
 Alpha virt. eigenvalues --    0.09309   0.10747   0.11906   0.12200   0.12560
 Alpha virt. eigenvalues --    0.12967   0.13529   0.14167   0.14207   0.14725

 Mulliken charges:
               1
     1  O   -0.532521
     2  O   -0.547469
     3  C    0.015857
     4  C   -0.128059
     5  C   -0.170351
     6  C    0.127749
     7  C    0.062520
     8  C   -0.033442
     9  C   -0.306551
    10  C   -0.269223
    11  C   -0.180763
    12  C   -0.144075
    13  C    0.135970
    14  C    0.077737
    15  C   -0.084654
    16  C   -0.160466
    17  C   -0.008672
    18  C   -0.304015
    19  C   -0.281896
    20  C   -0.301691
    21  C   -0.091825
    22  C   -0.082807
    23  C   -0.369863
    24  C    0.133811
    25  C   -0.066443
    26  C   -0.384210
    27  C    0.064042
    28  C   -0.144631
    29  C   -0.391688
    30  C   -0.124482
    31  C   -0.029855
    32  C   -0.080525
    33  C   -0.150374
    34  C    0.078442
    35  C   -0.115108
    36  C    0.122676
    37  C   -0.376788
    38  C   -0.079960
    39  C   -0.143961
    40  C   -0.364278
    41  C   -0.081477
    42  C   -0.109015
    43  H    0.063958
    44  H    0.113905
    45  H    0.067976
    46  H    0.067096
    47  H    0.106885
    48  H    0.105598
    49  H    0.096761
    50  H    0.108107
    51  H    0.112663
    52  H    0.066864
    53  H    0.099142
    54  H    0.080766
    55  H    0.062288
    56  H    0.070620
    57  H    0.104901
    58  H    0.116011
    59  H    0.128598
    60  H    0.095125
    61  H    0.078981
    62  H    0.113055
    63  H    0.113499
    64  H    0.072293
    65  H    0.089091
    66  H    0.132552
    67  H    0.099730
    68  H    0.109937
    69  H    0.302453
    70  H    0.087564
    71  H    0.075977
    72  H    0.136128
    73  H    0.115516
    74  H    0.102530
    75  H    0.293650
    76  H    0.067543
    77  H    0.088835
    78  H    0.109869
    79  H    0.125266
    80  H    0.070987
    81  H    0.128808
    82  H    0.112558
    83  H    0.109842
    84  H    0.080250
    85  H    0.073379
    86  H    0.092015
    87  H    0.077628
    88  H    0.066618
    89  H    0.127862
    90  H    0.118436
    91  H    0.120132
    92  H    0.083692
    93  H    0.092973
    94  H    0.112623
    95  H    0.113751
    96  H    0.112528
    97  H    0.066459
    98  H    0.080056
 Sum of Mulliken charges =  -0.00000

 Dipole moment (field-independent basis, Debye):
    X=              2.0959    Y=             -1.1958    Z=             -1.0786  Tot=              2.6432
 Quadrupole moment (field-independent basis, Debye-Ang):
   XX=           -267.5403   YY=           -240.1531   ZZ=           -260.3073
   XY=             -0.2085   XZ=             35.1862   YZ=              2.1114

 Normal termination of Gaussian 16 at Sun Jul 14 04:06:28 2019.
