 Gaussian 16, Revision A.03,
 Gaussian 16:  ES64L-G16RevA.03 25-Dec-2016

 -------------------------------------
 # td=(NStates=1) CAM-B3LYP/6-31G(d,p)
 -------------------------------------

 --
 TD
 --
 Symbolic Z-matrix:
 Charge =  0 Multiplicity = 1

                         Standard orientation:
 ---------------------------------------------------------------------
 Center     Atomic      Atomic             Coordinates (Angstroms)
 Number     Number       Type             X           Y           Z
 ---------------------------------------------------------------------
      1          8           0      -14.108817   -2.171819    0.204326
      2          8           0       14.769137    1.048056   -0.050194
      3          6           0      -11.860121    0.079266    1.243314
      4          6           0      -11.062879    0.456014    0.017167
      5          6           0      -12.031914   -1.397157    1.364050
      6          6           0      -12.709111   -2.177607    0.115783
      7          6           0      -11.467505   -0.349580   -1.235223
      8          6           0       11.128867    0.898111    1.147142
      9          6           0      -11.120043    0.553911    2.464408
     10          6           0      -13.187618    0.754316    1.184257
     11          6           0       12.562308    1.515649    0.825800
     12          6           0      -12.160012   -1.494788   -1.168416
     13          6           0       13.458622    0.571979    0.178158
     14          6           0       10.656317   -0.075418    0.008227
     15          6           0       -9.467709    0.025901    0.110539
     16          6           0       12.944620    0.041723   -1.144054
     17          6           0       11.508413   -0.523498   -1.011008
     18          6           0       10.171596    2.204539    1.241575
     19          6           0       11.151707    0.186628    2.509488
     20          6           0      -11.217779    0.256050   -2.586632
     21          6           0       -8.465990    0.825619   -0.104639
     22          6           0        9.270236   -0.454947    0.159393
     23          6           0       11.035146   -1.299953   -2.267011
     24          6           0       -7.098476    0.531224   -0.089528
     25          6           0        8.737827   -1.713859   -0.043921
     26          6           0       -6.744478   -0.860677    0.418216
     27          6           0        7.443431   -2.206915    0.022595
     28          6           0       -6.187549    1.460504   -0.351662
     29          6           0        7.228424   -3.737830    0.170074
     30          6           0        6.349537   -1.377119    0.029276
     31          6           0       -4.816059    1.401122   -0.414070
     32          6           0        4.983313   -1.618904    0.067889
     33          6           0       -4.011336    2.549871   -0.683216
     34          6           0       -2.572704    2.552433   -0.629755
     35          6           0        3.993340   -0.679121   -0.211357
     36          6           0        2.631164   -0.833585   -0.196360
     37          6           0       -1.971645    3.909652   -0.862904
     38          6           0       -1.758128    1.405445   -0.540048
     39          6           0        1.832358    0.216204   -0.297492
     40          6           0        2.087907   -2.181737    0.174072
     41          6           0       -0.338349    1.485875   -0.410001
     42          6           0        0.420593    0.306808   -0.236074
     43          1           0      -10.857146    1.678216   -0.221739
     44          1           0      -12.710191   -1.692832    2.296718
     45          1           0      -11.038953   -1.846576    1.554315
     46          1           0      -12.345834   -3.202956    0.286935
     47          1           0       -9.928651    0.446517    2.378040
     48          1           0      -11.212528    1.803029    2.729339
     49          1           0      -11.645514    0.231004    3.515757
     50          1           0      -13.775285    0.557406    0.299313
     51          1           0      -13.810500    0.721426    2.028355
     52          1           0      -12.960577    1.885297    1.292212
     53          1           0       12.260151    2.489468    0.158391
     54          1           0       12.958098    1.857155    1.754063
     55          1           0      -12.769719   -1.889165   -1.989090
     56          1           0       13.338801   -0.258138    0.728529
     57          1           0       -9.136604   -0.931324    0.250278
     58          1           0       13.585501   -0.696614   -1.643513
     59          1           0       12.959387    0.882249   -2.043789
     60          1           0        9.180201    2.041326    1.698195
     61          1           0        9.988523    2.592165    0.092057
     62          1           0       10.713339    3.093139    1.652591
     63          1           0       11.800994   -0.802325    2.509404
     64          1           0       10.105470   -0.189835    2.720832
     65          1           0       11.422085    0.778783    3.181924
     66          1           0      -10.274970    0.396654   -2.746875
     67          1           0      -11.624217    1.338787   -2.611362
     68          1           0      -11.528692   -0.217829   -3.355221
     69          1           0      -14.405779   -2.290100   -0.672191
     70          1           0        8.648586    0.419583    0.495302
     71          1           0       -8.592719    1.901091   -0.259228
     72          1           0       11.672502   -2.375257   -2.378019
     73          1           0        9.954675   -1.390865   -2.627292
     74          1           0       11.584923   -0.902818   -3.185274
     75          1           0       15.266588    1.180041    0.921703
     76          1           0        9.631783   -2.430963   -0.230139
     77          1           0       -5.861342   -1.061908    0.433151
     78          1           0       -7.130482   -1.104258    1.342123
     79          1           0       -7.186778   -1.727572   -0.158683
     80          1           0       -6.457718    2.542693   -0.481292
     81          1           0        7.187336   -3.854617    1.232378
     82          1           0        6.227922   -4.054132   -0.274744
     83          1           0        8.174496   -4.285786   -0.135794
     84          1           0        6.694783   -0.291308   -0.177975
     85          1           0       -4.456871    0.306476   -0.556390
     86          1           0        4.784986   -2.535642    0.305285
     87          1           0       -4.416076    3.388163   -0.666190
     88          1           0        4.324951    0.348249   -0.438327
     89          1           0       -1.543017    3.920752   -2.030716
     90          1           0       -0.901330    4.129404   -0.204810
     91          1           0       -2.616876    4.871775   -0.954751
     92          1           0       -2.427619    0.418580   -0.373484
     93          1           0        2.351189    1.269916   -0.268396
     94          1           0        2.246776   -2.418193    1.226820
     95          1           0        0.922597   -2.248142   -0.187244
     96          1           0        2.576057   -3.027110   -0.444146
     97          1           0        0.062256    2.518071   -0.430430
     98          1           0       -0.369452   -0.527930   -0.378294
 ---------------------------------------------------------------------

 SCF Done:  E(RCAM-B3LYP) =  -1706.87434177     A.U. after   15 cycles

 Excitation energies and oscillator strengths:

 Excited State   1:      Singlet-A      2.0300 eV  610.76 nm  f=3.1350  <S**2>=0.000
     155 ->158         0.15767
     156 ->157         0.68891
 This state for optimization and/or second-order correction.
 Total Energy, E(TD-HF/TD-DFT) =  -1706.79974048
 Copying the excited state density for this state as the 1-particle RhoCI density.

 The electronic state is 1-A.
 Alpha  occ. eigenvalues --  -19.22302 -19.21486 -10.31019 -10.29740 -10.29231
 Alpha  occ. eigenvalues --  -10.28935 -10.28471 -10.28157 -10.28024 -10.27970
 Alpha  occ. eigenvalues --  -10.27570 -10.27523 -10.27364 -10.27344 -10.27303
 Alpha  occ. eigenvalues --  -10.27266 -10.26960 -10.26831 -10.26775 -10.26743
 Alpha  occ. eigenvalues --  -10.26699 -10.26628 -10.26612 -10.26520 -10.26161
 Alpha  occ. eigenvalues --  -10.26105 -10.26097 -10.26052 -10.25974 -10.25897
 Alpha  occ. eigenvalues --  -10.25764 -10.25699 -10.25648 -10.25527 -10.25412
 Alpha  occ. eigenvalues --  -10.25363 -10.24961 -10.24746 -10.24280 -10.23644
 Alpha  occ. eigenvalues --  -10.23311 -10.23204  -1.11078  -1.07864  -0.94126
 Alpha  occ. eigenvalues --   -0.92861  -0.92741  -0.92426  -0.90885  -0.90289
 Alpha  occ. eigenvalues --   -0.87834  -0.87271  -0.85919  -0.85584  -0.84680
 Alpha  occ. eigenvalues --   -0.83024  -0.81975  -0.81057  -0.79612  -0.78566
 Alpha  occ. eigenvalues --   -0.77526  -0.76642  -0.76315  -0.75667  -0.75508
 Alpha  occ. eigenvalues --   -0.75198  -0.74547  -0.73441  -0.72758  -0.71277
 Alpha  occ. eigenvalues --   -0.69632  -0.68068  -0.66943  -0.64819  -0.64041
 Alpha  occ. eigenvalues --   -0.63503  -0.62926  -0.62664  -0.60791  -0.60187
 Alpha  occ. eigenvalues --   -0.59452  -0.58972  -0.58540  -0.57642  -0.56095
 Alpha  occ. eigenvalues --   -0.55382  -0.54362  -0.54246  -0.54059  -0.53885
 Alpha  occ. eigenvalues --   -0.53526  -0.53296  -0.52762  -0.51954  -0.51494
 Alpha  occ. eigenvalues --   -0.50448  -0.49898  -0.49482  -0.49284  -0.48950
 Alpha  occ. eigenvalues --   -0.48823  -0.48687  -0.48202  -0.47934  -0.47805
 Alpha  occ. eigenvalues --   -0.47421  -0.47244  -0.46961  -0.46561  -0.46117
 Alpha  occ. eigenvalues --   -0.46003  -0.45875  -0.45374  -0.45284  -0.45214
 Alpha  occ. eigenvalues --   -0.44774  -0.44652  -0.43939  -0.43414  -0.43218
 Alpha  occ. eigenvalues --   -0.43068  -0.42668  -0.42303  -0.42197  -0.41957
 Alpha  occ. eigenvalues --   -0.41577  -0.41019  -0.40606  -0.40377  -0.40260
 Alpha  occ. eigenvalues --   -0.40181  -0.39790  -0.39706  -0.39326  -0.38956
 Alpha  occ. eigenvalues --   -0.38802  -0.38599  -0.38402  -0.38171  -0.38031
 Alpha  occ. eigenvalues --   -0.37834  -0.37125  -0.36529  -0.36313  -0.35657
 Alpha  occ. eigenvalues --   -0.35594  -0.35041  -0.34363  -0.32571  -0.32394
 Alpha  occ. eigenvalues --   -0.32297  -0.29946  -0.28962  -0.26994  -0.23265
 Alpha  occ. eigenvalues --   -0.19244
 Alpha virt. eigenvalues --   -0.06319  -0.01772   0.02722   0.05101   0.06676
 Alpha virt. eigenvalues --    0.08946   0.09644   0.11155   0.11634   0.12580
 Alpha virt. eigenvalues --    0.12932   0.13230   0.13529   0.13772   0.13966

 Mulliken charges:
               1
     1  O   -0.525148
     2  O   -0.568421
     3  C    0.057286
     4  C   -0.127107
     5  C   -0.186216
     6  C    0.147283
     7  C    0.136333
     8  C   -0.024150
     9  C   -0.296920
    10  C   -0.284045
    11  C   -0.172590
    12  C   -0.175793
    13  C    0.195799
    14  C    0.048508
    15  C   -0.123503
    16  C   -0.215570
    17  C    0.054781
    18  C   -0.328198
    19  C   -0.280425
    20  C   -0.336816
    21  C   -0.065881
    22  C   -0.103965
    23  C   -0.364119
    24  C    0.129392
    25  C   -0.134193
    26  C   -0.363912
    27  C    0.100397
    28  C   -0.138065
    29  C   -0.373716
    30  C   -0.123383
    31  C   -0.074547
    32  C   -0.061564
    33  C   -0.091054
    34  C    0.107531
    35  C   -0.120098
    36  C    0.165904
    37  C   -0.375410
    38  C   -0.119057
    39  C   -0.140289
    40  C   -0.369372
    41  C   -0.073741
    42  C   -0.101929
    43  H    0.089949
    44  H    0.093543
    45  H    0.091877
    46  H    0.083457
    47  H    0.106182
    48  H    0.055633
    49  H    0.088378
    50  H    0.111666
    51  H    0.109134
    52  H    0.071571
    53  H    0.077167
    54  H    0.081516
    55  H    0.063453
    56  H    0.092312
    57  H    0.080935
    58  H    0.111101
    59  H    0.089604
    60  H    0.109059
    61  H    0.089977
    62  H    0.109183
    63  H    0.087044
    64  H    0.102829
    65  H    0.110994
    66  H    0.131883
    67  H    0.095802
    68  H    0.113715
    69  H    0.300825
    70  H    0.086721
    71  H    0.064676
    72  H    0.077925
    73  H    0.132543
    74  H    0.106948
    75  H    0.301855
    76  H    0.084772
    77  H    0.098578
    78  H    0.134714
    79  H    0.103726
    80  H    0.076032
    81  H    0.136704
    82  H    0.113646
    83  H    0.110550
    84  H    0.064830
    85  H    0.085066
    86  H    0.059332
    87  H    0.063232
    88  H    0.076043
    89  H    0.103315
    90  H    0.093185
    91  H    0.114207
    92  H    0.079143
    93  H    0.079594
    94  H    0.134851
    95  H    0.091135
    96  H    0.101916
    97  H    0.085102
    98  H    0.086854
 Sum of Mulliken charges =  -0.00000

 Dipole moment (field-independent basis, Debye):
    X=             -0.0590    Y=             -0.0575    Z=              0.1920  Tot=              0.2090
 Quadrupole moment (field-independent basis, Debye-Ang):
   XX=           -273.2458   YY=           -247.7637   ZZ=           -259.6410
   XY=             -5.2067   XZ=             44.8578   YZ=              2.8491

 Normal termination of Gaussian 16 at Sun Jul 14 10:08:49 2019.
