 Gaussian 16, Revision A.03,
 Gaussian 16:  ES64L-G16RevA.03 25-Dec-2016

 -------------------------------------
 # td=(NStates=1) CAM-B3LYP/6-31G(d,p)
 -------------------------------------

 --
 TD
 --
 Symbolic Z-matrix:
 Charge =  0 Multiplicity = 1

                         Standard orientation:
 ---------------------------------------------------------------------
 Center     Atomic      Atomic             Coordinates (Angstroms)
 Number     Number       Type             X           Y           Z
 ---------------------------------------------------------------------
      1          8           0      -14.287862   -1.757631    0.704591
      2          8           0       14.835330    0.989800    0.109190
      3          6           0      -11.840707    0.261777    1.154633
      4          6           0      -11.031656    0.374859   -0.103072
      5          6           0      -12.128296   -1.267600    1.502558
      6          6           0      -12.922395   -2.043956    0.444298
      7          6           0      -11.660556   -0.510110   -1.247909
      8          6           0       11.177040    1.024258    0.970540
      9          6           0      -10.994232    0.853936    2.260713
     10          6           0      -13.071542    1.116415    0.971006
     11          6           0       12.508447    1.562453    0.687449
     12          6           0      -12.515388   -1.580492   -0.957563
     13          6           0       13.466658    0.414209    0.349691
     14          6           0       10.650848   -0.001199   -0.095546
     15          6           0       -9.582056   -0.031031   -0.061997
     16          6           0       13.023911   -0.194246   -0.832280
     17          6           0       11.592607   -0.533326   -0.953047
     18          6           0       10.187654    2.283073    0.904957
     19          6           0       11.115927    0.514547    2.322201
     20          6           0      -11.358188   -0.017640   -2.598883
     21          6           0       -8.512037    0.881602   -0.126642
     22          6           0        9.289701   -0.487647    0.053791
     23          6           0       11.348412   -1.294595   -2.153072
     24          6           0       -7.143957    0.471529   -0.126290
     25          6           0        8.845416   -1.660815   -0.040542
     26          6           0       -6.768655   -0.963183    0.194484
     27          6           0        7.474736   -2.102086    0.041871
     28          6           0       -6.177481    1.396132   -0.360224
     29          6           0        7.149413   -3.544628    0.388542
     30          6           0        6.449259   -1.179771   -0.070929
     31          6           0       -4.788424    1.295277   -0.227665
     32          6           0        5.053741   -1.479034   -0.036090
     33          6           0       -3.994080    2.358060   -0.487695
     34          6           0       -2.611395    2.331739   -0.619587
     35          6           0        4.031621   -0.596066   -0.319771
     36          6           0        2.632400   -0.938676   -0.103480
     37          6           0       -1.949442    3.685320   -1.130269
     38          6           0       -1.710531    1.270821   -0.601295
     39          6           0        1.704262    0.153519   -0.189135
     40          6           0        2.227465   -2.306946    0.231900
     41          6           0       -0.342226    1.252878   -0.587334
     42          6           0        0.361024    0.127372   -0.419942
     43          1           0      -11.160085    1.536012   -0.343754
     44          1           0      -12.640299   -1.272704    2.495907
     45          1           0      -11.123392   -1.683203    1.629742
     46          1           0      -12.754060   -3.213402    0.473434
     47          1           0       -9.795298    0.543362    2.394456
     48          1           0      -10.953844    1.813353    2.264396
     49          1           0      -11.468970    0.633351    3.352984
     50          1           0      -13.688050    0.573716    0.136156
     51          1           0      -13.619904    0.871334    1.740472
     52          1           0      -13.005166    2.286326    0.820201
     53          1           0       12.571460    2.299452    0.087704
     54          1           0       13.101349    2.247176    1.611767
     55          1           0      -12.841882   -2.273561   -1.756342
     56          1           0       13.593887   -0.281032    1.227990
     57          1           0       -9.431564   -1.120479    0.104292
     58          1           0       13.581829   -1.230357   -1.048941
     59          1           0       13.448203    0.602574   -1.714603
     60          1           0        9.152334    2.081234    1.303548
     61          1           0       10.114842    2.572694   -0.108203
     62          1           0       10.786442    3.107498    1.688643
     63          1           0       11.875800   -0.185998    2.698067
     64          1           0       10.180754    0.034758    2.656052
     65          1           0       11.301021    1.368001    3.233938
     66          1           0      -10.448136    0.163093   -3.098781
     67          1           0      -11.885942    0.976124   -2.758470
     68          1           0      -11.980936   -0.869164   -3.117062
     69          1           0      -14.776584   -2.393756   -0.060392
     70          1           0        8.534971    0.403313    0.190908
     71          1           0       -8.725366    1.868302   -0.529951
     72          1           0       12.133160   -2.235299   -1.924348
     73          1           0       10.314058   -1.762308   -2.299448
     74          1           0       11.914586   -0.873944   -3.024962
     75          1           0       15.114957    1.421547    0.913475
     76          1           0        9.533437   -2.392966   -0.165193
     77          1           0       -5.618578   -0.952982    0.002651
     78          1           0       -6.913404   -1.277617    1.241604
     79          1           0       -7.201658   -1.776142   -0.461012
     80          1           0       -6.380987    2.362186   -0.732974
     81          1           0        7.000364   -3.577409    1.333878
     82          1           0        6.312535   -3.942980   -0.254091
     83          1           0        7.964012   -3.951966    0.207790
     84          1           0        6.722187   -0.161990   -0.265632
     85          1           0       -4.288236    0.282441    0.119637
     86          1           0        4.771991   -2.503901    0.152832
     87          1           0       -4.453487    3.333302   -0.527140
     88          1           0        4.188916    0.560332   -0.357216
     89          1           0       -1.346850    3.516365   -2.030199
     90          1           0       -1.043565    4.033608   -0.573906
     91          1           0       -2.636359    4.497465   -1.238201
     92          1           0       -2.247961    0.243846   -0.340849
     93          1           0        2.187957    1.125285   -0.267713
     94          1           0        2.830819   -2.826206    1.070325
     95          1           0        1.147360   -2.310797    0.688863
     96          1           0        2.464649   -2.926557   -0.732464
     97          1           0        0.386054    2.175735   -0.500190
     98          1           0       -0.302913   -0.774787   -0.290172
 ---------------------------------------------------------------------

 SCF Done:  E(RCAM-B3LYP) =  -1706.90096667     A.U. after   15 cycles

 Excitation energies and oscillator strengths:

 Excited State   1:      Singlet-A      2.0803 eV  595.99 nm  f=3.1526  <S**2>=0.000
     155 ->158        -0.14061
     156 ->157         0.69490
 This state for optimization and/or second-order correction.
 Total Energy, E(TD-HF/TD-DFT) =  -1706.82451636
 Copying the excited state density for this state as the 1-particle RhoCI density.

 The electronic state is 1-A.
 Alpha  occ. eigenvalues --  -19.22912 -19.20289 -10.32037 -10.30380 -10.28235
 Alpha  occ. eigenvalues --  -10.27774 -10.27593 -10.27440 -10.27237 -10.27149
 Alpha  occ. eigenvalues --  -10.27141 -10.27111 -10.27008 -10.26982 -10.26972
 Alpha  occ. eigenvalues --  -10.26896 -10.26881 -10.26757 -10.26683 -10.26552
 Alpha  occ. eigenvalues --  -10.26371 -10.26363 -10.26354 -10.26328 -10.26242
 Alpha  occ. eigenvalues --  -10.26240 -10.26172 -10.25987 -10.25953 -10.25842
 Alpha  occ. eigenvalues --  -10.25804 -10.25690 -10.25446 -10.25406 -10.25309
 Alpha  occ. eigenvalues --  -10.25248 -10.25216 -10.24978 -10.24568 -10.24143
 Alpha  occ. eigenvalues --  -10.23227 -10.23124  -1.08452  -1.07157  -0.95176
 Alpha  occ. eigenvalues --   -0.93331  -0.92475  -0.92141  -0.91448  -0.89836
 Alpha  occ. eigenvalues --   -0.88615  -0.88051  -0.86677  -0.86561  -0.84639
 Alpha  occ. eigenvalues --   -0.83178  -0.82417  -0.81981  -0.80289  -0.78267
 Alpha  occ. eigenvalues --   -0.77299  -0.76183  -0.76134  -0.75818  -0.75605
 Alpha  occ. eigenvalues --   -0.75390  -0.74834  -0.74687  -0.72900  -0.70366
 Alpha  occ. eigenvalues --   -0.69103  -0.67058  -0.66356  -0.64979  -0.63723
 Alpha  occ. eigenvalues --   -0.63460  -0.62303  -0.61947  -0.60835  -0.60189
 Alpha  occ. eigenvalues --   -0.59893  -0.59201  -0.57857  -0.57156  -0.56138
 Alpha  occ. eigenvalues --   -0.55568  -0.55376  -0.54792  -0.54601  -0.53695
 Alpha  occ. eigenvalues --   -0.53492  -0.52781  -0.52451  -0.51933  -0.51649
 Alpha  occ. eigenvalues --   -0.51277  -0.50798  -0.50104  -0.49650  -0.49289
 Alpha  occ. eigenvalues --   -0.49020  -0.48547  -0.48372  -0.48078  -0.47811
 Alpha  occ. eigenvalues --   -0.47515  -0.47189  -0.46965  -0.46564  -0.46319
 Alpha  occ. eigenvalues --   -0.45894  -0.45738  -0.45455  -0.45093  -0.44718
 Alpha  occ. eigenvalues --   -0.44625  -0.44200  -0.43842  -0.43560  -0.43406
 Alpha  occ. eigenvalues --   -0.43292  -0.42806  -0.42605  -0.42208  -0.41696
 Alpha  occ. eigenvalues --   -0.41461  -0.41381  -0.41117  -0.41089  -0.40773
 Alpha  occ. eigenvalues --   -0.40357  -0.39874  -0.39550  -0.39419  -0.39381
 Alpha  occ. eigenvalues --   -0.39098  -0.38607  -0.38421  -0.38236  -0.37714
 Alpha  occ. eigenvalues --   -0.37412  -0.36810  -0.36595  -0.36400  -0.35899
 Alpha  occ. eigenvalues --   -0.35363  -0.35020  -0.33842  -0.32571  -0.31955
 Alpha  occ. eigenvalues --   -0.31379  -0.29311  -0.28825  -0.26695  -0.23909
 Alpha  occ. eigenvalues --   -0.19042
 Alpha virt. eigenvalues --   -0.06018  -0.01187   0.02350   0.04554   0.06041
 Alpha virt. eigenvalues --    0.08066   0.09772   0.09994   0.10802   0.11721
 Alpha virt. eigenvalues --    0.11894   0.12341   0.12945   0.13238   0.13638

 Mulliken charges:
               1
     1  O   -0.525546
     2  O   -0.581963
     3  C    0.011622
     4  C   -0.110907
     5  C   -0.185309
     6  C    0.130298
     7  C    0.096064
     8  C   -0.003760
     9  C   -0.286131
    10  C   -0.292662
    11  C   -0.148477
    12  C   -0.140574
    13  C    0.150659
    14  C    0.034825
    15  C   -0.075474
    16  C   -0.202537
    17  C    0.078999
    18  C   -0.294343
    19  C   -0.284839
    20  C   -0.348551
    21  C   -0.108395
    22  C   -0.078388
    23  C   -0.350369
    24  C    0.116704
    25  C   -0.090638
    26  C   -0.370186
    27  C    0.027196
    28  C   -0.120808
    29  C   -0.333241
    30  C   -0.093305
    31  C   -0.056630
    32  C   -0.092216
    33  C   -0.138323
    34  C    0.105850
    35  C   -0.122190
    36  C    0.122262
    37  C   -0.384924
    38  C   -0.151367
    39  C   -0.161017
    40  C   -0.374742
    41  C   -0.052796
    42  C   -0.043226
    43  H    0.073305
    44  H    0.108217
    45  H    0.100120
    46  H    0.069412
    47  H    0.079973
    48  H    0.110966
    49  H    0.062429
    50  H    0.108464
    51  H    0.116282
    52  H    0.086418
    53  H    0.111376
    54  H    0.031473
    55  H    0.074494
    56  H    0.092303
    57  H    0.094699
    58  H    0.091439
    59  H    0.103354
    60  H    0.103637
    61  H    0.114134
    62  H    0.070216
    63  H    0.100352
    64  H    0.107134
    65  H    0.058712
    66  H    0.135577
    67  H    0.114733
    68  H    0.089086
    69  H    0.301173
    70  H    0.074417
    71  H    0.084418
    72  H    0.074177
    73  H    0.117889
    74  H    0.131044
    75  H    0.300466
    76  H    0.075344
    77  H    0.092536
    78  H    0.124514
    79  H    0.116616
    80  H    0.077425
    81  H    0.141980
    82  H    0.113414
    83  H    0.107524
    84  H    0.073642
    85  H    0.087798
    86  H    0.077824
    87  H    0.090319
    88  H    0.080650
    89  H    0.125393
    90  H    0.107081
    91  H    0.105097
    92  H    0.060142
    93  H    0.075664
    94  H    0.116305
    95  H    0.109101
    96  H    0.118940
    97  H    0.079162
    98  H    0.080992
 Sum of Mulliken charges =  -0.00000

 Dipole moment (field-independent basis, Debye):
    X=             -0.3210    Y=             -1.8064    Z=             -0.0985  Tot=              1.8373
 Quadrupole moment (field-independent basis, Debye-Ang):
   XX=           -280.9691   YY=           -241.8387   ZZ=           -264.8611
   XY=              7.9516   XZ=             33.4249   YZ=             -0.1182

 Normal termination of Gaussian 16 at Fri Jul 12 20:43:37 2019.
