 Gaussian 16, Revision A.03,
 Gaussian 16:  ES64L-G16RevA.03 25-Dec-2016

 -------------------------------------
 # td=(NStates=1) CAM-B3LYP/6-31G(d,p)
 -------------------------------------

 --
 TD
 --
 Symbolic Z-matrix:
 Charge =  0 Multiplicity = 1

                         Standard orientation:
 ---------------------------------------------------------------------
 Center     Atomic      Atomic             Coordinates (Angstroms)
 Number     Number       Type             X           Y           Z
 ---------------------------------------------------------------------
      1          8           0      -14.028946   -1.987293    0.592123
      2          8           0       14.757453    1.107025    0.386398
      3          6           0      -11.757105    0.042541    1.352863
      4          6           0      -10.944643    0.301660   -0.015269
      5          6           0      -11.825980   -1.516568    1.491322
      6          6           0      -12.656222   -2.187062    0.294505
      7          6           0      -11.641131   -0.391180   -1.113086
      8          6           0       10.984224    1.012132    1.132558
      9          6           0      -10.766083    0.515899    2.504496
     10          6           0      -13.025340    0.678638    1.468848
     11          6           0       12.398300    1.453232    0.874479
     12          6           0      -12.300769   -1.551224   -0.946019
     13          6           0       13.490586    0.459694    0.528078
     14          6           0       10.696547   -0.165664    0.081662
     15          6           0       -9.486938   -0.003274   -0.003599
     16          6           0       13.047603   -0.203542   -0.794210
     17          6           0       11.659594   -0.570576   -0.813101
     18          6           0       10.014657    2.105990    0.949899
     19          6           0       10.943827    0.189235    2.439939
     20          6           0      -11.296527    0.191608   -2.549265
     21          6           0       -8.452593    0.915485   -0.249201
     22          6           0        9.282489   -0.466489    0.101809
     23          6           0       11.256822   -1.508840   -1.948221
     24          6           0       -7.147577    0.539482   -0.284704
     25          6           0        8.750196   -1.803427   -0.035150
     26          6           0       -6.723753   -0.840698    0.050510
     27          6           0        7.344356   -2.155458   -0.172964
     28          6           0       -6.240255    1.575263   -0.499064
     29          6           0        7.033564   -3.610702    0.007039
     30          6           0        6.405353   -1.190872   -0.273192
     31          6           0       -4.720493    1.497751   -0.288446
     32          6           0        4.999036   -1.535146   -0.350242
     33          6           0       -3.948000    2.519955   -0.610525
     34          6           0       -2.598761    2.708732   -0.639638
     35          6           0        4.007810   -0.555154   -0.345982
     36          6           0        2.605688   -0.699533   -0.290115
     37          6           0       -1.921879    3.937537   -0.949035
     38          6           0       -1.788436    1.599569   -0.610405
     39          6           0        1.722729    0.396126   -0.444787
     40          6           0        1.987119   -2.134410   -0.022765
     41          6           0       -0.351027    1.487241   -0.613921
     42          6           0        0.309227    0.362958   -0.514317
     43          1           0      -11.123924    1.313878   -0.147201
     44          1           0      -12.356802   -1.999809    2.369129
     45          1           0      -10.828687   -2.056024    1.723787
     46          1           0      -12.279061   -3.223595    0.394213
     47          1           0       -9.773773   -0.017652    2.635691
     48          1           0      -10.545825    1.538921    2.482600
     49          1           0      -11.241334    0.436097    3.396324
     50          1           0      -13.899309    0.418682    0.782282
     51          1           0      -13.636472    0.449767    2.278700
     52          1           0      -12.833713    1.746685    1.513042
     53          1           0       12.459277    2.141350    0.110108
     54          1           0       12.721475    1.864649    1.827956
     55          1           0      -12.577508   -2.089941   -1.917034
     56          1           0       13.477775   -0.328985    1.379435
     57          1           0       -9.301688   -1.135441    0.117619
     58          1           0       13.607308   -1.153620   -1.217334
     59          1           0       13.450306    0.578304   -1.663222
     60          1           0        9.033269    1.926445    1.434930
     61          1           0        9.720305    2.282380   -0.154523
     62          1           0       10.419231    3.150194    1.318923
     63          1           0       11.689201   -0.523991    2.336756
     64          1           0        9.971252   -0.144347    2.570313
     65          1           0       11.245307    0.958929    3.344853
     66          1           0      -10.094876    0.104869   -2.524820
     67          1           0      -11.784699    1.189881   -2.521273
     68          1           0      -11.954055   -0.420209   -3.366989
     69          1           0      -14.543316   -2.472040   -0.319848
     70          1           0        8.483893    0.146164    0.477338
     71          1           0       -8.635370    1.966475   -0.234476
     72          1           0       11.601284   -2.492604   -1.382001
     73          1           0       10.141037   -1.346787   -2.239807
     74          1           0       11.916211   -1.349375   -2.813232
     75          1           0       15.054774    1.654839    1.170036
     76          1           0        9.487441   -2.609871   -0.316029
     77          1           0       -5.656587   -0.880265   -0.285308
     78          1           0       -6.848484   -1.049728    1.122803
     79          1           0       -7.434599   -1.611371   -0.312947
     80          1           0       -6.759412    2.554671   -0.923738
     81          1           0        6.912658   -3.958685    1.027961
     82          1           0        6.270797   -3.838420   -0.828029
     83          1           0        8.049402   -4.046916   -0.347232
     84          1           0        6.614190   -0.174682   -0.363955
     85          1           0       -4.212123    0.578942    0.171921
     86          1           0        4.456292   -2.580755   -0.192754
     87          1           0       -4.588396    3.324509   -0.907631
     88          1           0        4.379805    0.566857   -0.350878
     89          1           0       -1.513623    3.787162   -1.943560
     90          1           0       -1.050407    4.206723   -0.475248
     91          1           0       -2.689063    4.726515   -1.139416
     92          1           0       -2.251124    0.593269   -0.506860
     93          1           0        2.040570    1.371533   -0.671947
     94          1           0        2.326320   -2.561594    0.863987
     95          1           0        0.775533   -2.064234    0.080557
     96          1           0        2.207878   -2.681959   -0.914401
     97          1           0        0.224333    2.516471   -0.808805
     98          1           0       -0.228245   -0.645545   -0.373646
 ---------------------------------------------------------------------

 SCF Done:  E(RCAM-B3LYP) =  -1706.97822384     A.U. after   15 cycles

 Excitation energies and oscillator strengths:

 Excited State   1:      Singlet-A      2.2960 eV  540.00 nm  f=3.1743  <S**2>=0.000
     155 ->158        -0.18488
     156 ->157         0.67847
 This state for optimization and/or second-order correction.
 Total Energy, E(TD-HF/TD-DFT) =  -1706.89384782
 Copying the excited state density for this state as the 1-particle RhoCI density.

 The electronic state is 1-A.
 Alpha  occ. eigenvalues --  -19.22846 -19.21940 -10.31707 -10.29978 -10.28079
 Alpha  occ. eigenvalues --  -10.27820 -10.27600 -10.27414 -10.27279 -10.27105
 Alpha  occ. eigenvalues --  -10.27032 -10.27019 -10.26892 -10.26877 -10.26810
 Alpha  occ. eigenvalues --  -10.26807 -10.26756 -10.26634 -10.26577 -10.26533
 Alpha  occ. eigenvalues --  -10.26455 -10.26412 -10.26340 -10.26315 -10.26220
 Alpha  occ. eigenvalues --  -10.26182 -10.26171 -10.26059 -10.26009 -10.25635
 Alpha  occ. eigenvalues --  -10.25627 -10.25623 -10.25532 -10.25301 -10.25112
 Alpha  occ. eigenvalues --  -10.24957 -10.24613 -10.24499 -10.24389 -10.23661
 Alpha  occ. eigenvalues --  -10.22570 -10.22484  -1.08641  -1.07505  -0.94101
 Alpha  occ. eigenvalues --   -0.93340  -0.93040  -0.91493  -0.91136  -0.90332
 Alpha  occ. eigenvalues --   -0.87845  -0.87495  -0.86099  -0.85067  -0.84576
 Alpha  occ. eigenvalues --   -0.82783  -0.82022  -0.79674  -0.79505  -0.78226
 Alpha  occ. eigenvalues --   -0.77121  -0.76959  -0.76135  -0.76037  -0.75510
 Alpha  occ. eigenvalues --   -0.75419  -0.74653  -0.73817  -0.73070  -0.70443
 Alpha  occ. eigenvalues --   -0.68978  -0.67054  -0.66175  -0.65137  -0.63892
 Alpha  occ. eigenvalues --   -0.62536  -0.62320  -0.61800  -0.60186  -0.59602
 Alpha  occ. eigenvalues --   -0.58977  -0.58609  -0.57448  -0.56999  -0.55962
 Alpha  occ. eigenvalues --   -0.55842  -0.55167  -0.54806  -0.54179  -0.53626
 Alpha  occ. eigenvalues --   -0.53499  -0.52628  -0.52299  -0.51972  -0.51189
 Alpha  occ. eigenvalues --   -0.50815  -0.50637  -0.50189  -0.49922  -0.49534
 Alpha  occ. eigenvalues --   -0.48934  -0.48870  -0.48688  -0.48365  -0.47580
 Alpha  occ. eigenvalues --   -0.47469  -0.47332  -0.47033  -0.46303  -0.46064
 Alpha  occ. eigenvalues --   -0.45719  -0.45604  -0.44897  -0.44343  -0.44021
 Alpha  occ. eigenvalues --   -0.43979  -0.43893  -0.43687  -0.43615  -0.43439
 Alpha  occ. eigenvalues --   -0.43211  -0.42695  -0.42477  -0.42146  -0.41794
 Alpha  occ. eigenvalues --   -0.41336  -0.41310  -0.41145  -0.40967  -0.40866
 Alpha  occ. eigenvalues --   -0.40804  -0.40403  -0.39954  -0.39394  -0.39349
 Alpha  occ. eigenvalues --   -0.39237  -0.38956  -0.38553  -0.38361  -0.38267
 Alpha  occ. eigenvalues --   -0.37834  -0.37694  -0.36922  -0.35742  -0.35088
 Alpha  occ. eigenvalues --   -0.34666  -0.33116  -0.32765  -0.32624  -0.31780
 Alpha  occ. eigenvalues --   -0.31455  -0.28980  -0.28793  -0.26001  -0.23035
 Alpha  occ. eigenvalues --   -0.19847
 Alpha virt. eigenvalues --   -0.05265  -0.01400   0.01962   0.05231   0.06841
 Alpha virt. eigenvalues --    0.08763   0.09769   0.11146   0.11736   0.11947
 Alpha virt. eigenvalues --    0.12610   0.12933   0.13057   0.13423   0.13632

 Mulliken charges:
               1
     1  O   -0.530764
     2  O   -0.574953
     3  C    0.041487
     4  C   -0.116080
     5  C   -0.203931
     6  C    0.128864
     7  C    0.081995
     8  C    0.010343
     9  C   -0.316849
    10  C   -0.312110
    11  C   -0.189676
    12  C   -0.110648
    13  C    0.183537
    14  C    0.039308
    15  C   -0.102036
    16  C   -0.231918
    17  C    0.072713
    18  C   -0.319951
    19  C   -0.271281
    20  C   -0.334252
    21  C   -0.099044
    22  C   -0.121127
    23  C   -0.351289
    24  C    0.155753
    25  C   -0.139472
    26  C   -0.367972
    27  C    0.083911
    28  C   -0.175195
    29  C   -0.355930
    30  C   -0.097841
    31  C   -0.090240
    32  C   -0.106333
    33  C   -0.104828
    34  C    0.141938
    35  C   -0.112164
    36  C    0.074547
    37  C   -0.398337
    38  C   -0.142413
    39  C   -0.121454
    40  C   -0.367205
    41  C   -0.079056
    42  C   -0.055857
    43  H    0.082804
    44  H    0.095620
    45  H    0.079131
    46  H    0.078603
    47  H    0.095420
    48  H    0.094138
    49  H    0.104246
    50  H    0.119727
    51  H    0.119042
    52  H    0.086041
    53  H    0.107660
    54  H    0.071542
    55  H    0.056204
    56  H    0.067426
    57  H    0.084218
    58  H    0.093892
    59  H    0.105204
    60  H    0.105174
    61  H    0.108109
    62  H    0.090964
    63  H    0.113683
    64  H    0.115000
    65  H    0.056900
    66  H    0.122616
    67  H    0.118221
    68  H    0.087183
    69  H    0.296144
    70  H    0.091480
    71  H    0.089405
    72  H    0.110289
    73  H    0.127468
    74  H    0.109461
    75  H    0.314652
    76  H    0.078896
    77  H    0.108530
    78  H    0.125221
    79  H    0.115153
    80  H    0.083888
    81  H    0.138403
    82  H    0.117354
    83  H    0.094200
    84  H    0.088681
    85  H    0.089223
    86  H    0.086103
    87  H    0.072237
    88  H    0.067250
    89  H    0.134965
    90  H    0.135043
    91  H    0.103923
    92  H    0.065845
    93  H    0.077634
    94  H    0.134445
    95  H    0.084743
    96  H    0.134273
    97  H    0.068286
    98  H    0.083839
 Sum of Mulliken charges =  -0.00000

 Dipole moment (field-independent basis, Debye):
    X=              0.9693    Y=             -0.2208    Z=             -0.0713  Tot=              0.9966
 Quadrupole moment (field-independent basis, Debye-Ang):
   XX=           -272.1300   YY=           -243.7834   ZZ=           -264.7584
   XY=             11.2972   XZ=             26.9516   YZ=              1.1991

 Normal termination of Gaussian 16 at Fri Jul 12 19:12:20 2019.
