 Gaussian 16, Revision A.03,
 Gaussian 16:  ES64L-G16RevA.03 25-Dec-2016

 -------------------------------------
 # td=(NStates=1) CAM-B3LYP/6-31G(d,p)
 -------------------------------------

 --
 TD
 --
 Symbolic Z-matrix:
 Charge =  0 Multiplicity = 1

                         Standard orientation:
 ---------------------------------------------------------------------
 Center     Atomic      Atomic             Coordinates (Angstroms)
 Number     Number       Type             X           Y           Z
 ---------------------------------------------------------------------
      1          8           0      -14.020875   -2.146959    0.401142
      2          8           0       14.696914    0.962710    0.102332
      3          6           0      -11.733362    0.034606    1.294302
      4          6           0      -10.937574    0.278764   -0.008664
      5          6           0      -11.963793   -1.485195    1.514664
      6          6           0      -12.545374   -2.306895    0.340594
      7          6           0      -11.535167   -0.468521   -1.166669
      8          6           0       10.972724    0.946443    1.173814
      9          6           0      -11.006636    0.588919    2.473750
     10          6           0      -13.096415    0.775227    1.154353
     11          6           0       12.434186    1.539984    0.818359
     12          6           0      -12.224156   -1.608314   -0.999499
     13          6           0       13.415486    0.461257    0.453154
     14          6           0       10.559956   -0.012745   -0.082593
     15          6           0       -9.497711   -0.011651    0.131141
     16          6           0       12.906972   -0.169580   -0.818418
     17          6           0       11.496967   -0.460762   -0.968649
     18          6           0       10.008763    2.166750    1.082470
     19          6           0       10.947660    0.227038    2.488259
     20          6           0      -11.266346    0.127572   -2.560664
     21          6           0       -8.478681    0.965385   -0.158789
     22          6           0        9.183571   -0.490590   -0.011972
     23          6           0       11.018383   -1.275324   -2.182731
     24          6           0       -7.109884    0.630237   -0.171249
     25          6           0        8.731091   -1.776642   -0.152400
     26          6           0       -6.664483   -0.674083    0.174427
     27          6           0        7.412430   -2.221055   -0.076885
     28          6           0       -6.180163    1.565113   -0.454515
     29          6           0        7.125876   -3.780009   -0.115104
     30          6           0        6.366155   -1.303215   -0.045358
     31          6           0       -4.723976    1.586006   -0.503606
     32          6           0        4.946859   -1.623469   -0.094109
     33          6           0       -3.950738    2.647396   -0.543831
     34          6           0       -2.514405    2.623330   -0.662250
     35          6           0        4.045157   -0.571549   -0.228034
     36          6           0        2.693595   -0.830410   -0.056704
     37          6           0       -1.861548    4.007704   -0.987675
     38          6           0       -1.689581    1.466800   -0.595498
     39          6           0        1.821338    0.323389   -0.168359
     40          6           0        2.111523   -2.215965    0.130009
     41          6           0       -0.368928    1.470870   -0.655242
     42          6           0        0.342205    0.321507   -0.298028
     43          1           0      -11.034207    1.272656   -0.227853
     44          1           0      -12.450440   -1.684634    2.482724
     45          1           0      -10.848006   -1.677383    1.601053
     46          1           0      -12.114935   -3.296227    0.374537
     47          1           0      -10.058856    0.113340    2.738073
     48          1           0      -11.068522    1.651590    2.197851
     49          1           0      -11.578382    0.642124    3.384887
     50          1           0      -13.578125    0.568077    0.157248
     51          1           0      -13.818894    0.495873    1.889646
     52          1           0      -13.017630    1.820496    1.303256
     53          1           0       12.520431    2.425105    0.138903
     54          1           0       12.663705    2.339424    1.681427
     55          1           0      -12.420247   -2.167304   -1.819930
     56          1           0       13.424207   -0.313808    1.168753
     57          1           0       -8.934140   -1.171056    0.209024
     58          1           0       13.494841   -1.008279   -0.889295
     59          1           0       13.212528    0.380275   -1.773896
     60          1           0        8.955339    1.945836    1.538066
     61          1           0        9.803014    2.432094    0.249419
     62          1           0       10.354169    3.203493    1.516468
     63          1           0       11.931869   -0.454928    2.659864
     64          1           0       10.001640   -0.252391    2.536472
     65          1           0       11.031938    0.923208    3.296031
     66          1           0      -10.410497    0.495984   -2.716051
     67          1           0      -12.067582    1.020506   -2.707649
     68          1           0      -11.544651   -0.639694   -3.434613
     69          1           0      -14.234833   -2.488814   -0.430143
     70          1           0        8.607294    0.245595    0.228830
     71          1           0       -8.886396    1.901309   -0.432910
     72          1           0       11.352152   -2.236132   -1.915366
     73          1           0        9.995261   -1.167887   -2.279549
     74          1           0       11.545160   -0.841255   -2.982137
     75          1           0       15.518142    0.826081    1.063289
     76          1           0        9.436417   -2.494561   -0.313921
     77          1           0       -5.552784   -0.589028    0.210116
     78          1           0       -7.047524   -0.808510    1.224108
     79          1           0       -7.043788   -1.552674   -0.364841
     80          1           0       -6.424754    2.647991   -0.571955
     81          1           0        6.765512   -4.172226    0.841602
     82          1           0        6.562741   -4.280006   -0.834517
     83          1           0        7.911343   -4.326967   -0.253568
     84          1           0        6.541215   -0.211493    0.357810
     85          1           0       -4.249424    0.480002   -0.367850
     86          1           0        4.764280   -2.617707   -0.045054
     87          1           0       -4.324442    3.608760   -0.510355
     88          1           0        4.396206    0.468105   -0.264178
     89          1           0       -1.118282    4.083940   -1.875597
     90          1           0       -1.230121    4.531098   -0.177712
     91          1           0       -2.655812    4.754829   -1.446443
     92          1           0       -2.154595    0.483296   -0.499324
     93          1           0        2.316762    1.367252   -0.406082
     94          1           0        2.245546   -2.662848    1.196752
     95          1           0        1.087235   -2.259909   -0.089126
     96          1           0        2.680610   -2.833019   -0.538824
     97          1           0        0.354253    2.350865   -0.687161
     98          1           0       -0.166089   -0.606412   -0.188913
 ---------------------------------------------------------------------

 SCF Done:  E(RCAM-B3LYP) =  -1706.89989716     A.U. after   15 cycles

 Excitation energies and oscillator strengths:

 Excited State   1:      Singlet-A      2.0446 eV  606.39 nm  f=3.0734  <S**2>=0.000
     155 ->158         0.15393
     156 ->157         0.69113
 This state for optimization and/or second-order correction.
 Total Energy, E(TD-HF/TD-DFT) =  -1706.82475798
 Copying the excited state density for this state as the 1-particle RhoCI density.

 The electronic state is 1-A.
 Alpha  occ. eigenvalues --  -19.23263 -19.20639 -10.31004 -10.29955 -10.28256
 Alpha  occ. eigenvalues --  -10.28127 -10.27898 -10.27854 -10.27789 -10.27582
 Alpha  occ. eigenvalues --  -10.27438 -10.27002 -10.26982 -10.26797 -10.26526
 Alpha  occ. eigenvalues --  -10.26462 -10.26327 -10.26132 -10.26101 -10.26092
 Alpha  occ. eigenvalues --  -10.26084 -10.25989 -10.25960 -10.25818 -10.25808
 Alpha  occ. eigenvalues --  -10.25742 -10.25688 -10.25553 -10.25343 -10.25291
 Alpha  occ. eigenvalues --  -10.25008 -10.24924 -10.24874 -10.24709 -10.24346
 Alpha  occ. eigenvalues --  -10.24305 -10.24286 -10.24137 -10.24062 -10.23292
 Alpha  occ. eigenvalues --  -10.23227 -10.22438  -1.08885  -1.06385  -0.93958
 Alpha  occ. eigenvalues --   -0.92672  -0.92390  -0.91632  -0.90905  -0.89675
 Alpha  occ. eigenvalues --   -0.87719  -0.86888  -0.86664  -0.84901  -0.84113
 Alpha  occ. eigenvalues --   -0.82960  -0.81727  -0.80576  -0.80267  -0.77959
 Alpha  occ. eigenvalues --   -0.77428  -0.77342  -0.76770  -0.76011  -0.75873
 Alpha  occ. eigenvalues --   -0.75460  -0.75328  -0.75024  -0.72438  -0.70344
 Alpha  occ. eigenvalues --   -0.69399  -0.68057  -0.66363  -0.65634  -0.63226
 Alpha  occ. eigenvalues --   -0.62961  -0.62840  -0.62524  -0.61223  -0.60429
 Alpha  occ. eigenvalues --   -0.59180  -0.58427  -0.58188  -0.57349  -0.56480
 Alpha  occ. eigenvalues --   -0.55520  -0.55122  -0.54717  -0.54100  -0.53405
 Alpha  occ. eigenvalues --   -0.53113  -0.52812  -0.52330  -0.51964  -0.51453
 Alpha  occ. eigenvalues --   -0.50480  -0.50296  -0.49889  -0.49497  -0.49466
 Alpha  occ. eigenvalues --   -0.49309  -0.48935  -0.48345  -0.48011  -0.47795
 Alpha  occ. eigenvalues --   -0.47389  -0.47239  -0.46802  -0.46590  -0.46311
 Alpha  occ. eigenvalues --   -0.46169  -0.45926  -0.45253  -0.45021  -0.44672
 Alpha  occ. eigenvalues --   -0.44497  -0.43928  -0.43799  -0.43690  -0.43510
 Alpha  occ. eigenvalues --   -0.43478  -0.43068  -0.42963  -0.42545  -0.41748
 Alpha  occ. eigenvalues --   -0.41353  -0.41221  -0.41050  -0.40883  -0.40811
 Alpha  occ. eigenvalues --   -0.40771  -0.40601  -0.40480  -0.40152  -0.39358
 Alpha  occ. eigenvalues --   -0.39347  -0.39148  -0.38602  -0.38133  -0.37626
 Alpha  occ. eigenvalues --   -0.37511  -0.36878  -0.36687  -0.36075  -0.35967
 Alpha  occ. eigenvalues --   -0.35060  -0.33940  -0.33128  -0.32771  -0.31668
 Alpha  occ. eigenvalues --   -0.31165  -0.29304  -0.28586  -0.26149  -0.23236
 Alpha  occ. eigenvalues --   -0.18909
 Alpha virt. eigenvalues --   -0.05963  -0.01264   0.02165   0.04175   0.05745
 Alpha virt. eigenvalues --    0.07440   0.09547   0.10886   0.11755   0.12541
 Alpha virt. eigenvalues --    0.13054   0.13445   0.13652   0.14046   0.14571

 Mulliken charges:
               1
     1  O   -0.531602
     2  O   -0.552797
     3  C    0.005759
     4  C   -0.129187
     5  C   -0.167761
     6  C    0.122970
     7  C    0.115976
     8  C   -0.001739
     9  C   -0.298104
    10  C   -0.308217
    11  C   -0.185262
    12  C   -0.148176
    13  C    0.179958
    14  C    0.015561
    15  C   -0.081275
    16  C   -0.217842
    17  C    0.026984
    18  C   -0.295614
    19  C   -0.285698
    20  C   -0.338173
    21  C   -0.097311
    22  C   -0.077972
    23  C   -0.340874
    24  C    0.153315
    25  C   -0.090225
    26  C   -0.391179
    27  C    0.080317
    28  C   -0.144192
    29  C   -0.382910
    30  C   -0.138479
    31  C   -0.062219
    32  C   -0.080875
    33  C   -0.103052
    34  C    0.070272
    35  C   -0.106280
    36  C    0.111192
    37  C   -0.381080
    38  C   -0.105311
    39  C   -0.156392
    40  C   -0.362684
    41  C   -0.056202
    42  C   -0.090068
    43  H    0.096480
    44  H    0.104494
    45  H    0.077978
    46  H    0.097827
    47  H    0.106578
    48  H    0.092748
    49  H    0.100247
    50  H    0.107184
    51  H    0.108498
    52  H    0.084244
    53  H    0.100341
    54  H    0.053141
    55  H    0.074389
    56  H    0.088786
    57  H    0.067096
    58  H    0.110966
    59  H    0.108194
    60  H    0.075944
    61  H    0.125016
    62  H    0.078316
    63  H    0.077283
    64  H    0.115906
    65  H    0.110513
    66  H    0.131399
    67  H    0.094433
    68  H    0.091798
    69  H    0.298663
    70  H    0.057927
    71  H    0.083312
    72  H    0.118721
    73  H    0.130753
    74  H    0.106763
    75  H    0.280186
    76  H    0.073633
    77  H    0.100757
    78  H    0.122533
    79  H    0.123330
    80  H    0.068458
    81  H    0.119011
    82  H    0.123024
    83  H    0.115269
    84  H    0.083100
    85  H    0.066128
    86  H    0.090336
    87  H    0.086259
    88  H    0.094431
    89  H    0.111065
    90  H    0.116631
    91  H    0.095402
    92  H    0.085704
    93  H    0.071695
    94  H    0.113876
    95  H    0.118047
    96  H    0.124579
    97  H    0.087448
    98  H    0.079612
 Sum of Mulliken charges =  -0.00000

 Dipole moment (field-independent basis, Debye):
    X=              2.3911    Y=             -1.8749    Z=             -0.0032  Tot=              3.0385
 Quadrupole moment (field-independent basis, Debye-Ang):
   XX=           -272.6426   YY=           -240.5506   ZZ=           -262.4580
   XY=            -11.0303   XZ=             37.1192   YZ=              2.2201

 Normal termination of Gaussian 16 at Sun Jul 14 03:35:30 2019.
