 Gaussian 16, Revision A.03,
 Gaussian 16:  ES64L-G16RevA.03 25-Dec-2016

 -------------------------------------
 # td=(NStates=1) CAM-B3LYP/6-31G(d,p)
 -------------------------------------

 --
 TD
 --
 Symbolic Z-matrix:
 Charge =  0 Multiplicity = 1

                         Standard orientation:
 ---------------------------------------------------------------------
 Center     Atomic      Atomic             Coordinates (Angstroms)
 Number     Number       Type             X           Y           Z
 ---------------------------------------------------------------------
      1          8           0      -14.123566   -2.007753    0.438866
      2          8           0       14.835481    0.862497    0.185163
      3          6           0      -11.814954    0.121117    1.197475
      4          6           0      -10.960158    0.272914   -0.090538
      5          6           0      -12.004703   -1.464795    1.417831
      6          6           0      -12.657076   -2.149538    0.263234
      7          6           0      -11.410679   -0.536271   -1.211707
      8          6           0       11.132111    0.923090    1.009110
      9          6           0      -11.028644    0.652802    2.382140
     10          6           0      -13.130566    0.821206    1.063149
     11          6           0       12.574769    1.492280    0.762477
     12          6           0      -12.138504   -1.676782   -1.052371
     13          6           0       13.545264    0.435989    0.379854
     14          6           0       10.694541   -0.096992   -0.090696
     15          6           0       -9.444383   -0.115193    0.087048
     16          6           0       13.002100   -0.173362   -0.947865
     17          6           0       11.600761   -0.446975   -0.980932
     18          6           0       10.203555    2.074697    0.986362
     19          6           0       11.147966    0.249611    2.477159
     20          6           0      -11.073049    0.036931   -2.581786
     21          6           0       -8.595520    0.795416   -0.055164
     22          6           0        9.271724   -0.430958   -0.009364
     23          6           0       11.166245   -1.493322   -2.073633
     24          6           0       -7.060097    0.509817   -0.019885
     25          6           0        8.818928   -1.666848   -0.102464
     26          6           0       -6.635495   -0.794804    0.386834
     27          6           0        7.343640   -2.101533   -0.023811
     28          6           0       -6.229734    1.449316   -0.309758
     29          6           0        7.022127   -3.556181    0.171229
     30          6           0        6.393288   -1.152007   -0.137210
     31          6           0       -4.717912    1.403610   -0.303453
     32          6           0        4.988444   -1.495613   -0.118834
     33          6           0       -4.076389    2.530090   -0.578073
     34          6           0       -2.665677    2.647356   -0.638719
     35          6           0        3.956254   -0.672689   -0.317625
     36          6           0        2.520218   -0.755476   -0.158274
     37          6           0       -1.959662    4.020418   -0.942393
     38          6           0       -1.873794    1.480341   -0.413091
     39          6           0        1.706728    0.303791   -0.379984
     40          6           0        2.042311   -2.011022    0.307419
     41          6           0       -0.529044    1.568765   -0.528401
     42          6           0        0.298106    0.434392   -0.372457
     43          1           0      -10.850631    1.316870   -0.408489
     44          1           0      -12.539082   -1.629632    2.451339
     45          1           0      -10.969524   -1.770810    1.522955
     46          1           0      -12.440469   -3.244852    0.061151
     47          1           0      -10.098682    0.109779    2.491534
     48          1           0      -10.898389    1.741601    2.280789
     49          1           0      -11.809847    0.463256    3.178734
     50          1           0      -13.500754    0.226725    0.252073
     51          1           0      -13.808724    0.765400    2.062251
     52          1           0      -13.009817    1.755145    0.525406
     53          1           0       12.632000    2.496649    0.057706
     54          1           0       12.712908    1.894982    1.679256
     55          1           0      -12.530126   -2.214801   -1.894147
     56          1           0       13.603023   -0.339528    1.151963
     57          1           0       -9.368483   -1.063836    0.344271
     58          1           0       13.493491   -1.106368   -1.195231
     59          1           0       13.214609    0.406559   -1.911063
     60          1           0        9.076312    1.967219    1.247718
     61          1           0       10.123913    2.604052    0.013591
     62          1           0       10.687618    2.893312    1.758414
     63          1           0       11.949431   -0.628520    2.379242
     64          1           0       10.303546   -0.344718    2.485721
     65          1           0       11.130813    1.086737    3.316531
     66          1           0      -10.071796    0.026069   -2.710049
     67          1           0      -11.443779    1.072466   -2.720176
     68          1           0      -11.565915   -0.424110   -3.501569
     69          1           0      -14.358362   -2.144104   -0.496126
     70          1           0        8.540709    0.182679    0.551937
     71          1           0       -8.913710    1.792424   -0.220023
     72          1           0       11.398039   -2.514261   -1.917097
     73          1           0       10.104876   -1.461184   -2.593317
     74          1           0       11.700231   -1.148951   -2.916708
     75          1           0       15.197692    0.897652    0.997574
     76          1           0        9.564582   -2.378896   -0.090088
     77          1           0       -5.508405   -0.990547    0.507229
     78          1           0       -7.124916   -0.938923    1.290961
     79          1           0       -7.203075   -1.509295   -0.235808
     80          1           0       -6.619469    2.625374   -0.724590
     81          1           0        6.768900   -3.800982    1.170894
     82          1           0        6.249711   -3.828077   -0.562457
     83          1           0        7.781866   -4.138830   -0.234700
     84          1           0        6.551666    0.010867   -0.464948
     85          1           0       -4.396328    0.517009    0.062804
     86          1           0        4.705206   -2.482666   -0.042021
     87          1           0       -4.509529    3.380963   -0.898680
     88          1           0        4.116620    0.485110   -0.280584
     89          1           0       -1.268508    3.914931   -1.949096
     90          1           0       -1.349054    4.422609   -0.183793
     91          1           0       -2.821083    4.840712   -1.084717
     92          1           0       -2.410936    0.635227   -0.149151
     93          1           0        2.040362    1.311302   -0.340885
     94          1           0        2.501051   -2.293232    1.347160
     95          1           0        1.045600   -2.009225    0.314599
     96          1           0        2.316473   -2.829120   -0.255897
     97          1           0       -0.085385    2.524432   -0.953673
     98          1           0       -0.270035   -0.572116   -0.277967
 ---------------------------------------------------------------------

 SCF Done:  E(RCAM-B3LYP) =  -1706.96206354     A.U. after   15 cycles

 Excitation energies and oscillator strengths:

 Excited State   1:      Singlet-A      2.4056 eV  515.40 nm  f=2.6097  <S**2>=0.000
     155 ->158         0.13119
     156 ->157         0.69544
 This state for optimization and/or second-order correction.
 Total Energy, E(TD-HF/TD-DFT) =  -1706.87366051
 Copying the excited state density for this state as the 1-particle RhoCI density.

 The electronic state is 1-A.
 Alpha  occ. eigenvalues --  -19.21244 -19.20708 -10.30872 -10.30643 -10.28071
 Alpha  occ. eigenvalues --  -10.27512 -10.27508 -10.27434 -10.27106 -10.26981
 Alpha  occ. eigenvalues --  -10.26792 -10.26713 -10.26709 -10.26697 -10.26340
 Alpha  occ. eigenvalues --  -10.26318 -10.26086 -10.26040 -10.25899 -10.25898
 Alpha  occ. eigenvalues --  -10.25804 -10.25789 -10.25754 -10.25720 -10.25614
 Alpha  occ. eigenvalues --  -10.25394 -10.25319 -10.25307 -10.25268 -10.25259
 Alpha  occ. eigenvalues --  -10.25208 -10.25143 -10.25083 -10.24972 -10.24954
 Alpha  occ. eigenvalues --  -10.24924 -10.24670 -10.24563 -10.24499 -10.23844
 Alpha  occ. eigenvalues --  -10.23574 -10.23520  -1.12961  -1.08218  -0.94723
 Alpha  occ. eigenvalues --   -0.93721  -0.92623  -0.92195  -0.91084  -0.90263
 Alpha  occ. eigenvalues --   -0.87640  -0.87064  -0.86976  -0.86270  -0.85629
 Alpha  occ. eigenvalues --   -0.83538  -0.82456  -0.81582  -0.80663  -0.79004
 Alpha  occ. eigenvalues --   -0.76956  -0.76647  -0.76577  -0.75748  -0.75586
 Alpha  occ. eigenvalues --   -0.75295  -0.75238  -0.74988  -0.73392  -0.70866
 Alpha  occ. eigenvalues --   -0.69274  -0.67781  -0.67435  -0.65248  -0.65100
 Alpha  occ. eigenvalues --   -0.62872  -0.62510  -0.61946  -0.60725  -0.60148
 Alpha  occ. eigenvalues --   -0.59509  -0.59424  -0.58631  -0.57336  -0.56556
 Alpha  occ. eigenvalues --   -0.55987  -0.55683  -0.55181  -0.54882  -0.54261
 Alpha  occ. eigenvalues --   -0.53470  -0.52768  -0.52417  -0.51953  -0.51259
 Alpha  occ. eigenvalues --   -0.51048  -0.50743  -0.50080  -0.49761  -0.49528
 Alpha  occ. eigenvalues --   -0.49396  -0.49207  -0.49035  -0.48694  -0.48171
 Alpha  occ. eigenvalues --   -0.48122  -0.47847  -0.47503  -0.46777  -0.46402
 Alpha  occ. eigenvalues --   -0.45985  -0.45904  -0.45511  -0.45488  -0.45184
 Alpha  occ. eigenvalues --   -0.44939  -0.44456  -0.44055  -0.43954  -0.43733
 Alpha  occ. eigenvalues --   -0.43701  -0.43338  -0.43141  -0.42421  -0.41878
 Alpha  occ. eigenvalues --   -0.41618  -0.41511  -0.40966  -0.40846  -0.40640
 Alpha  occ. eigenvalues --   -0.40352  -0.40289  -0.40092  -0.39820  -0.39479
 Alpha  occ. eigenvalues --   -0.39030  -0.38813  -0.38544  -0.38037  -0.37742
 Alpha  occ. eigenvalues --   -0.37426  -0.37199  -0.36725  -0.36487  -0.35523
 Alpha  occ. eigenvalues --   -0.34919  -0.34436  -0.33407  -0.32383  -0.32191
 Alpha  occ. eigenvalues --   -0.31873  -0.29678  -0.28849  -0.27743  -0.24633
 Alpha  occ. eigenvalues --   -0.20006
 Alpha virt. eigenvalues --   -0.05169   0.00221   0.03408   0.05068   0.07603
 Alpha virt. eigenvalues --    0.09546   0.11593   0.12166   0.12283   0.12588
 Alpha virt. eigenvalues --    0.13127   0.13237   0.13768   0.13883   0.14095

 Mulliken charges:
               1
     1  O   -0.532729
     2  O   -0.527023
     3  C    0.000754
     4  C   -0.169704
     5  C   -0.179148
     6  C    0.137468
     7  C    0.142978
     8  C   -0.031749
     9  C   -0.273874
    10  C   -0.274430
    11  C   -0.167043
    12  C   -0.188815
    13  C    0.163858
    14  C    0.064898
    15  C   -0.061487
    16  C   -0.232990
    17  C    0.045931
    18  C   -0.292243
    19  C   -0.304799
    20  C   -0.365015
    21  C   -0.067523
    22  C   -0.089956
    23  C   -0.374527
    24  C    0.107463
    25  C   -0.104210
    26  C   -0.383666
    27  C    0.058708
    28  C   -0.143285
    29  C   -0.370684
    30  C   -0.107562
    31  C   -0.050599
    32  C   -0.082736
    33  C   -0.081938
    34  C    0.045847
    35  C   -0.115184
    36  C    0.124962
    37  C   -0.369268
    38  C   -0.055385
    39  C   -0.122383
    40  C   -0.369253
    41  C   -0.090377
    42  C   -0.116745
    43  H    0.084378
    44  H    0.097680
    45  H    0.089219
    46  H    0.083168
    47  H    0.096743
    48  H    0.095443
    49  H    0.087162
    50  H    0.116144
    51  H    0.090497
    52  H    0.086467
    53  H    0.079530
    54  H    0.089977
    55  H    0.079704
    56  H    0.074467
    57  H    0.082183
    58  H    0.114026
    59  H    0.116407
    60  H    0.093262
    61  H    0.110613
    62  H    0.060179
    63  H    0.084502
    64  H    0.120011
    65  H    0.100999
    66  H    0.135956
    67  H    0.113753
    68  H    0.100498
    69  H    0.299780
    70  H    0.094147
    71  H    0.088538
    72  H    0.120821
    73  H    0.106263
    74  H    0.101709
    75  H    0.293832
    76  H    0.079363
    77  H    0.108013
    78  H    0.132893
    79  H    0.120908
    80  H    0.040573
    81  H    0.136475
    82  H    0.121333
    83  H    0.118202
    84  H    0.091984
    85  H    0.078845
    86  H    0.073247
    87  H    0.073899
    88  H    0.053145
    89  H    0.107692
    90  H    0.143501
    91  H    0.088952
    92  H    0.077984
    93  H    0.076541
    94  H    0.109716
    95  H    0.106523
    96  H    0.122474
    97  H    0.088986
    98  H    0.064155
 Sum of Mulliken charges =  -0.00000

 Dipole moment (field-independent basis, Debye):
    X=              0.9876    Y=             -1.2131    Z=             -0.1745  Tot=              1.5740
 Quadrupole moment (field-independent basis, Debye-Ang):
   XX=           -288.8063   YY=           -245.1204   ZZ=           -260.7940
   XY=            -14.3782   XZ=             43.9630   YZ=              1.4229

 Normal termination of Gaussian 16 at Tue Jul 16 13:34:51 2019.
