 Gaussian 16, Revision A.03,
 Gaussian 16:  ES64L-G16RevA.03 25-Dec-2016

 -------------------------------------
 # td=(NStates=1) CAM-B3LYP/6-31G(d,p)
 -------------------------------------

 --
 TD
 --
 Symbolic Z-matrix:
 Charge =  0 Multiplicity = 1

                         Standard orientation:
 ---------------------------------------------------------------------
 Center     Atomic      Atomic             Coordinates (Angstroms)
 Number     Number       Type             X           Y           Z
 ---------------------------------------------------------------------
      1          8           0      -14.188942   -1.976233    0.422613
      2          8           0       14.833915    0.932589    0.233670
      3          6           0      -11.749758   -0.087972    1.446252
      4          6           0      -11.063471    0.384189    0.146062
      5          6           0      -12.021245   -1.583835    1.361725
      6          6           0      -12.778632   -2.091924    0.200007
      7          6           0      -11.559082   -0.284589   -1.169556
      8          6           0       11.087743    0.948085    1.125698
      9          6           0      -11.007900    0.270742    2.604980
     10          6           0      -13.059962    0.825592    1.419639
     11          6           0       12.589263    1.508366    0.943904
     12          6           0      -12.350217   -1.361073   -1.075171
     13          6           0       13.569751    0.406774    0.415058
     14          6           0       10.704598   -0.039093    0.006315
     15          6           0       -9.524600   -0.001316    0.030630
     16          6           0       12.961330   -0.035130   -0.964120
     17          6           0       11.515141   -0.455993   -0.924883
     18          6           0       10.166002    2.087688    1.188965
     19          6           0       11.144227    0.105697    2.515434
     20          6           0      -11.411810    0.399214   -2.509280
     21          6           0       -8.469609    0.895686   -0.173675
     22          6           0        9.218425   -0.378493    0.025372
     23          6           0       11.235151   -1.096482   -2.135362
     24          6           0       -7.100791    0.523251   -0.325467
     25          6           0        8.771571   -1.684115   -0.231426
     26          6           0       -6.730693   -0.900919   -0.264954
     27          6           0        7.443826   -2.233083   -0.176920
     28          6           0       -6.078724    1.527922   -0.338736
     29          6           0        7.181288   -3.636134   -0.003710
     30          6           0        6.461708   -1.193537   -0.339266
     31          6           0       -4.741961    1.394571   -0.574803
     32          6           0        5.101242   -1.609087   -0.179805
     33          6           0       -3.987740    2.565648   -0.628320
     34          6           0       -2.558030    2.647730   -0.547898
     35          6           0        3.965531   -0.651806   -0.331882
     36          6           0        2.623599   -0.893627   -0.146886
     37          6           0       -1.894282    4.003889   -0.801061
     38          6           0       -1.812092    1.492105   -0.480655
     39          6           0        1.648964    0.125201   -0.232702
     40          6           0        2.112393   -2.261773    0.158394
     41          6           0       -0.413746    1.441757   -0.484037
     42          6           0        0.287244    0.209498   -0.398207
     43          1           0      -11.087397    1.558942    0.062534
     44          1           0      -12.631952   -1.899050    2.217882
     45          1           0      -10.944092   -2.096221    1.638640
     46          1           0      -12.672582   -3.187709    0.113825
     47          1           0      -10.053543   -0.397132    2.491974
     48          1           0      -10.733851    1.236598    2.733345
     49          1           0      -11.638265   -0.087876    3.447746
     50          1           0      -13.751845    0.689464    0.669618
     51          1           0      -13.775101    0.385923    2.157228
     52          1           0      -12.874634    1.855403    1.608295
     53          1           0       12.572706    2.242863    0.121968
     54          1           0       12.794130    2.060041    2.003240
     55          1           0      -12.912484   -1.484076   -2.067009
     56          1           0       13.607162   -0.269841    1.172999
     57          1           0       -9.492884   -1.121505    0.015069
     58          1           0       13.504598   -0.837670   -1.242846
     59          1           0       13.116187    0.764834   -1.594870
     60          1           0        9.175797    1.896617    1.622705
     61          1           0        9.930757    2.458676    0.207071
     62          1           0       10.718101    3.040216    1.549020
     63          1           0       11.831737   -0.886355    2.364109
     64          1           0       10.054295   -0.034245    2.623655
     65          1           0       11.408505    0.703996    3.269428
     66          1           0      -10.265313    0.463371   -2.709242
     67          1           0      -11.571829    1.579690   -2.475255
     68          1           0      -11.976903   -0.017942   -3.298367
     69          1           0      -14.686749   -2.072631   -0.297385
     70          1           0        8.690889    0.314020    0.413407
     71          1           0       -8.884897    1.772413   -0.226748
     72          1           0       11.221782   -2.146141   -2.218912
     73          1           0       10.139751   -1.025076   -2.508307
     74          1           0       11.625551   -0.516047   -2.996250
     75          1           0       15.068148    1.255843    1.209164
     76          1           0        9.615514   -2.414603   -0.366705
     77          1           0       -5.601643   -0.823929   -0.492096
     78          1           0       -6.812156   -1.373892    0.579626
     79          1           0       -7.385122   -1.419929   -0.982471
     80          1           0       -6.662312    2.530898   -0.423725
     81          1           0        6.990107   -4.068276    1.144011
     82          1           0        6.204528   -3.939646   -0.374500
     83          1           0        8.093106   -4.295739   -0.301426
     84          1           0        6.832719   -0.068436   -0.630855
     85          1           0       -4.047984    0.594427   -0.459053
     86          1           0        4.882496   -2.593992   -0.038935
     87          1           0       -4.426969    3.497052   -0.653533
     88          1           0        4.213474    0.367297   -0.377767
     89          1           0       -1.063252    3.986720   -1.469129
     90          1           0       -1.406582    4.285994    0.341810
     91          1           0       -2.643503    4.875170   -1.200559
     92          1           0       -2.181875    0.484901   -0.245321
     93          1           0        2.140595    1.144318   -0.354111
     94          1           0        2.489630   -2.492709    1.186245
     95          1           0        0.996316   -2.384186    0.379040
     96          1           0        2.313623   -3.147060   -0.564496
     97          1           0        0.157228    2.476751   -0.538525
     98          1           0       -0.211384   -0.773137   -0.383440
 ---------------------------------------------------------------------

 SCF Done:  E(RCAM-B3LYP) =  -1706.91467900     A.U. after   17 cycles

 Excitation energies and oscillator strengths:

 Excited State   1:      Singlet-A      1.7205 eV  720.61 nm  f=3.1435  <S**2>=0.000
     155 ->158         0.13522
     156 ->157         0.70205
     156 <-157        -0.12808
 This state for optimization and/or second-order correction.
 Total Energy, E(TD-HF/TD-DFT) =  -1706.85145034
 Copying the excited state density for this state as the 1-particle RhoCI density.

 The electronic state is 1-A.
 Alpha  occ. eigenvalues --  -19.21486 -19.20321 -10.31631 -10.29122 -10.28616
 Alpha  occ. eigenvalues --  -10.27841 -10.27818 -10.27758 -10.27746 -10.27700
 Alpha  occ. eigenvalues --  -10.27517 -10.27444 -10.27239 -10.27184 -10.27154
 Alpha  occ. eigenvalues --  -10.27070 -10.26832 -10.26801 -10.26800 -10.26726
 Alpha  occ. eigenvalues --  -10.26660 -10.26538 -10.26359 -10.26348 -10.26190
 Alpha  occ. eigenvalues --  -10.26182 -10.26116 -10.25906 -10.25580 -10.25568
 Alpha  occ. eigenvalues --  -10.25526 -10.25109 -10.25033 -10.24957 -10.24852
 Alpha  occ. eigenvalues --  -10.24734 -10.24603 -10.24087 -10.23903 -10.23730
 Alpha  occ. eigenvalues --  -10.23393 -10.22864  -1.10884  -1.09376  -0.94007
 Alpha  occ. eigenvalues --   -0.93318  -0.92299  -0.91357  -0.90557  -0.89927
 Alpha  occ. eigenvalues --   -0.87731  -0.87707  -0.86966  -0.84967  -0.84102
 Alpha  occ. eigenvalues --   -0.83474  -0.81619  -0.80892  -0.79967  -0.78189
 Alpha  occ. eigenvalues --   -0.76831  -0.76449  -0.76393  -0.76156  -0.75595
 Alpha  occ. eigenvalues --   -0.75454  -0.74869  -0.74586  -0.71933  -0.70604
 Alpha  occ. eigenvalues --   -0.69468  -0.68337  -0.66369  -0.65836  -0.63973
 Alpha  occ. eigenvalues --   -0.63537  -0.62596  -0.62434  -0.60882  -0.60416
 Alpha  occ. eigenvalues --   -0.59384  -0.59092  -0.59031  -0.57635  -0.56446
 Alpha  occ. eigenvalues --   -0.55420  -0.55244  -0.54736  -0.54584  -0.54359
 Alpha  occ. eigenvalues --   -0.53994  -0.53153  -0.52624  -0.52405  -0.51601
 Alpha  occ. eigenvalues --   -0.51274  -0.51038  -0.49806  -0.49619  -0.49257
 Alpha  occ. eigenvalues --   -0.48800  -0.48568  -0.48415  -0.48065  -0.47953
 Alpha  occ. eigenvalues --   -0.47531  -0.46872  -0.46735  -0.46463  -0.46271
 Alpha  occ. eigenvalues --   -0.46063  -0.45890  -0.45574  -0.45439  -0.45159
 Alpha  occ. eigenvalues --   -0.44640  -0.44335  -0.43925  -0.43750  -0.43661
 Alpha  occ. eigenvalues --   -0.43423  -0.42888  -0.42744  -0.42159  -0.41944
 Alpha  occ. eigenvalues --   -0.41666  -0.41569  -0.41484  -0.41340  -0.40638
 Alpha  occ. eigenvalues --   -0.40455  -0.40102  -0.39653  -0.39556  -0.39305
 Alpha  occ. eigenvalues --   -0.39081  -0.38459  -0.38051  -0.38013  -0.37626
 Alpha  occ. eigenvalues --   -0.37158  -0.36842  -0.36664  -0.35813  -0.35046
 Alpha  occ. eigenvalues --   -0.34820  -0.34273  -0.33269  -0.32837  -0.31740
 Alpha  occ. eigenvalues --   -0.30886  -0.29587  -0.28895  -0.26517  -0.22816
 Alpha  occ. eigenvalues --   -0.17934
 Alpha virt. eigenvalues --   -0.07231  -0.01669   0.02540   0.05509   0.07064
 Alpha virt. eigenvalues --    0.08959   0.10794   0.11195   0.11848   0.12230
 Alpha virt. eigenvalues --    0.12450   0.13134   0.13216   0.13744   0.13985

 Mulliken charges:
               1
     1  O   -0.546984
     2  O   -0.553367
     3  C    0.031833
     4  C   -0.134275
     5  C   -0.192239
     6  C    0.166331
     7  C    0.144034
     8  C   -0.022857
     9  C   -0.270546
    10  C   -0.313971
    11  C   -0.209182
    12  C   -0.162911
    13  C    0.167639
    14  C    0.069765
    15  C   -0.119209
    16  C   -0.222847
    17  C    0.062632
    18  C   -0.331733
    19  C   -0.286275
    20  C   -0.356476
    21  C   -0.068763
    22  C   -0.074160
    23  C   -0.396764
    24  C    0.080934
    25  C   -0.126296
    26  C   -0.351581
    27  C    0.131099
    28  C   -0.121206
    29  C   -0.384201
    30  C   -0.103857
    31  C   -0.047344
    32  C   -0.101703
    33  C   -0.118577
    34  C    0.091621
    35  C   -0.130982
    36  C    0.141861
    37  C   -0.359508
    38  C   -0.112825
    39  C   -0.135023
    40  C   -0.390029
    41  C   -0.093626
    42  C   -0.083715
    43  H    0.077172
    44  H    0.117878
    45  H    0.080704
    46  H    0.090367
    47  H    0.082397
    48  H    0.109226
    49  H    0.098721
    50  H    0.117353
    51  H    0.091108
    52  H    0.098697
    53  H    0.090993
    54  H    0.056967
    55  H    0.058154
    56  H    0.075713
    57  H    0.087921
    58  H    0.118607
    59  H    0.126727
    60  H    0.107156
    61  H    0.116797
    62  H    0.096235
    63  H    0.091908
    64  H    0.098862
    65  H    0.107965
    66  H    0.114900
    67  H    0.098132
    68  H    0.119875
    69  H    0.292974
    70  H    0.058613
    71  H    0.060147
    72  H    0.126732
    73  H    0.099272
    74  H    0.111944
    75  H    0.307002
    76  H    0.071688
    77  H    0.093349
    78  H    0.135623
    79  H    0.112645
    80  H    0.077738
    81  H    0.097805
    82  H    0.129188
    83  H    0.115771
    84  H    0.104114
    85  H    0.092477
    86  H    0.082259
    87  H    0.071499
    88  H    0.078526
    89  H    0.138811
    90  H    0.094583
    91  H    0.101553
    92  H    0.091225
    93  H    0.060414
    94  H    0.121931
    95  H    0.101034
    96  H    0.108696
    97  H    0.085208
    98  H    0.081926
 Sum of Mulliken charges =  -0.00000

 Dipole moment (field-independent basis, Debye):
    X=             -1.9357    Y=             -0.1789    Z=              0.1387  Tot=              1.9489
 Quadrupole moment (field-independent basis, Debye-Ang):
   XX=           -273.2767   YY=           -242.4317   ZZ=           -262.9111
   XY=             -2.0804   XZ=             34.3593   YZ=              1.2249

 Normal termination of Gaussian 16 at Sun Jul 14 04:29:18 2019.
