 Gaussian 16, Revision A.03,
 Gaussian 16:  ES64L-G16RevA.03 25-Dec-2016

 -------------------------------------
 # td=(NStates=1) CAM-B3LYP/6-31G(d,p)
 -------------------------------------

 --
 TD
 --
 Symbolic Z-matrix:
 Charge =  0 Multiplicity = 1

                         Standard orientation:
 ---------------------------------------------------------------------
 Center     Atomic      Atomic             Coordinates (Angstroms)
 Number     Number       Type             X           Y           Z
 ---------------------------------------------------------------------
      1          8           0      -14.051021   -2.222666    0.659134
      2          8           0       14.875270    0.789211    0.324268
      3          6           0      -11.689066    0.017322    1.291141
      4          6           0      -10.964453    0.255205    0.008861
      5          6           0      -11.838222   -1.452400    1.468990
      6          6           0      -12.613895   -2.133536    0.394560
      7          6           0      -11.570655   -0.448643   -1.179837
      8          6           0       11.115391    1.132354    0.908565
      9          6           0      -10.846792    0.552857    2.494700
     10          6           0      -13.032013    0.696948    1.291533
     11          6           0       12.472967    1.599938    0.765387
     12          6           0      -12.250349   -1.565334   -0.942553
     13          6           0       13.575316    0.355397    0.520061
     14          6           0       10.524351   -0.071623   -0.068759
     15          6           0       -9.559861   -0.066590   -0.006146
     16          6           0       13.070853   -0.426627   -0.653132
     17          6           0       11.496774   -0.628075   -0.822838
     18          6           0       10.250096    2.380900    0.892267
     19          6           0       10.908717    0.486380    2.338528
     20          6           0      -11.396176    0.159718   -2.489255
     21          6           0       -8.586016    0.845858   -0.111489
     22          6           0        9.173775   -0.450740    0.113734
     23          6           0       11.200499   -1.652191   -1.868113
     24          6           0       -7.098315    0.603223   -0.252771
     25          6           0        8.697502   -1.685394   -0.291154
     26          6           0       -6.692219   -0.886630   -0.086934
     27          6           0        7.378691   -2.093662   -0.156457
     28          6           0       -6.272349    1.649449   -0.369952
     29          6           0        7.144424   -3.552748    0.169655
     30          6           0        6.371251   -1.164048   -0.281216
     31          6           0       -4.786910    1.589012   -0.498476
     32          6           0        5.008249   -1.554463   -0.221343
     33          6           0       -3.985815    2.638813   -0.779033
     34          6           0       -2.591736    2.697594   -0.607606
     35          6           0        3.992045   -0.629772   -0.378096
     36          6           0        2.608898   -0.867297   -0.205728
     37          6           0       -1.961232    3.989466   -0.938577
     38          6           0       -1.770303    1.564142   -0.498761
     39          6           0        1.769361    0.279761   -0.387362
     40          6           0        2.007156   -2.116688    0.179890
     41          6           0       -0.411895    1.476000   -0.586382
     42          6           0        0.315648    0.357014   -0.339491
     43          1           0      -11.156456    1.335520   -0.220967
     44          1           0      -12.373889   -1.683028    2.385236
     45          1           0      -10.796603   -1.911172    1.601170
     46          1           0      -12.010094   -3.220763    0.130277
     47          1           0       -9.904153    0.124105    2.635641
     48          1           0      -10.836013    1.588142    2.549455
     49          1           0      -11.265399    0.096745    3.658048
     50          1           0      -13.657408    0.501506    0.378219
     51          1           0      -13.593927    0.511482    2.153563
     52          1           0      -12.857535    1.802556    1.286130
     53          1           0       12.482088    2.078942   -0.201643
     54          1           0       12.697842    2.024006    1.818032
     55          1           0      -12.614751   -1.861783   -1.694941
     56          1           0       13.421862   -0.189024    1.550596
     57          1           0       -9.076288   -1.037133    0.034148
     58          1           0       13.526772   -1.440735   -0.773561
     59          1           0       13.298580    0.333164   -1.450025
     60          1           0        9.183568    2.273322    1.027492
     61          1           0       10.327382    2.935130   -0.270941
     62          1           0       10.458396    3.046835    1.798260
     63          1           0       11.554154   -0.404348    2.622147
     64          1           0        9.892951    0.183498    2.783216
     65          1           0       11.328238    1.522152    2.843588
     66          1           0      -10.238052    0.052214   -2.807776
     67          1           0      -11.764540    1.280104   -2.597072
     68          1           0      -11.940470   -0.536199   -3.342383
     69          1           0      -14.589139   -2.376824   -0.165493
     70          1           0        8.465169    0.250027    0.549712
     71          1           0       -8.974813    1.890848   -0.165161
     72          1           0       11.215576   -2.845962   -1.419644
     73          1           0       10.180266   -1.532977   -2.476402
     74          1           0       11.970556   -1.474953   -2.662173
     75          1           0       15.426098    0.792881    1.195069
     76          1           0        9.359494   -2.467952   -0.408098
     77          1           0       -5.564888   -0.851825   -0.173734
     78          1           0       -7.017554   -1.160080    0.880732
     79          1           0       -6.901790   -1.543688   -0.953170
     80          1           0       -6.692889    2.626074   -0.463037
     81          1           0        6.488414   -3.642026    0.923566
     82          1           0        6.481140   -4.043725   -0.614537
     83          1           0        8.068424   -4.062656    0.046203
     84          1           0        6.463902   -0.171018   -0.299946
     85          1           0       -4.116917    0.637035   -0.310577
     86          1           0        4.772730   -2.537145    0.019505
     87          1           0       -4.562546    3.455746   -0.910831
     88          1           0        4.303549    0.419406   -0.712755
     89          1           0       -1.432847    3.907718   -1.840418
     90          1           0       -1.340432    4.393841   -0.257982
     91          1           0       -2.568603    4.983260   -0.989188
     92          1           0       -2.592655    0.653731   -0.337767
     93          1           0        2.322142    1.244692   -0.865110
     94          1           0        1.862391   -2.307492    1.448147
     95          1           0        0.804669   -2.206564   -0.230047
     96          1           0        2.700955   -3.000080   -0.442957
     97          1           0       -0.049574    2.396207   -0.979055
     98          1           0       -0.143220   -0.649434   -0.046443
 ---------------------------------------------------------------------

 SCF Done:  E(RCAM-B3LYP) =  -1706.85340012     A.U. after   15 cycles

 Excitation energies and oscillator strengths:

 Excited State   1:      Singlet-A      2.1277 eV  582.72 nm  f=2.9319  <S**2>=0.000
     155 ->158         0.16003
     156 ->157         0.68868
 This state for optimization and/or second-order correction.
 Total Energy, E(TD-HF/TD-DFT) =  -1706.77520962
 Copying the excited state density for this state as the 1-particle RhoCI density.

 The electronic state is 1-A.
 Alpha  occ. eigenvalues --  -19.22508 -19.22426 -10.32269 -10.31520 -10.30368
 Alpha  occ. eigenvalues --  -10.28284 -10.27849 -10.27570 -10.27526 -10.27277
 Alpha  occ. eigenvalues --  -10.27206 -10.27195 -10.27106 -10.27048 -10.26672
 Alpha  occ. eigenvalues --  -10.26498 -10.26496 -10.26471 -10.26460 -10.26409
 Alpha  occ. eigenvalues --  -10.26373 -10.26280 -10.26093 -10.26065 -10.26059
 Alpha  occ. eigenvalues --  -10.26002 -10.25904 -10.25873 -10.25682 -10.25648
 Alpha  occ. eigenvalues --  -10.25244 -10.25165 -10.25049 -10.25014 -10.24953
 Alpha  occ. eigenvalues --  -10.24771 -10.24669 -10.24588 -10.24261 -10.24224
 Alpha  occ. eigenvalues --  -10.23409 -10.22573  -1.09767  -1.08007  -0.95465
 Alpha  occ. eigenvalues --   -0.93152  -0.92413  -0.91878  -0.90576  -0.89983
 Alpha  occ. eigenvalues --   -0.87863  -0.87587  -0.86976  -0.85716  -0.84843
 Alpha  occ. eigenvalues --   -0.83288  -0.82507  -0.80979  -0.79737  -0.77984
 Alpha  occ. eigenvalues --   -0.77208  -0.76289  -0.76110  -0.75801  -0.75318
 Alpha  occ. eigenvalues --   -0.74979  -0.74326  -0.73975  -0.72582  -0.70281
 Alpha  occ. eigenvalues --   -0.68832  -0.67804  -0.66389  -0.65363  -0.63698
 Alpha  occ. eigenvalues --   -0.63112  -0.62625  -0.61777  -0.60969  -0.59781
 Alpha  occ. eigenvalues --   -0.58968  -0.58761  -0.58554  -0.58093  -0.57047
 Alpha  occ. eigenvalues --   -0.56186  -0.55412  -0.54771  -0.54370  -0.54072
 Alpha  occ. eigenvalues --   -0.53249  -0.52931  -0.52122  -0.51925  -0.51227
 Alpha  occ. eigenvalues --   -0.51050  -0.50679  -0.50436  -0.50114  -0.49776
 Alpha  occ. eigenvalues --   -0.49088  -0.48843  -0.48228  -0.47757  -0.47537
 Alpha  occ. eigenvalues --   -0.47289  -0.46945  -0.46752  -0.46342  -0.45862
 Alpha  occ. eigenvalues --   -0.45685  -0.45596  -0.45314  -0.45052  -0.44355
 Alpha  occ. eigenvalues --   -0.44036  -0.43841  -0.43688  -0.43575  -0.42902
 Alpha  occ. eigenvalues --   -0.42760  -0.42662  -0.42078  -0.41806  -0.41583
 Alpha  occ. eigenvalues --   -0.41387  -0.41377  -0.41202  -0.40940  -0.40580
 Alpha  occ. eigenvalues --   -0.40196  -0.39493  -0.39438  -0.39218  -0.38887
 Alpha  occ. eigenvalues --   -0.38696  -0.38597  -0.38309  -0.38143  -0.37590
 Alpha  occ. eigenvalues --   -0.37528  -0.36938  -0.36751  -0.36564  -0.35950
 Alpha  occ. eigenvalues --   -0.35237  -0.34514  -0.33929  -0.32698  -0.31407
 Alpha  occ. eigenvalues --   -0.29940  -0.29144  -0.28419  -0.26696  -0.23358
 Alpha  occ. eigenvalues --   -0.19193
 Alpha virt. eigenvalues --   -0.05733  -0.01051   0.02624   0.05680   0.07327
 Alpha virt. eigenvalues --    0.09103   0.10192   0.10938   0.11061   0.11419
 Alpha virt. eigenvalues --    0.11908   0.12022   0.12678   0.13146   0.13510

 Mulliken charges:
               1
     1  O   -0.560795
     2  O   -0.551463
     3  C    0.023618
     4  C   -0.138522
     5  C   -0.177526
     6  C    0.174561
     7  C    0.121206
     8  C   -0.023669
     9  C   -0.286872
    10  C   -0.293159
    11  C   -0.183685
    12  C   -0.073254
    13  C    0.165073
    14  C    0.113405
    15  C   -0.053022
    16  C   -0.211026
    17  C    0.006029
    18  C   -0.279879
    19  C   -0.282995
    20  C   -0.354687
    21  C   -0.098890
    22  C   -0.106045
    23  C   -0.350644
    24  C    0.096746
    25  C   -0.100945
    26  C   -0.378770
    27  C    0.063636
    28  C   -0.133954
    29  C   -0.369197
    30  C   -0.080478
    31  C   -0.078154
    32  C   -0.085398
    33  C   -0.089565
    34  C    0.082492
    35  C   -0.121139
    36  C    0.152013
    37  C   -0.396627
    38  C   -0.092278
    39  C   -0.132567
    40  C   -0.352149
    41  C   -0.075584
    42  C   -0.086935
    43  H    0.083135
    44  H    0.113126
    45  H    0.093229
    46  H    0.046695
    47  H    0.118176
    48  H    0.107187
    49  H    0.039677
    50  H    0.102628
    51  H    0.116787
    52  H    0.079056
    53  H    0.104869
    54  H    0.084481
    55  H    0.020243
    56  H    0.054192
    57  H    0.084755
    58  H    0.114730
    59  H    0.123061
    60  H    0.102695
    61  H    0.067673
    62  H    0.095398
    63  H    0.100984
    64  H    0.105145
    65  H    0.051668
    66  H    0.111407
    67  H    0.112280
    68  H    0.084631
    69  H    0.316077
    70  H    0.091764
    71  H    0.061989
    72  H    0.077437
    73  H    0.112900
    74  H    0.102683
    75  H    0.324182
    76  H    0.076547
    77  H    0.106083
    78  H    0.137131
    79  H    0.128464
    80  H    0.089151
    81  H    0.142596
    82  H    0.108853
    83  H    0.114660
    84  H    0.072665
    85  H    0.070647
    86  H    0.067132
    87  H    0.072408
    88  H    0.081425
    89  H    0.135508
    90  H    0.131623
    91  H    0.091406
    92  H    0.046223
    93  H    0.067422
    94  H    0.103306
    95  H    0.092738
    96  H    0.088385
    97  H    0.090521
    98  H    0.081260
 Sum of Mulliken charges =  -0.00000

 Dipole moment (field-independent basis, Debye):
    X=              0.4149    Y=             -0.6629    Z=             -0.2160  Tot=              0.8113
 Quadrupole moment (field-independent basis, Debye-Ang):
   XX=           -254.3561   YY=           -248.4826   ZZ=           -263.6334
   XY=            -14.4338   XZ=             43.1344   YZ=              1.4416

 Normal termination of Gaussian 16 at Mon Jul 15 19:40:26 2019.
