 Gaussian 16, Revision A.03,
 Gaussian 16:  ES64L-G16RevA.03 25-Dec-2016

 -------------------------------------
 # td=(NStates=1) CAM-B3LYP/6-31G(d,p)
 -------------------------------------

 --
 TD
 --
 Symbolic Z-matrix:
 Charge =  0 Multiplicity = 1

                         Standard orientation:
 ---------------------------------------------------------------------
 Center     Atomic      Atomic             Coordinates (Angstroms)
 Number     Number       Type             X           Y           Z
 ---------------------------------------------------------------------
      1          8           0      -14.249914   -1.781300    0.927211
      2          8           0       14.753371    0.975304    0.119568
      3          6           0      -11.740593    0.209703    1.221546
      4          6           0      -10.923872    0.248661   -0.154518
      5          6           0      -11.953620   -1.355725    1.624575
      6          6           0      -12.880307   -2.032848    0.581242
      7          6           0      -11.639186   -0.675408   -1.254136
      8          6           0       11.071862    1.153926    1.034576
      9          6           0      -10.887969    0.860161    2.321089
     10          6           0      -12.999254    0.945810    1.086224
     11          6           0       12.464774    1.590247    0.676721
     12          6           0      -12.503377   -1.650636   -0.859168
     13          6           0       13.512612    0.412804    0.465844
     14          6           0       10.661505   -0.069284    0.037453
     15          6           0       -9.500287   -0.146926    0.017661
     16          6           0       13.070006   -0.317904   -0.748293
     17          6           0       11.549725   -0.574281   -0.839922
     18          6           0       10.106999    2.244067    0.926098
     19          6           0       10.964393    0.666628    2.606180
     20          6           0      -11.474488   -0.218308   -2.658223
     21          6           0       -8.574139    0.783169   -0.141636
     22          6           0        9.211746   -0.559997    0.148488
     23          6           0       11.260001   -1.492722   -1.891524
     24          6           0       -7.046768    0.509473   -0.174070
     25          6           0        8.751799   -1.784143   -0.092105
     26          6           0       -6.690796   -0.946810    0.013522
     27          6           0        7.450960   -2.291872    0.009169
     28          6           0       -6.151394    1.556704   -0.362275
     29          6           0        7.122610   -3.687364    0.235817
     30          6           0        6.367455   -1.284768   -0.174493
     31          6           0       -4.773167    1.444330   -0.367335
     32          6           0        5.010094   -1.524048    0.002363
     33          6           0       -3.919808    2.498241   -0.706093
     34          6           0       -2.526576    2.615029   -0.758129
     35          6           0        4.080786   -0.658554   -0.325373
     36          6           0        2.673832   -0.887737   -0.376652
     37          6           0       -1.920513    3.916407   -1.064445
     38          6           0       -1.752287    1.511285   -0.549267
     39          6           0        1.848688    0.207106   -0.609537
     40          6           0        2.141194   -2.184249    0.099067
     41          6           0       -0.338848    1.493403   -0.708494
     42          6           0        0.460847    0.361311   -0.487809
     43          1           0      -11.018912    1.028927   -0.706060
     44          1           0      -12.535443   -1.234017    2.756590
     45          1           0      -11.047894   -1.704854    1.753748
     46          1           0      -12.445933   -2.914389    0.766215
     47          1           0       -9.914235    0.315585    2.561407
     48          1           0      -11.025567    2.160664    2.178249
     49          1           0      -11.446785    0.596431    3.166329
     50          1           0      -13.694944    0.572016    0.292463
     51          1           0      -13.521451    0.618777    1.872683
     52          1           0      -12.779762    1.901162    1.161553
     53          1           0       12.292471    2.215661   -0.276219
     54          1           0       12.795362    2.215148    1.447128
     55          1           0      -12.957988   -2.337311   -1.538597
     56          1           0       13.458687   -0.133961    1.353497
     57          1           0       -9.454402   -1.060446    0.049308
     58          1           0       13.664814   -1.209138   -0.829703
     59          1           0       13.423201    0.304910   -1.670696
     60          1           0        9.241090    2.210455    1.241152
     61          1           0        9.896237    2.618731   -0.115566
     62          1           0       10.517127    3.063680    1.345045
     63          1           0       12.142288    0.151793    3.079934
     64          1           0       10.147697   -0.073990    2.658560
     65          1           0       10.718161    1.679214    3.052506
     66          1           0      -10.387218   -0.153846   -2.839756
     67          1           0      -11.931947    0.743929   -2.742686
     68          1           0      -11.991016   -1.006734   -3.323384
     69          1           0      -14.800294   -1.555629   -0.107471
     70          1           0        8.543699    0.349457    0.420862
     71          1           0       -8.827058    1.866796   -0.246912
     72          1           0       11.314781   -2.519488   -1.583044
     73          1           0       10.229143   -1.627259   -2.055096
     74          1           0       11.751989   -1.283529   -2.869420
     75          1           0       15.273819    1.364310    0.817191
     76          1           0        9.565677   -2.629013   -0.167717
     77          1           0       -5.546107   -1.074012   -0.138373
     78          1           0       -7.026817   -1.170433    1.018295
     79          1           0       -7.332007   -1.674489   -0.596620
     80          1           0       -6.556105    2.532077   -0.507141
     81          1           0        6.941250   -3.752425    1.272631
     82          1           0        6.150042   -4.036581   -0.341547
     83          1           0        7.955696   -4.446627   -0.022938
     84          1           0        6.806760   -0.171557   -0.419767
     85          1           0       -4.231498    0.515708    0.012752
     86          1           0        4.708281   -2.659782    0.276036
     87          1           0       -4.462526    3.328889   -0.791023
     88          1           0        4.423821    0.332214   -0.520938
     89          1           0       -1.311125    3.891310   -2.026146
     90          1           0       -0.950646    4.248294   -0.187001
     91          1           0       -2.415306    4.784104   -1.179041
     92          1           0       -2.160762    0.548819   -0.453288
     93          1           0        2.280913    1.285636   -0.703563
     94          1           0        2.420332   -2.254254    1.127353
     95          1           0        0.935953   -2.416402   -0.181092
     96          1           0        2.600015   -2.892376   -0.311622
     97          1           0        0.264357    2.218388   -1.084112
     98          1           0       -0.225405   -0.531872   -0.344023
 ---------------------------------------------------------------------

 SCF Done:  E(RCAM-B3LYP) =  -1706.80538980     A.U. after   15 cycles

 Excitation energies and oscillator strengths:

 Excited State   1:      Singlet-A      2.0827 eV  595.31 nm  f=3.0131  <S**2>=0.000
     155 ->158         0.16080
     156 ->157         0.68976
 This state for optimization and/or second-order correction.
 Total Energy, E(TD-HF/TD-DFT) =  -1706.72885205
 Copying the excited state density for this state as the 1-particle RhoCI density.

 The electronic state is 1-A.
 Alpha  occ. eigenvalues --  -19.23445 -19.20773 -10.29899 -10.29767 -10.27993
 Alpha  occ. eigenvalues --  -10.27684 -10.27637 -10.27602 -10.27394 -10.27387
 Alpha  occ. eigenvalues --  -10.27354 -10.26962 -10.26905 -10.26847 -10.26844
 Alpha  occ. eigenvalues --  -10.26727 -10.26619 -10.26565 -10.26534 -10.26480
 Alpha  occ. eigenvalues --  -10.26424 -10.26351 -10.26213 -10.25993 -10.25916
 Alpha  occ. eigenvalues --  -10.25903 -10.25763 -10.25520 -10.25474 -10.25470
 Alpha  occ. eigenvalues --  -10.25412 -10.25389 -10.25352 -10.25162 -10.24883
 Alpha  occ. eigenvalues --  -10.24814 -10.24435 -10.23989 -10.23963 -10.23228
 Alpha  occ. eigenvalues --  -10.22048 -10.20778  -1.09531  -1.06548  -0.93138
 Alpha  occ. eigenvalues --   -0.92839  -0.92482  -0.92059  -0.90433  -0.89766
 Alpha  occ. eigenvalues --   -0.87907  -0.87450  -0.87110  -0.85958  -0.84611
 Alpha  occ. eigenvalues --   -0.83473  -0.82676  -0.81490  -0.81191  -0.79030
 Alpha  occ. eigenvalues --   -0.77165  -0.76539  -0.76456  -0.76075  -0.75763
 Alpha  occ. eigenvalues --   -0.75355  -0.74591  -0.74012  -0.73031  -0.70300
 Alpha  occ. eigenvalues --   -0.69274  -0.67673  -0.66907  -0.65715  -0.64753
 Alpha  occ. eigenvalues --   -0.63371  -0.61914  -0.61664  -0.61010  -0.60032
 Alpha  occ. eigenvalues --   -0.59835  -0.59308  -0.58313  -0.57754  -0.56129
 Alpha  occ. eigenvalues --   -0.55741  -0.55127  -0.54961  -0.54650  -0.53977
 Alpha  occ. eigenvalues --   -0.53533  -0.52830  -0.52404  -0.51663  -0.51209
 Alpha  occ. eigenvalues --   -0.50690  -0.50396  -0.49931  -0.49791  -0.49552
 Alpha  occ. eigenvalues --   -0.49320  -0.49054  -0.48922  -0.48543  -0.48084
 Alpha  occ. eigenvalues --   -0.47583  -0.47542  -0.47041  -0.46618  -0.46527
 Alpha  occ. eigenvalues --   -0.46276  -0.46145  -0.45705  -0.45191  -0.44921
 Alpha  occ. eigenvalues --   -0.44801  -0.44610  -0.44297  -0.43958  -0.43420
 Alpha  occ. eigenvalues --   -0.43258  -0.43083  -0.42577  -0.42334  -0.42160
 Alpha  occ. eigenvalues --   -0.41510  -0.41329  -0.41073  -0.40910  -0.40445
 Alpha  occ. eigenvalues --   -0.40077  -0.39825  -0.39684  -0.39245  -0.39147
 Alpha  occ. eigenvalues --   -0.38816  -0.38187  -0.38158  -0.37893  -0.37562
 Alpha  occ. eigenvalues --   -0.37469  -0.36839  -0.36379  -0.36135  -0.35385
 Alpha  occ. eigenvalues --   -0.35341  -0.34632  -0.33519  -0.31539  -0.31369
 Alpha  occ. eigenvalues --   -0.31083  -0.29199  -0.28787  -0.27019  -0.23177
 Alpha  occ. eigenvalues --   -0.19216
 Alpha virt. eigenvalues --   -0.05999  -0.01352   0.02898   0.04690   0.06767
 Alpha virt. eigenvalues --    0.08613   0.09779   0.11051   0.11456   0.11619
 Alpha virt. eigenvalues --    0.12343   0.12762   0.13303   0.13533   0.13595

 Mulliken charges:
               1
     1  O   -0.551636
     2  O   -0.563161
     3  C    0.003337
     4  C   -0.086605
     5  C   -0.200718
     6  C    0.202035
     7  C    0.071180
     8  C    0.004471
     9  C   -0.289257
    10  C   -0.265419
    11  C   -0.191628
    12  C   -0.207040
    13  C    0.186193
    14  C    0.034909
    15  C   -0.023875
    16  C   -0.216363
    17  C    0.063916
    18  C   -0.311523
    19  C   -0.285713
    20  C   -0.354326
    21  C   -0.095281
    22  C   -0.097402
    23  C   -0.384814
    24  C    0.084092
    25  C   -0.124976
    26  C   -0.369738
    27  C    0.091514
    28  C   -0.120455
    29  C   -0.382234
    30  C   -0.121891
    31  C   -0.061574
    32  C   -0.087273
    33  C   -0.134049
    34  C    0.151902
    35  C   -0.084004
    36  C    0.095102
    37  C   -0.362217
    38  C   -0.129037
    39  C   -0.136439
    40  C   -0.352908
    41  C   -0.067549
    42  C   -0.087229
    43  H    0.067461
    44  H    0.074817
    45  H    0.098563
    46  H    0.103565
    47  H    0.102210
    48  H    0.058168
    49  H    0.105689
    50  H    0.080360
    51  H    0.116701
    52  H    0.090669
    53  H    0.089025
    54  H    0.075532
    55  H    0.078830
    56  H    0.086294
    57  H    0.056347
    58  H    0.110265
    59  H    0.111834
    60  H    0.112561
    61  H    0.093391
    62  H    0.108482
    63  H    0.044628
    64  H    0.122165
    65  H    0.099471
    66  H    0.123834
    67  H    0.133258
    68  H    0.104541
    69  H    0.303213
    70  H    0.080230
    71  H    0.083284
    72  H    0.116007
    73  H    0.120810
    74  H    0.107600
    75  H    0.301898
    76  H    0.073818
    77  H    0.102251
    78  H    0.129766
    79  H    0.115501
    80  H    0.083933
    81  H    0.144680
    82  H    0.111989
    83  H    0.105778
    84  H    0.078959
    85  H    0.080520
    86  H    0.070439
    87  H    0.063283
    88  H    0.084296
    89  H    0.119866
    90  H    0.067680
    91  H    0.121979
    92  H    0.084782
    93  H    0.071786
    94  H    0.133695
    95  H    0.089626
    96  H    0.130125
    97  H    0.072972
    98  H    0.058258
 Sum of Mulliken charges =  -0.00000

 Dipole moment (field-independent basis, Debye):
    X=              0.2856    Y=             -0.3861    Z=             -0.4353  Tot=              0.6482
 Quadrupole moment (field-independent basis, Debye-Ang):
   XX=           -264.7037   YY=           -243.3268   ZZ=           -264.9520
   XY=             -2.6912   XZ=             44.8743   YZ=              0.3512

 Normal termination of Gaussian 16 at Sat Jul 13 13:43:02 2019.
