 Gaussian 16, Revision A.03,
 Gaussian 16:  ES64L-G16RevA.03 25-Dec-2016

 -------------------------------------
 # td=(NStates=1) CAM-B3LYP/6-31G(d,p)
 -------------------------------------

 --
 TD
 --
 Symbolic Z-matrix:
 Charge =  0 Multiplicity = 1

                         Standard orientation:
 ---------------------------------------------------------------------
 Center     Atomic      Atomic             Coordinates (Angstroms)
 Number     Number       Type             X           Y           Z
 ---------------------------------------------------------------------
      1          8           0      -14.246012   -1.891369    0.186717
      2          8           0       14.810713    0.929461    0.208222
      3          6           0      -11.820103   -0.129089    1.394318
      4          6           0      -10.983249    0.340493    0.049492
      5          6           0      -12.106553   -1.658895    1.285697
      6          6           0      -12.844902   -2.168041    0.059271
      7          6           0      -11.593303   -0.270582   -1.268629
      8          6           0       11.117473    1.057974    1.049598
      9          6           0      -10.869090    0.251366    2.635636
     10          6           0      -13.121285    0.706584    1.527065
     11          6           0       12.595494    1.537849    0.799416
     12          6           0      -12.412055   -1.363693   -1.204868
     13          6           0       13.526023    0.359915    0.375672
     14          6           0       10.708838   -0.024432    0.031280
     15          6           0       -9.548771   -0.037118    0.116328
     16          6           0       13.068398   -0.148221   -0.887887
     17          6           0       11.607838   -0.564555   -0.839438
     18          6           0       10.193840    2.261560    0.956190
     19          6           0       11.096726    0.287134    2.359214
     20          6           0      -11.349661    0.584619   -2.437800
     21          6           0       -8.531125    0.803141   -0.057360
     22          6           0        9.301663   -0.493785    0.138860
     23          6           0       11.129220   -1.417653   -1.978436
     24          6           0       -7.083920    0.481377   -0.054366
     25          6           0        8.842491   -1.715074   -0.100603
     26          6           0       -6.724252   -0.845285    0.259640
     27          6           0        7.431690   -2.192498   -0.126675
     28          6           0       -6.217258    1.565859   -0.241828
     29          6           0        7.282508   -3.653571    0.022119
     30          6           0        6.444119   -1.310349   -0.229110
     31          6           0       -4.763705    1.525421   -0.361172
     32          6           0        5.007337   -1.536727   -0.150035
     33          6           0       -3.979291    2.559174   -0.621760
     34          6           0       -2.542117    2.627739   -0.705821
     35          6           0        4.069257   -0.624969   -0.323956
     36          6           0        2.650736   -0.768168   -0.259884
     37          6           0       -2.014990    3.876620   -1.085147
     38          6           0       -1.791513    1.400152   -0.490149
     39          6           0        1.775053    0.382718   -0.305810
     40          6           0        2.142756   -2.203260   -0.066353
     41          6           0       -0.447954    1.470082   -0.571151
     42          6           0        0.380761    0.253506   -0.282420
     43          1           0      -11.354418    1.480530    0.123273
     44          1           0      -12.434959   -1.950221    2.248096
     45          1           0      -11.152974   -2.075082    1.265930
     46          1           0      -12.646521   -3.074076   -0.375041
     47          1           0       -9.951874   -0.118329    2.574575
     48          1           0      -10.410903    1.273457    2.766895
     49          1           0      -11.216631   -0.261276    3.526138
     50          1           0      -13.766248    0.447748    0.766542
     51          1           0      -13.556320    0.365511    2.430025
     52          1           0      -12.886162    1.852026    1.567924
     53          1           0       12.748717    2.535777    0.164721
     54          1           0       12.834649    2.077584    1.848734
     55          1           0      -12.664219   -1.788398   -2.178774
     56          1           0       13.391834   -0.363460    1.147826
     57          1           0       -9.489514   -1.055266    0.305156
     58          1           0       13.509271   -1.014456   -1.059376
     59          1           0       13.197546    0.507734   -1.700625
     60          1           0        9.059655    2.078887    1.289522
     61          1           0       10.243170    2.551158   -0.073592
     62          1           0       10.438413    3.067691    1.642710
     63          1           0       11.677046   -0.452810    2.557720
     64          1           0       10.157252   -0.129434    2.558343
     65          1           0       11.205075    1.166563    3.167216
     66          1           0      -10.313460    0.348266   -2.882086
     67          1           0      -11.700637    1.565903   -2.286632
     68          1           0      -11.916867    0.218330   -3.391312
     69          1           0      -14.761220   -2.269921   -0.636315
     70          1           0        8.695543    0.476248    0.485937
     71          1           0       -8.774343    1.916497   -0.268465
     72          1           0       11.296513   -2.495187   -1.735769
     73          1           0       10.065842   -1.237953   -2.157125
     74          1           0       11.588677   -0.987583   -2.941461
     75          1           0       14.917274    1.306099    1.223386
     76          1           0        9.553550   -2.464206   -0.525871
     77          1           0       -5.682193   -1.098046    0.280001
     78          1           0       -7.100592   -1.110429    1.455450
     79          1           0       -6.981852   -1.629073   -0.534383
     80          1           0       -6.688428    2.517176   -0.508071
     81          1           0        6.960997   -4.024882    1.234454
     82          1           0        6.239859   -3.837418   -0.499584
     83          1           0        7.905097   -4.422134   -0.531004
     84          1           0        6.618464   -0.184316   -0.278158
     85          1           0       -4.259746    0.575807   -0.112463
     86          1           0        4.515738   -2.543966    0.209524
     87          1           0       -4.456550    3.517707   -0.709804
     88          1           0        4.364337    0.409254   -0.539502
     89          1           0       -1.588622    3.858602   -1.948482
     90          1           0       -1.322070    4.287431   -0.319901
     91          1           0       -2.709947    4.746831   -0.851391
     92          1           0       -2.151922    0.330852   -0.440307
     93          1           0        2.303794    1.329992   -0.401504
     94          1           0        2.581283   -2.408650    0.894368
     95          1           0        0.965303   -2.316625   -0.054665
     96          1           0        2.604440   -2.907003   -0.656390
     97          1           0        0.150907    2.457465   -0.732873
     98          1           0       -0.131412   -0.595583   -0.017873
 ---------------------------------------------------------------------

 SCF Done:  E(RCAM-B3LYP) =  -1706.93898116     A.U. after   15 cycles

 Excitation energies and oscillator strengths:

 Excited State   1:      Singlet-A      2.0560 eV  603.04 nm  f=2.7263  <S**2>=0.000
     155 ->158         0.11290
     156 ->157         0.70354
     156 <-157        -0.11806
 This state for optimization and/or second-order correction.
 Total Energy, E(TD-HF/TD-DFT) =  -1706.86342515
 Copying the excited state density for this state as the 1-particle RhoCI density.

 The electronic state is 1-A.
 Alpha  occ. eigenvalues --  -19.22096 -19.21715 -10.31021 -10.29783 -10.28039
 Alpha  occ. eigenvalues --  -10.27671 -10.27602 -10.27469 -10.27331 -10.27325
 Alpha  occ. eigenvalues --  -10.27236 -10.26988 -10.26900 -10.26777 -10.26628
 Alpha  occ. eigenvalues --  -10.26602 -10.26575 -10.26570 -10.26542 -10.26446
 Alpha  occ. eigenvalues --  -10.26241 -10.26112 -10.26092 -10.26053 -10.25914
 Alpha  occ. eigenvalues --  -10.25815 -10.25633 -10.25605 -10.25526 -10.25512
 Alpha  occ. eigenvalues --  -10.25392 -10.25202 -10.25149 -10.25119 -10.25110
 Alpha  occ. eigenvalues --  -10.24907 -10.24794 -10.24707 -10.23374 -10.23156
 Alpha  occ. eigenvalues --  -10.23151 -10.22582  -1.08533  -1.07992  -0.93551
 Alpha  occ. eigenvalues --   -0.92472  -0.91915  -0.91454  -0.90250  -0.89701
 Alpha  occ. eigenvalues --   -0.87588  -0.86981  -0.85889  -0.85319  -0.84664
 Alpha  occ. eigenvalues --   -0.83321  -0.82372  -0.80812  -0.79817  -0.79077
 Alpha  occ. eigenvalues --   -0.77632  -0.76648  -0.76128  -0.75591  -0.75561
 Alpha  occ. eigenvalues --   -0.75386  -0.75037  -0.74447  -0.72339  -0.69972
 Alpha  occ. eigenvalues --   -0.68380  -0.67593  -0.65798  -0.64687  -0.63637
 Alpha  occ. eigenvalues --   -0.63057  -0.62585  -0.62009  -0.60171  -0.59914
 Alpha  occ. eigenvalues --   -0.59135  -0.58714  -0.58683  -0.57673  -0.56285
 Alpha  occ. eigenvalues --   -0.55350  -0.54702  -0.54460  -0.54091  -0.54034
 Alpha  occ. eigenvalues --   -0.53507  -0.52847  -0.52577  -0.52161  -0.51568
 Alpha  occ. eigenvalues --   -0.50990  -0.50624  -0.50303  -0.50100  -0.49304
 Alpha  occ. eigenvalues --   -0.49139  -0.48796  -0.48367  -0.48333  -0.48063
 Alpha  occ. eigenvalues --   -0.47809  -0.47167  -0.46749  -0.46633  -0.46402
 Alpha  occ. eigenvalues --   -0.46072  -0.45549  -0.45127  -0.45025  -0.44799
 Alpha  occ. eigenvalues --   -0.44607  -0.44139  -0.43626  -0.43352  -0.42991
 Alpha  occ. eigenvalues --   -0.42946  -0.42818  -0.42736  -0.41975  -0.41759
 Alpha  occ. eigenvalues --   -0.41358  -0.41144  -0.40945  -0.40854  -0.40596
 Alpha  occ. eigenvalues --   -0.40413  -0.40346  -0.39925  -0.39154  -0.38991
 Alpha  occ. eigenvalues --   -0.38883  -0.38484  -0.38357  -0.38310  -0.37962
 Alpha  occ. eigenvalues --   -0.37029  -0.36552  -0.36182  -0.35673  -0.35169
 Alpha  occ. eigenvalues --   -0.34783  -0.34577  -0.33181  -0.31912  -0.31318
 Alpha  occ. eigenvalues --   -0.31208  -0.28897  -0.28617  -0.26221  -0.24367
 Alpha  occ. eigenvalues --   -0.18675
 Alpha virt. eigenvalues --   -0.06032   0.00088   0.02896   0.06008   0.07105
 Alpha virt. eigenvalues --    0.09488   0.10378   0.11028   0.11905   0.12151
 Alpha virt. eigenvalues --    0.12342   0.12668   0.13094   0.13208   0.13878

 Mulliken charges:
               1
     1  O   -0.544070
     2  O   -0.559030
     3  C    0.008259
     4  C   -0.149127
     5  C   -0.189626
     6  C    0.161967
     7  C    0.104862
     8  C   -0.013094
     9  C   -0.323747
    10  C   -0.287762
    11  C   -0.207662
    12  C   -0.166107
    13  C    0.171224
    14  C    0.064539
    15  C   -0.063192
    16  C   -0.173561
    17  C   -0.012203
    18  C   -0.313565
    19  C   -0.279966
    20  C   -0.353744
    21  C   -0.100359
    22  C   -0.081039
    23  C   -0.376026
    24  C    0.148685
    25  C   -0.124331
    26  C   -0.381189
    27  C    0.110221
    28  C   -0.142092
    29  C   -0.366937
    30  C   -0.116276
    31  C   -0.060057
    32  C   -0.094160
    33  C   -0.110394
    34  C    0.085530
    35  C   -0.095306
    36  C    0.083965
    37  C   -0.388708
    38  C   -0.110309
    39  C   -0.118849
    40  C   -0.381512
    41  C   -0.083722
    42  C   -0.097441
    43  H    0.071496
    44  H    0.105638
    45  H    0.102123
    46  H    0.099718
    47  H    0.108997
    48  H    0.100995
    49  H    0.091916
    50  H    0.130956
    51  H    0.101975
    52  H    0.077441
    53  H    0.089343
    54  H    0.054255
    55  H    0.067954
    56  H    0.089955
    57  H    0.092717
    58  H    0.116090
    59  H    0.124947
    60  H    0.085485
    61  H    0.123564
    62  H    0.104919
    63  H    0.113764
    64  H    0.115123
    65  H    0.061960
    66  H    0.119957
    67  H    0.130977
    68  H    0.085522
    69  H    0.307284
    70  H    0.073078
    71  H    0.076594
    72  H    0.112850
    73  H    0.133726
    74  H    0.095392
    75  H    0.305065
    76  H    0.081406
    77  H    0.113873
    78  H    0.092711
    79  H    0.117105
    80  H    0.080697
    81  H    0.089827
    82  H    0.100593
    83  H    0.120912
    84  H    0.087687
    85  H    0.075098
    86  H    0.066521
    87  H    0.067934
    88  H    0.067524
    89  H    0.146968
    90  H    0.120835
    91  H    0.111196
    92  H    0.097936
    93  H    0.085999
    94  H    0.132947
    95  H    0.095447
    96  H    0.133967
    97  H    0.084153
    98  H    0.082797
 Sum of Mulliken charges =  -0.00000

 Dipole moment (field-independent basis, Debye):
    X=             -0.9171    Y=             -0.9426    Z=             -0.3033  Tot=              1.3496
 Quadrupole moment (field-independent basis, Debye-Ang):
   XX=           -299.3399   YY=           -238.7126   ZZ=           -261.1773
   XY=             14.0437   XZ=             35.4326   YZ=              2.4315

 Normal termination of Gaussian 16 at Tue Jul 16 08:50:18 2019.
