 Gaussian 16, Revision A.03,
 Gaussian 16:  ES64L-G16RevA.03 25-Dec-2016

 -------------------------------------
 # td=(NStates=1) CAM-B3LYP/6-31G(d,p)
 -------------------------------------

 --
 TD
 --
 Symbolic Z-matrix:
 Charge =  0 Multiplicity = 1

                         Standard orientation:
 ---------------------------------------------------------------------
 Center     Atomic      Atomic             Coordinates (Angstroms)
 Number     Number       Type             X           Y           Z
 ---------------------------------------------------------------------
      1          8           0      -14.383746   -1.772123    0.747180
      2          8           0       14.871110    1.098428    0.123121
      3          6           0      -11.754427    0.113373    1.328071
      4          6           0      -11.006847    0.272975    0.035827
      5          6           0      -12.037656   -1.304201    1.591738
      6          6           0      -12.995186   -1.954387    0.466565
      7          6           0      -11.769564   -0.389621   -1.123968
      8          6           0       11.245266    1.045547    1.095551
      9          6           0      -10.862156    0.663250    2.604427
     10          6           0      -13.048655    0.882233    1.504455
     11          6           0       12.616427    1.604682    0.871885
     12          6           0      -12.587745   -1.473946   -0.910710
     13          6           0       13.578660    0.523407    0.548790
     14          6           0       10.819748    0.062132    0.031357
     15          6           0       -9.476329   -0.117439   -0.072840
     16          6           0       13.131880   -0.120214   -0.799901
     17          6           0       11.631610   -0.557750   -0.789439
     18          6           0       10.219269    2.267408    1.143317
     19          6           0       11.135318    0.466500    2.461374
     20          6           0      -11.515014    0.090007   -2.518395
     21          6           0       -8.603565    0.824910   -0.259165
     22          6           0        9.394049   -0.423153    0.143299
     23          6           0       11.389329   -1.474374   -1.969411
     24          6           0       -7.194609    0.450074   -0.185406
     25          6           0        8.931330   -1.655368   -0.025912
     26          6           0       -6.894548   -0.908997   -0.131296
     27          6           0        7.524256   -2.115540   -0.059523
     28          6           0       -6.240740    1.549677   -0.405243
     29          6           0        7.303671   -3.583273    0.462782
     30          6           0        6.458883   -1.265797   -0.302919
     31          6           0       -4.889518    1.416701   -0.479133
     32          6           0        5.112272   -1.580346   -0.238449
     33          6           0       -4.025376    2.495123   -0.775338
     34          6           0       -2.737760    2.512290   -0.843286
     35          6           0        4.048449   -0.640041   -0.394717
     36          6           0        2.596057   -0.951395   -0.398385
     37          6           0       -1.932713    3.767463   -1.139429
     38          6           0       -1.916128    1.299101   -0.669534
     39          6           0        1.761947    0.125092   -0.557024
     40          6           0        2.179446   -2.373432   -0.087058
     41          6           0       -0.516114    1.272995   -0.762780
     42          6           0        0.308706    0.136612   -0.485527
     43          1           0      -10.982436    1.372448   -0.292062
     44          1           0      -12.490051   -1.305301    2.548159
     45          1           0      -11.148149   -1.868408    1.441909
     46          1           0      -12.576502   -2.990422    0.333836
     47          1           0       -9.964539    0.090343    2.891364
     48          1           0      -10.618984    1.682842    2.196123
     49          1           0      -11.443715    0.683221    3.658805
     50          1           0      -13.774096    0.559521    0.658840
     51          1           0      -13.609326    0.735947    2.343079
     52          1           0      -12.918956    2.040753    1.603954
     53          1           0       12.535275    2.414099   -0.056982
     54          1           0       12.833158    2.408188    1.739526
     55          1           0      -12.944160   -1.957603   -1.846088
     56          1           0       13.811452   -0.186187    1.199212
     57          1           0       -9.330840   -1.150282   -0.151291
     58          1           0       13.710286   -1.134877   -0.972030
     59          1           0       13.393158    0.554842   -1.506702
     60          1           0        9.231679    1.940010    1.396790
     61          1           0       10.233269    2.808036    0.142106
     62          1           0       10.435423    2.868848    1.913298
     63          1           0       11.640214   -0.325658    2.609535
     64          1           0       10.087770    0.214225    2.691229
     65          1           0       11.215131    1.283777    3.094989
     66          1           0      -10.442924    0.298762   -2.668152
     67          1           0      -11.917438    1.099349   -2.901044
     68          1           0      -11.632489   -0.823118   -3.287321
     69          1           0      -14.715732   -2.132892   -0.000308
     70          1           0        8.805317    0.363493    0.404349
     71          1           0       -9.031600    1.907154   -0.283296
     72          1           0       11.812766   -2.531853   -1.743791
     73          1           0       10.247531   -1.764883   -2.134331
     74          1           0       11.966050   -1.075667   -2.989861
     75          1           0       15.397126    1.354081    0.991278
     76          1           0        9.665460   -2.422528   -0.146030
     77          1           0       -5.823942   -1.164506   -0.205033
     78          1           0       -7.114747   -1.481561    0.722500
     79          1           0       -7.403753   -1.393065   -0.895619
     80          1           0       -6.480561    2.526407   -0.494735
     81          1           0        6.840992   -3.609148    1.420342
     82          1           0        6.607046   -4.120710   -0.299523
     83          1           0        8.303665   -4.142212    0.623684
     84          1           0        6.611236   -0.328974   -0.499600
     85          1           0       -4.427332    0.286203   -0.352648
     86          1           0        4.825678   -2.652708   -0.014922
     87          1           0       -4.473612    3.595720   -0.739200
     88          1           0        4.325359    0.448212   -0.532302
     89          1           0       -1.472190    3.853772   -2.147799
     90          1           0       -1.110459    3.777717   -0.330958
     91          1           0       -2.766098    4.583191   -1.112401
     92          1           0       -2.506425    0.419718   -0.380524
     93          1           0        2.132100    1.201202   -0.620507
     94          1           0        2.554153   -2.723596    0.914236
     95          1           0        1.043979   -2.429979   -0.045372
     96          1           0        2.578227   -3.021731   -1.064266
     97          1           0        0.108666    2.025848   -1.050505
     98          1           0       -0.021572   -0.984185   -0.164238
 ---------------------------------------------------------------------

 SCF Done:  E(RCAM-B3LYP) =  -1706.94176131     A.U. after   16 cycles

 Excitation energies and oscillator strengths:

 Excited State   1:      Singlet-A      1.7959 eV  690.37 nm  f=2.7263  <S**2>=0.000
     155 ->158         0.11590
     156 ->157         0.71057
     156 <-157        -0.14824
 This state for optimization and/or second-order correction.
 Total Energy, E(TD-HF/TD-DFT) =  -1706.87576318
 Copying the excited state density for this state as the 1-particle RhoCI density.

 The electronic state is 1-A.
 Alpha  occ. eigenvalues --  -19.21681 -19.20799 -10.31198 -10.29526 -10.28323
 Alpha  occ. eigenvalues --  -10.28188 -10.28163 -10.28034 -10.27800 -10.27745
 Alpha  occ. eigenvalues --  -10.27529 -10.27400 -10.27179 -10.27034 -10.26960
 Alpha  occ. eigenvalues --  -10.26838 -10.26808 -10.26770 -10.26730 -10.26687
 Alpha  occ. eigenvalues --  -10.26631 -10.26624 -10.26610 -10.26572 -10.26484
 Alpha  occ. eigenvalues --  -10.26461 -10.26402 -10.26192 -10.25940 -10.25698
 Alpha  occ. eigenvalues --  -10.25466 -10.25445 -10.25410 -10.25305 -10.24879
 Alpha  occ. eigenvalues --  -10.24736 -10.24670 -10.24334 -10.24142 -10.24083
 Alpha  occ. eigenvalues --  -10.23433 -10.22343  -1.11814  -1.06222  -0.94205
 Alpha  occ. eigenvalues --   -0.93868  -0.92581  -0.91448  -0.90912  -0.89627
 Alpha  occ. eigenvalues --   -0.87430  -0.86879  -0.86312  -0.85548  -0.84614
 Alpha  occ. eigenvalues --   -0.83163  -0.82122  -0.80630  -0.79671  -0.77952
 Alpha  occ. eigenvalues --   -0.77328  -0.76910  -0.76214  -0.75752  -0.75456
 Alpha  occ. eigenvalues --   -0.74893  -0.74487  -0.73487  -0.72323  -0.70678
 Alpha  occ. eigenvalues --   -0.69011  -0.67654  -0.66642  -0.65802  -0.63910
 Alpha  occ. eigenvalues --   -0.63478  -0.62381  -0.61617  -0.61250  -0.60464
 Alpha  occ. eigenvalues --   -0.59895  -0.59270  -0.58714  -0.58167  -0.55983
 Alpha  occ. eigenvalues --   -0.55775  -0.54739  -0.54360  -0.53926  -0.53533
 Alpha  occ. eigenvalues --   -0.53212  -0.52901  -0.52522  -0.52117  -0.51065
 Alpha  occ. eigenvalues --   -0.50586  -0.50305  -0.50111  -0.49963  -0.49028
 Alpha  occ. eigenvalues --   -0.48799  -0.48508  -0.48354  -0.47967  -0.47690
 Alpha  occ. eigenvalues --   -0.47422  -0.47336  -0.47195  -0.46449  -0.46089
 Alpha  occ. eigenvalues --   -0.45687  -0.45455  -0.45211  -0.45057  -0.44844
 Alpha  occ. eigenvalues --   -0.44544  -0.44346  -0.44024  -0.43710  -0.43620
 Alpha  occ. eigenvalues --   -0.43227  -0.43087  -0.42511  -0.42408  -0.41993
 Alpha  occ. eigenvalues --   -0.41949  -0.41635  -0.41294  -0.41060  -0.40360
 Alpha  occ. eigenvalues --   -0.40289  -0.40081  -0.40000  -0.39704  -0.39225
 Alpha  occ. eigenvalues --   -0.38997  -0.38813  -0.38513  -0.38416  -0.37861
 Alpha  occ. eigenvalues --   -0.37555  -0.37122  -0.36539  -0.36375  -0.35757
 Alpha  occ. eigenvalues --   -0.35057  -0.33896  -0.33253  -0.32457  -0.32115
 Alpha  occ. eigenvalues --   -0.31919  -0.29518  -0.28685  -0.27779  -0.23472
 Alpha  occ. eigenvalues --   -0.18242
 Alpha virt. eigenvalues --   -0.07171  -0.01327   0.03364   0.05389   0.06862
 Alpha virt. eigenvalues --    0.09149   0.11011   0.11388   0.11701   0.12017
 Alpha virt. eigenvalues --    0.12515   0.12742   0.13210   0.13514   0.13664

 Mulliken charges:
               1
     1  O   -0.506292
     2  O   -0.578893
     3  C    0.027291
     4  C   -0.153860
     5  C   -0.154393
     6  C    0.106338
     7  C    0.134182
     8  C   -0.049648
     9  C   -0.306333
    10  C   -0.293131
    11  C   -0.163737
    12  C   -0.172066
    13  C    0.159600
    14  C    0.098480
    15  C   -0.058735
    16  C   -0.213203
    17  C    0.026249
    18  C   -0.316356
    19  C   -0.265951
    20  C   -0.373714
    21  C   -0.087746
    22  C   -0.075997
    23  C   -0.352423
    24  C    0.093153
    25  C   -0.124059
    26  C   -0.400989
    27  C    0.057641
    28  C   -0.092222
    29  C   -0.369442
    30  C   -0.063517
    31  C   -0.060429
    32  C   -0.096249
    33  C   -0.151695
    34  C    0.111777
    35  C   -0.126266
    36  C    0.105405
    37  C   -0.358670
    38  C   -0.097133
    39  C   -0.125399
    40  C   -0.355147
    41  C   -0.094696
    42  C   -0.088645
    43  H    0.075651
    44  H    0.108925
    45  H    0.088951
    46  H    0.080549
    47  H    0.098014
    48  H    0.095944
    49  H    0.078685
    50  H    0.108705
    51  H    0.119213
    52  H    0.068940
    53  H    0.083473
    54  H    0.068569
    55  H    0.075693
    56  H    0.096255
    57  H    0.091894
    58  H    0.083976
    59  H    0.137434
    60  H    0.104999
    61  H    0.100197
    62  H    0.106131
    63  H    0.102287
    64  H    0.097936
    65  H    0.100681
    66  H    0.114334
    67  H    0.118351
    68  H    0.092792
    69  H    0.298035
    70  H    0.069591
    71  H    0.094354
    72  H    0.105083
    73  H    0.109421
    74  H    0.099396
    75  H    0.295715
    76  H    0.082637
    77  H    0.106262
    78  H    0.134018
    79  H    0.137883
    80  H    0.076015
    81  H    0.136162
    82  H    0.110654
    83  H    0.101339
    84  H    0.064174
    85  H    0.073707
    86  H    0.076872
    87  H    0.069642
    88  H    0.082001
    89  H    0.128238
    90  H    0.120356
    91  H    0.087263
    92  H    0.077939
    93  H    0.079148
    94  H    0.132214
    95  H    0.104429
    96  H    0.109580
    97  H    0.085762
    98  H    0.060451
 Sum of Mulliken charges =  -0.00000

 Dipole moment (field-independent basis, Debye):
    X=              0.7511    Y=             -1.2789    Z=              0.8238  Tot=              1.6966
 Quadrupole moment (field-independent basis, Debye-Ang):
   XX=           -287.5506   YY=           -244.7586   ZZ=           -262.1407
   XY=              4.5316   XZ=             46.0250   YZ=              1.4117

 Normal termination of Gaussian 16 at Tue Jul 16 05:26:22 2019.
