 Gaussian 16, Revision A.03,
 Gaussian 16:  ES64L-G16RevA.03 25-Dec-2016

 -------------------------------------
 # td=(NStates=1) CAM-B3LYP/6-31G(d,p)
 -------------------------------------

 --
 TD
 --
 Symbolic Z-matrix:
 Charge =  0 Multiplicity = 1

                         Standard orientation:
 ---------------------------------------------------------------------
 Center     Atomic      Atomic             Coordinates (Angstroms)
 Number     Number       Type             X           Y           Z
 ---------------------------------------------------------------------
      1          8           0      -14.107344   -2.168754    0.982980
      2          8           0       14.835295    0.752771    0.491053
      3          6           0      -11.806849    0.125422    1.357510
      4          6           0      -11.095413    0.384835    0.010907
      5          6           0      -11.853621   -1.395195    1.660933
      6          6           0      -12.669157   -2.229569    0.573950
      7          6           0      -11.818301   -0.433582   -1.149371
      8          6           0       11.093755    0.828387    1.241718
      9          6           0      -10.892251    0.749505    2.443400
     10          6           0      -13.206737    0.696624    1.401236
     11          6           0       12.581446    1.437528    1.169852
     12          6           0      -12.376550   -1.630535   -0.842639
     13          6           0       13.575247    0.277809    0.654600
     14          6           0       10.731126   -0.027138    0.109538
     15          6           0       -9.634963   -0.056830   -0.071859
     16          6           0       13.172144   -0.198151   -0.695911
     17          6           0       11.610623   -0.494320   -0.782201
     18          6           0       10.217914    2.055323    1.341886
     19          6           0       10.935002    0.082783    2.597781
     20          6           0      -11.614688    0.074035   -2.529923
     21          6           0       -8.602441    0.833799   -0.165971
     22          6           0        9.330763   -0.337791    0.064536
     23          6           0       11.391120   -1.156466   -2.118427
     24          6           0       -7.143329    0.468910   -0.247659
     25          6           0        8.803969   -1.630936   -0.240394
     26          6           0       -6.641616   -0.948280   -0.097712
     27          6           0        7.490908   -2.011025   -0.209337
     28          6           0       -6.311270    1.523311   -0.349384
     29          6           0        7.188186   -3.510138   -0.008401
     30          6           0        6.359162   -1.057174   -0.358285
     31          6           0       -4.849250    1.412964   -0.508327
     32          6           0        5.045320   -1.489468   -0.355652
     33          6           0       -4.007326    2.452773   -0.744496
     34          6           0       -2.654980    2.558993   -0.839569
     35          6           0        4.011263   -0.534005   -0.610961
     36          6           0        2.619276   -0.749402   -0.534308
     37          6           0       -2.107924    3.961647   -1.120085
     38          6           0       -1.671631    1.483181   -0.588519
     39          6           0        1.809963    0.345214   -0.740687
     40          6           0        2.134322   -2.183175   -0.202888
     41          6           0       -0.269711    1.679793   -0.671359
     42          6           0        0.402240    0.457216   -0.534352
     43          1           0      -10.888651    1.417310   -0.280259
     44          1           0      -12.384788   -1.571963    2.616178
     45          1           0      -10.751222   -1.704449    1.831808
     46          1           0      -12.452554   -3.262718    0.473025
     47          1           0       -9.828381    0.317169    2.538608
     48          1           0      -10.837748    1.831384    2.316838
     49          1           0      -11.381850    0.625601    3.566480
     50          1           0      -13.634384    0.472046    0.508831
     51          1           0      -13.788212    0.491314    2.290193
     52          1           0      -13.172917    1.726529    1.179616
     53          1           0       12.615705    2.055715    0.316445
     54          1           0       12.974801    1.775171    2.078649
     55          1           0      -12.945798   -2.147779   -1.674195
     56          1           0       13.481053   -0.381851    1.499325
     57          1           0       -9.366991   -1.018594    0.123008
     58          1           0       13.718501   -1.173259   -1.052137
     59          1           0       13.563309    0.528161   -1.441232
     60          1           0        9.076242    2.061341    1.688471
     61          1           0       10.294670    2.668171    0.414334
     62          1           0       10.799319    2.678214    2.089282
     63          1           0       11.573368   -0.690320    2.713539
     64          1           0        9.991950   -0.185845    2.561304
     65          1           0       11.051938    0.776681    3.410208
     66          1           0      -10.675844    0.396799   -2.744979
     67          1           0      -12.359926    0.957243   -2.665128
     68          1           0      -11.866283   -0.741989   -3.232288
     69          1           0      -14.513789   -2.561557    0.226118
     70          1           0        8.517688    0.327133    0.265517
     71          1           0       -8.945230    1.889059   -0.172275
     72          1           0       11.551992   -2.104709   -2.306507
     73          1           0       10.322675   -1.061328   -2.565024
     74          1           0       11.893172   -0.555124   -2.956285
     75          1           0       15.328878    1.177889    1.188729
     76          1           0        9.481066   -2.557150   -0.500596
     77          1           0       -5.569225   -1.036680   -0.317001
     78          1           0       -7.040601   -1.299255    0.908204
     79          1           0       -7.258966   -1.683448   -0.704588
     80          1           0       -6.886582    2.436173   -0.388725
     81          1           0        7.047466   -3.906276    0.919747
     82          1           0        6.292272   -3.804273   -0.754998
     83          1           0        8.172797   -3.867950   -0.490606
     84          1           0        6.668234   -0.005431   -0.711773
     85          1           0       -4.305679    0.388778   -0.344248
     86          1           0        4.754711   -2.312086   -0.219746
     87          1           0       -4.563228    3.514699   -0.889190
     88          1           0        4.340050    0.362786   -0.893072
     89          1           0       -1.485730    4.053421   -2.010371
     90          1           0       -1.584597    4.270163   -0.184444
     91          1           0       -2.889491    4.551163   -1.113902
     92          1           0       -2.244968    0.667513   -0.312456
     93          1           0        2.395349    1.221201   -0.659698
     94          1           0        2.395307   -2.545190    0.721890
     95          1           0        1.047532   -2.246989   -0.321170
     96          1           0        2.756658   -2.890661   -0.851059
     97          1           0        0.223860    2.690267   -0.899899
     98          1           0       -0.185002   -0.585584   -0.435761
 ---------------------------------------------------------------------

 SCF Done:  E(RCAM-B3LYP) =  -1706.96725511     A.U. after   15 cycles

 Excitation energies and oscillator strengths:

 Excited State   1:      Singlet-A      1.8731 eV  661.91 nm  f=3.0982  <S**2>=0.000
     155 ->158         0.14977
     156 ->157         0.69667
     156 <-157        -0.11089
 This state for optimization and/or second-order correction.
 Total Energy, E(TD-HF/TD-DFT) =  -1706.89841849
 Copying the excited state density for this state as the 1-particle RhoCI density.

 The electronic state is 1-A.
 Alpha  occ. eigenvalues --  -19.20817 -19.20512 -10.31377 -10.29617 -10.28085
 Alpha  occ. eigenvalues --  -10.28026 -10.27568 -10.27464 -10.27455 -10.27415
 Alpha  occ. eigenvalues --  -10.27374 -10.27122 -10.27025 -10.26988 -10.26851
 Alpha  occ. eigenvalues --  -10.26796 -10.26697 -10.26684 -10.26682 -10.26643
 Alpha  occ. eigenvalues --  -10.26504 -10.26379 -10.26275 -10.26195 -10.26016
 Alpha  occ. eigenvalues --  -10.25856 -10.25829 -10.25817 -10.25766 -10.25629
 Alpha  occ. eigenvalues --  -10.25580 -10.25517 -10.25416 -10.25303 -10.25289
 Alpha  occ. eigenvalues --  -10.25131 -10.24600 -10.24577 -10.23963 -10.23906
 Alpha  occ. eigenvalues --  -10.21938 -10.21717  -1.10793  -1.07876  -0.93771
 Alpha  occ. eigenvalues --   -0.93059  -0.92015  -0.91305  -0.90176  -0.89594
 Alpha  occ. eigenvalues --   -0.87188  -0.86578  -0.86489  -0.85021  -0.84326
 Alpha  occ. eigenvalues --   -0.83179  -0.81540  -0.80385  -0.79713  -0.78735
 Alpha  occ. eigenvalues --   -0.77013  -0.76965  -0.76460  -0.76241  -0.76145
 Alpha  occ. eigenvalues --   -0.75529  -0.74588  -0.73710  -0.72569  -0.70689
 Alpha  occ. eigenvalues --   -0.69301  -0.68128  -0.66828  -0.65782  -0.64807
 Alpha  occ. eigenvalues --   -0.63722  -0.63020  -0.61826  -0.61084  -0.59714
 Alpha  occ. eigenvalues --   -0.59689  -0.58859  -0.57693  -0.57021  -0.56423
 Alpha  occ. eigenvalues --   -0.55913  -0.55194  -0.54655  -0.53949  -0.53801
 Alpha  occ. eigenvalues --   -0.53390  -0.52503  -0.52447  -0.51682  -0.50840
 Alpha  occ. eigenvalues --   -0.50759  -0.50243  -0.50022  -0.49467  -0.49242
 Alpha  occ. eigenvalues --   -0.49172  -0.48751  -0.48634  -0.48370  -0.47941
 Alpha  occ. eigenvalues --   -0.47429  -0.47307  -0.46841  -0.46551  -0.46422
 Alpha  occ. eigenvalues --   -0.46255  -0.45936  -0.45298  -0.45147  -0.44613
 Alpha  occ. eigenvalues --   -0.44428  -0.44332  -0.44149  -0.44026  -0.43695
 Alpha  occ. eigenvalues --   -0.43069  -0.42881  -0.42802  -0.42544  -0.41907
 Alpha  occ. eigenvalues --   -0.41759  -0.41378  -0.41196  -0.41186  -0.40769
 Alpha  occ. eigenvalues --   -0.40612  -0.40388  -0.39830  -0.39527  -0.39380
 Alpha  occ. eigenvalues --   -0.39294  -0.39012  -0.38497  -0.38121  -0.37816
 Alpha  occ. eigenvalues --   -0.37483  -0.37029  -0.36757  -0.36407  -0.35586
 Alpha  occ. eigenvalues --   -0.35333  -0.34498  -0.33651  -0.32444  -0.31685
 Alpha  occ. eigenvalues --   -0.29991  -0.29775  -0.28971  -0.27274  -0.22865
 Alpha  occ. eigenvalues --   -0.18375
 Alpha virt. eigenvalues --   -0.06596  -0.01541   0.02989   0.05375   0.07090
 Alpha virt. eigenvalues --    0.08960   0.10974   0.11606   0.12279   0.12617
 Alpha virt. eigenvalues --    0.12931   0.13273   0.13447   0.13812   0.14255

 Mulliken charges:
               1
     1  O   -0.543103
     2  O   -0.559583
     3  C    0.031248
     4  C   -0.133281
     5  C   -0.177564
     6  C    0.126603
     7  C    0.115483
     8  C   -0.058475
     9  C   -0.295609
    10  C   -0.277240
    11  C   -0.203007
    12  C   -0.164560
    13  C    0.186402
    14  C    0.121212
    15  C   -0.076430
    16  C   -0.217277
    17  C    0.031762
    18  C   -0.298754
    19  C   -0.281005
    20  C   -0.354689
    21  C   -0.119304
    22  C   -0.140174
    23  C   -0.371233
    24  C    0.125719
    25  C   -0.101776
    26  C   -0.374350
    27  C    0.059289
    28  C   -0.116175
    29  C   -0.350446
    30  C   -0.121900
    31  C   -0.107269
    32  C    0.005516
    33  C   -0.108550
    34  C    0.048523
    35  C   -0.124794
    36  C    0.120229
    37  C   -0.363170
    38  C   -0.079581
    39  C   -0.143518
    40  C   -0.374793
    41  C   -0.087617
    42  C   -0.085914
    43  H    0.081820
    44  H    0.114046
    45  H    0.082227
    46  H    0.097938
    47  H    0.100054
    48  H    0.097231
    49  H    0.064322
    50  H    0.114130
    51  H    0.114105
    52  H    0.081281
    53  H    0.101266
    54  H    0.084104
    55  H    0.059893
    56  H    0.070043
    57  H    0.073772
    58  H    0.096652
    59  H    0.123119
    60  H    0.087767
    61  H    0.100922
    62  H    0.094631
    63  H    0.105350
    64  H    0.114401
    65  H    0.092149
    66  H    0.134681
    67  H    0.106866
    68  H    0.109213
    69  H    0.299631
    70  H    0.096121
    71  H    0.081489
    72  H    0.130780
    73  H    0.097245
    74  H    0.101281
    75  H    0.302879
    76  H    0.075118
    77  H    0.118997
    78  H    0.121424
    79  H    0.114475
    80  H    0.084314
    81  H    0.140795
    82  H    0.097104
    83  H    0.097014
    84  H    0.088517
    85  H    0.077304
    86  H    0.020247
    87  H    0.065319
    88  H    0.065919
    89  H    0.121617
    90  H    0.116206
    91  H    0.109588
    92  H    0.071283
    93  H    0.084620
    94  H    0.139003
    95  H    0.107303
    96  H    0.109168
    97  H    0.116134
    98  H    0.086282
 Sum of Mulliken charges =  -0.00000

 Dipole moment (field-independent basis, Debye):
    X=              1.5557    Y=             -0.3347    Z=             -0.3189  Tot=              1.6229
 Quadrupole moment (field-independent basis, Debye-Ang):
   XX=           -267.0486   YY=           -244.0483   ZZ=           -262.9061
   XY=              7.7419   XZ=             38.4876   YZ=              2.4267

 Normal termination of Gaussian 16 at Sun Jul 14 19:13:46 2019.
