 Gaussian 16, Revision A.03,
 Gaussian 16:  ES64L-G16RevA.03 25-Dec-2016

 -------------------------------------
 # td=(NStates=1) CAM-B3LYP/6-31G(d,p)
 -------------------------------------

 --
 TD
 --
 Symbolic Z-matrix:
 Charge =  0 Multiplicity = 1

                         Standard orientation:
 ---------------------------------------------------------------------
 Center     Atomic      Atomic             Coordinates (Angstroms)
 Number     Number       Type             X           Y           Z
 ---------------------------------------------------------------------
      1          8           0      -14.103737   -2.174053    0.802164
      2          8           0       14.803899    0.595911    0.405635
      3          6           0      -11.671215    0.128177    1.359477
      4          6           0      -10.990338    0.303726   -0.012877
      5          6           0      -11.931916   -1.375234    1.601771
      6          6           0      -12.684496   -2.245970    0.532403
      7          6           0      -11.674153   -0.551030   -1.137287
      8          6           0       11.118515    0.924867    1.252245
      9          6           0      -10.789125    0.604145    2.519505
     10          6           0      -12.987726    0.825151    1.261704
     11          6           0       12.545914    1.366931    1.056290
     12          6           0      -12.429842   -1.545604   -0.845207
     13          6           0       13.422051    0.253047    0.468975
     14          6           0       10.593427   -0.007754    0.093708
     15          6           0       -9.547889   -0.177480   -0.080947
     16          6           0       13.001601   -0.235820   -0.890637
     17          6           0       11.509451   -0.504808   -0.841261
     18          6           0       10.261609    2.212676    1.216772
     19          6           0       10.963567    0.173099    2.637882
     20          6           0      -11.388163    0.001395   -2.569120
     21          6           0       -8.486498    0.744152   -0.151334
     22          6           0        9.227672   -0.490196    0.212317
     23          6           0       11.091999   -1.305389   -2.088509
     24          6           0       -7.137436    0.450409   -0.198037
     25          6           0        8.753456   -1.733728   -0.175779
     26          6           0       -6.548421   -0.990377    0.026275
     27          6           0        7.350159   -2.120978   -0.112236
     28          6           0       -6.229465    1.473019   -0.335985
     29          6           0        7.080564   -3.549227   -0.123924
     30          6           0        6.394421   -1.149559   -0.297457
     31          6           0       -4.763201    1.403076   -0.329254
     32          6           0        4.958336   -1.416645   -0.210612
     33          6           0       -4.064096    2.562740   -0.632440
     34          6           0       -2.597142    2.740062   -0.755562
     35          6           0        4.054595   -0.478557   -0.575154
     36          6           0        2.679729   -0.666137   -0.456025
     37          6           0       -2.062967    4.189499   -1.061587
     38          6           0       -1.794143    1.638437   -0.618549
     39          6           0        1.811995    0.473282   -0.668133
     40          6           0        2.142226   -2.001625   -0.136722
     41          6           0       -0.356818    1.612917   -0.801607
     42          6           0        0.431705    0.460551   -0.650268
     43          1           0      -11.176074    1.478808   -0.110072
     44          1           0      -12.296664   -1.621090    2.682473
     45          1           0      -10.893916   -2.029283    1.653275
     46          1           0      -12.345702   -3.392269    0.552358
     47          1           0       -9.810907    0.073257    2.548616
     48          1           0      -10.841496    1.785011    2.236687
     49          1           0      -11.239041    0.383423    3.383523
     50          1           0      -13.502606    0.549915    0.403875
     51          1           0      -13.678211    0.606065    2.221639
     52          1           0      -12.873465    1.865998    1.135844
     53          1           0       12.608605    2.295608    0.431909
     54          1           0       12.952321    1.638664    2.107490
     55          1           0      -12.822993   -2.140713   -1.579718
     56          1           0       13.229745   -0.548676    1.184131
     57          1           0       -9.281662   -1.169488    0.089584
     58          1           0       13.452848   -1.047533   -1.233593
     59          1           0       13.185654    0.744476   -1.451584
     60          1           0        9.256512    1.905762    1.657317
     61          1           0       10.301901    2.581496    0.043669
     62          1           0       10.785964    3.050688    1.899194
     63          1           0       11.593537   -0.759162    2.756433
     64          1           0        9.891637   -0.108675    2.847960
     65          1           0       11.096932    0.858494    3.537983
     66          1           0      -10.249530   -0.075686   -2.849725
     67          1           0      -11.796775    0.935673   -2.703476
     68          1           0      -11.790276   -0.824710   -3.234668
     69          1           0      -14.620799   -2.078286   -0.001963
     70          1           0        8.725827    0.338507    0.533239
     71          1           0       -8.743532    1.838288   -0.094708
     72          1           0       11.432925   -2.394592   -1.953373
     73          1           0       10.051780   -1.254745   -2.406864
     74          1           0       11.651153   -1.081269   -3.034558
     75          1           0       15.137164    0.911907    1.205889
     76          1           0        9.495868   -2.474793   -0.315097
     77          1           0       -5.416734   -1.014454   -0.181445
     78          1           0       -6.746236   -1.220393    1.233323
     79          1           0       -6.958464   -1.741496   -0.678863
     80          1           0       -6.796124    2.529353   -0.257604
     81          1           0        6.955215   -3.754514    1.016392
     82          1           0        6.127260   -3.806638   -0.677423
     83          1           0        7.938399   -4.142203   -0.499866
     84          1           0        6.623388   -0.150971   -0.608498
     85          1           0       -4.428144    0.397271   -0.405273
     86          1           0        4.694779   -2.246795    0.044063
     87          1           0       -4.646828    3.497095   -0.645592
     88          1           0        4.416269    0.714618   -0.789449
     89          1           0       -1.688366    4.111106   -2.132802
     90          1           0       -1.288284    4.479080   -0.482359
     91          1           0       -2.770840    4.881855   -1.103018
     92          1           0       -2.031677    0.524078   -0.396628
     93          1           0        2.328846    1.572414   -0.750950
     94          1           0        2.064091   -1.986156    1.088201
     95          1           0        1.114812   -2.054032   -0.557124
     96          1           0        2.744315   -2.903116   -0.648330
     97          1           0       -0.065149    2.597328   -0.728964
     98          1           0       -0.206200   -0.470825   -0.540768
 ---------------------------------------------------------------------

 SCF Done:  E(RCAM-B3LYP) =  -1706.98089680     A.U. after   15 cycles

 Excitation energies and oscillator strengths:

 Excited State   1:      Singlet-A      2.1605 eV  573.87 nm  f=3.1050  <S**2>=0.000
     155 ->158         0.15554
     156 ->157         0.68873
 This state for optimization and/or second-order correction.
 Total Energy, E(TD-HF/TD-DFT) =  -1706.90150042
 Copying the excited state density for this state as the 1-particle RhoCI density.

 The electronic state is 1-A.
 Alpha  occ. eigenvalues --  -19.20364 -19.20248 -10.32169 -10.29906 -10.28161
 Alpha  occ. eigenvalues --  -10.28143 -10.27907 -10.27859 -10.27701 -10.27621
 Alpha  occ. eigenvalues --  -10.27556 -10.27364 -10.27322 -10.27199 -10.27098
 Alpha  occ. eigenvalues --  -10.26958 -10.26900 -10.26769 -10.26740 -10.26661
 Alpha  occ. eigenvalues --  -10.26523 -10.26495 -10.26474 -10.26206 -10.26199
 Alpha  occ. eigenvalues --  -10.26137 -10.26104 -10.26042 -10.25940 -10.25884
 Alpha  occ. eigenvalues --  -10.25794 -10.25736 -10.25666 -10.25574 -10.25435
 Alpha  occ. eigenvalues --  -10.25268 -10.25100 -10.24795 -10.24375 -10.24268
 Alpha  occ. eigenvalues --  -10.24239 -10.23323  -1.09526  -1.07893  -0.93313
 Alpha  occ. eigenvalues --   -0.93248  -0.92211  -0.90994  -0.90425  -0.89586
 Alpha  occ. eigenvalues --   -0.86985  -0.86892  -0.86783  -0.85294  -0.84174
 Alpha  occ. eigenvalues --   -0.82607  -0.81455  -0.79775  -0.79513  -0.78613
 Alpha  occ. eigenvalues --   -0.76587  -0.75919  -0.75654  -0.75332  -0.75299
 Alpha  occ. eigenvalues --   -0.75085  -0.74853  -0.74663  -0.72460  -0.70436
 Alpha  occ. eigenvalues --   -0.69001  -0.67510  -0.66575  -0.65457  -0.63380
 Alpha  occ. eigenvalues --   -0.62860  -0.62607  -0.62229  -0.61233  -0.60150
 Alpha  occ. eigenvalues --   -0.59066  -0.58363  -0.57508  -0.57082  -0.55712
 Alpha  occ. eigenvalues --   -0.55308  -0.54714  -0.54598  -0.54133  -0.53129
 Alpha  occ. eigenvalues --   -0.52850  -0.52316  -0.52148  -0.51867  -0.50907
 Alpha  occ. eigenvalues --   -0.50478  -0.50260  -0.50090  -0.49609  -0.49227
 Alpha  occ. eigenvalues --   -0.48662  -0.48587  -0.48437  -0.48164  -0.48011
 Alpha  occ. eigenvalues --   -0.47437  -0.47173  -0.47072  -0.46795  -0.46305
 Alpha  occ. eigenvalues --   -0.45856  -0.45478  -0.44959  -0.44799  -0.44288
 Alpha  occ. eigenvalues --   -0.44204  -0.44014  -0.43841  -0.43499  -0.42952
 Alpha  occ. eigenvalues --   -0.42753  -0.42622  -0.42519  -0.42193  -0.42041
 Alpha  occ. eigenvalues --   -0.41661  -0.41514  -0.41311  -0.40826  -0.40560
 Alpha  occ. eigenvalues --   -0.40148  -0.39949  -0.39698  -0.39105  -0.38894
 Alpha  occ. eigenvalues --   -0.38633  -0.38549  -0.38467  -0.38433  -0.38173
 Alpha  occ. eigenvalues --   -0.37206  -0.36806  -0.36530  -0.36252  -0.35937
 Alpha  occ. eigenvalues --   -0.35098  -0.34453  -0.33761  -0.31896  -0.31807
 Alpha  occ. eigenvalues --   -0.31376  -0.30733  -0.28862  -0.25783  -0.23173
 Alpha  occ. eigenvalues --   -0.19283
 Alpha virt. eigenvalues --   -0.05688  -0.00986   0.02058   0.05767   0.07304
 Alpha virt. eigenvalues --    0.08721   0.11065   0.11678   0.12144   0.12586
 Alpha virt. eigenvalues --    0.12655   0.12776   0.12998   0.13665   0.13872

 Mulliken charges:
               1
     1  O   -0.556073
     2  O   -0.565012
     3  C    0.014605
     4  C   -0.122752
     5  C   -0.170077
     6  C    0.166466
     7  C    0.098883
     8  C   -0.000324
     9  C   -0.267902
    10  C   -0.283054
    11  C   -0.196520
    12  C   -0.158176
    13  C    0.169090
    14  C    0.034963
    15  C   -0.095015
    16  C   -0.180973
    17  C    0.024525
    18  C   -0.295411
    19  C   -0.313553
    20  C   -0.345143
    21  C   -0.101707
    22  C   -0.059369
    23  C   -0.375033
    24  C    0.123661
    25  C   -0.130857
    26  C   -0.354539
    27  C    0.092818
    28  C   -0.137291
    29  C   -0.371167
    30  C   -0.114754
    31  C   -0.062218
    32  C   -0.042463
    33  C   -0.112794
    34  C    0.045200
    35  C   -0.100443
    36  C    0.107170
    37  C   -0.361888
    38  C   -0.110942
    39  C   -0.124209
    40  C   -0.363367
    41  C   -0.075761
    42  C   -0.094243
    43  H    0.072792
    44  H    0.091092
    45  H    0.050433
    46  H    0.079072
    47  H    0.107227
    48  H    0.067800
    49  H    0.111592
    50  H    0.112972
    51  H    0.089636
    52  H    0.089058
    53  H    0.092504
    54  H    0.078178
    55  H    0.073038
    56  H    0.070238
    57  H    0.096538
    58  H    0.117363
    59  H    0.117194
    60  H    0.102906
    61  H    0.097131
    62  H    0.088300
    63  H    0.109338
    64  H    0.102900
    65  H    0.091748
    66  H    0.118199
    67  H    0.130718
    68  H    0.098998
    69  H    0.304501
    70  H    0.074864
    71  H    0.077987
    72  H    0.098818
    73  H    0.127747
    74  H    0.103463
    75  H    0.297222
    76  H    0.091380
    77  H    0.099312
    78  H    0.103578
    79  H    0.117607
    80  H    0.063306
    81  H    0.117336
    82  H    0.115000
    83  H    0.120056
    84  H    0.084552
    85  H    0.087503
    86  H    0.045975
    87  H    0.082852
    88  H    0.064126
    89  H    0.122578
    90  H    0.135726
    91  H    0.120991
    92  H    0.073226
    93  H    0.080703
    94  H    0.117943
    95  H    0.117502
    96  H    0.106569
    97  H    0.072175
    98  H    0.084083
 Sum of Mulliken charges =  -0.00000

 Dipole moment (field-independent basis, Debye):
    X=              1.4215    Y=             -0.1868    Z=             -0.2269  Tot=              1.4516
 Quadrupole moment (field-independent basis, Debye-Ang):
   XX=           -286.9796   YY=           -243.7785   ZZ=           -262.2428
   XY=             -7.4772   XZ=             39.7768   YZ=              3.7013

 Normal termination of Gaussian 16 at Sat Jul 13 01:38:21 2019.
