 Gaussian 16, Revision A.03,
 Gaussian 16:  ES64L-G16RevA.03 25-Dec-2016

 -------------------------------------
 # td=(NStates=1) CAM-B3LYP/6-31G(d,p)
 -------------------------------------

 --
 TD
 --
 Symbolic Z-matrix:
 Charge =  0 Multiplicity = 1

                         Standard orientation:
 ---------------------------------------------------------------------
 Center     Atomic      Atomic             Coordinates (Angstroms)
 Number     Number       Type             X           Y           Z
 ---------------------------------------------------------------------
      1          8           0      -14.223212   -2.162233    0.441194
      2          8           0       14.989711    0.462173    0.323165
      3          6           0      -11.722508   -0.039343    1.258943
      4          6           0      -11.091180    0.227104   -0.092201
      5          6           0      -12.009671   -1.597532    1.343887
      6          6           0      -12.804638   -2.263503    0.179078
      7          6           0      -11.709405   -0.476716   -1.180137
      8          6           0       11.205441    0.956708    0.954409
      9          6           0      -10.917838    0.336681    2.588671
     10          6           0      -13.019149    0.723112    1.357460
     11          6           0       12.683666    1.327386    0.766258
     12          6           0      -12.473741   -1.552062   -1.155776
     13          6           0       13.633471    0.157218    0.519703
     14          6           0       10.815463   -0.031289   -0.088080
     15          6           0       -9.545854   -0.085855   -0.027135
     16          6           0       13.237920   -0.406287   -0.878346
     17          6           0       11.673531   -0.580798   -1.069642
     18          6           0       10.325450    2.296950    0.819635
     19          6           0       10.986464    0.254293    2.377136
     20          6           0      -11.364845    0.171028   -2.615062
     21          6           0       -8.578248    0.849201   -0.258298
     22          6           0        9.275080   -0.415401   -0.227425
     23          6           0       11.260361   -1.525132   -2.154930
     24          6           0       -7.163127    0.528313   -0.155035
     25          6           0        8.795382   -1.647524   -0.213396
     26          6           0       -6.741872   -0.865451    0.137462
     27          6           0        7.422455   -1.991940    0.028277
     28          6           0       -6.246108    1.494659   -0.378005
     29          6           0        7.065915   -3.429616    0.083648
     30          6           0        6.440421   -1.076362   -0.142689
     31          6           0       -4.873319    1.488328   -0.412996
     32          6           0        5.052090   -1.378931   -0.098527
     33          6           0       -4.123023    2.626215   -0.612053
     34          6           0       -2.651083    2.744569   -0.650982
     35          6           0        4.006887   -0.369297   -0.086692
     36          6           0        2.552805   -0.595480    0.003372
     37          6           0       -2.035381    4.081259   -0.838333
     38          6           0       -1.886473    1.669507   -0.451984
     39          6           0        1.684255    0.539256   -0.102057
     40          6           0        2.081390   -2.067556    0.237265
     41          6           0       -0.430162    1.674591   -0.460335
     42          6           0        0.268646    0.528617   -0.234902
     43          1           0      -11.073534    1.268094   -0.370899
     44          1           0      -12.424772   -1.803034    2.440688
     45          1           0      -11.020434   -2.250272    1.497743
     46          1           0      -12.424751   -3.245156    0.156975
     47          1           0       -9.808391   -0.156609    2.533217
     48          1           0      -10.982232    1.539760    2.808430
     49          1           0      -11.456813   -0.206619    3.516386
     50          1           0      -13.879423    0.582013    0.592461
     51          1           0      -13.476663    0.817732    2.259265
     52          1           0      -12.633812    1.920369    1.089843
     53          1           0       12.960926    2.240773    0.066798
     54          1           0       13.088955    1.652142    1.830948
     55          1           0      -13.008801   -1.866745   -2.040417
     56          1           0       13.344081   -0.438442    1.336439
     57          1           0       -9.464797   -1.145078    0.017322
     58          1           0       13.616774   -1.499004   -0.746638
     59          1           0       13.650669    0.243313   -1.643503
     60          1           0        9.288231    2.256991    1.031526
     61          1           0       10.456268    2.809802   -0.179824
     62          1           0       10.540200    3.045240    1.587416
     63          1           0       11.774913   -0.524132    2.708611
     64          1           0        9.804267    0.085602    2.209160
     65          1           0       11.061899    0.935959    3.199147
     66          1           0      -10.421969   -0.084289   -2.559023
     67          1           0      -11.972671    1.142517   -2.694126
     68          1           0      -11.593396   -0.498518   -3.587199
     69          1           0      -14.689177   -2.368357   -0.432714
     70          1           0        8.785541    0.408124   -0.059477
     71          1           0       -8.854369    1.892892   -0.283129
     72          1           0       11.627048   -2.486399   -2.063335
     73          1           0       10.273405   -1.277830   -2.440333
     74          1           0       11.989012   -1.432381   -3.132778
     75          1           0       15.280893    0.917752    0.960094
     76          1           0        9.535837   -2.412290   -0.425974
     77          1           0       -5.695857   -0.855278    0.266126
     78          1           0       -7.266472   -1.149349    1.044693
     79          1           0       -7.125643   -1.592195   -0.650735
     80          1           0       -6.604444    2.462512   -0.411977
     81          1           0        6.423977   -3.743511    0.921560
     82          1           0        6.420474   -3.824572   -0.841697
     83          1           0        7.934824   -4.041383    0.397444
     84          1           0        6.755567    0.009281   -0.094876
     85          1           0       -4.296666    0.493259   -0.203986
     86          1           0        5.014797   -2.450557    0.065586
     87          1           0       -4.581128    3.511489   -0.793754
     88          1           0        4.335810    0.581261   -0.283795
     89          1           0       -1.721849    4.349103   -1.906016
     90          1           0       -1.111998    3.974085   -0.007276
     91          1           0       -2.785332    4.945570   -0.447813
     92          1           0       -2.407917    0.737879   -0.267959
     93          1           0        2.361198    1.315725   -0.276820
     94          1           0        2.633635   -2.614690    0.922079
     95          1           0        0.920101   -1.960654    0.539429
     96          1           0        2.261934   -2.372010   -0.920777
     97          1           0        0.287886    2.514089   -0.565356
     98          1           0       -0.254613   -0.427020   -0.203171
 ---------------------------------------------------------------------

 SCF Done:  E(RCAM-B3LYP) =  -1706.91355205     A.U. after   14 cycles

 Excitation energies and oscillator strengths:

 Excited State   1:      Singlet-A      2.3559 eV  526.28 nm  f=3.0152  <S**2>=0.000
     155 ->158        -0.16757
     156 ->157         0.68462
 This state for optimization and/or second-order correction.
 Total Energy, E(TD-HF/TD-DFT) =  -1706.82697587
 Copying the excited state density for this state as the 1-particle RhoCI density.

 The electronic state is 1-A.
 Alpha  occ. eigenvalues --  -19.21335 -19.20673 -10.30634 -10.29757 -10.29050
 Alpha  occ. eigenvalues --  -10.28519 -10.28078 -10.27998 -10.27687 -10.27482
 Alpha  occ. eigenvalues --  -10.27172 -10.26970 -10.26947 -10.26833 -10.26802
 Alpha  occ. eigenvalues --  -10.26709 -10.26654 -10.26644 -10.26596 -10.26581
 Alpha  occ. eigenvalues --  -10.26538 -10.26476 -10.26424 -10.26409 -10.26405
 Alpha  occ. eigenvalues --  -10.26370 -10.26194 -10.26175 -10.26056 -10.25903
 Alpha  occ. eigenvalues --  -10.25738 -10.25578 -10.25567 -10.25563 -10.25543
 Alpha  occ. eigenvalues --  -10.25300 -10.25095 -10.24931 -10.24894 -10.24806
 Alpha  occ. eigenvalues --  -10.24601 -10.24589  -1.13081  -1.07654  -0.93858
 Alpha  occ. eigenvalues --   -0.92742  -0.92362  -0.91560  -0.91045  -0.89613
 Alpha  occ. eigenvalues --   -0.86866  -0.86062  -0.85666  -0.85234  -0.84502
 Alpha  occ. eigenvalues --   -0.82804  -0.82014  -0.80300  -0.80027  -0.77501
 Alpha  occ. eigenvalues --   -0.76706  -0.76254  -0.75793  -0.75761  -0.75449
 Alpha  occ. eigenvalues --   -0.74844  -0.74459  -0.73226  -0.72972  -0.70368
 Alpha  occ. eigenvalues --   -0.69443  -0.67190  -0.66727  -0.65124  -0.64691
 Alpha  occ. eigenvalues --   -0.63645  -0.63132  -0.62717  -0.60771  -0.60089
 Alpha  occ. eigenvalues --   -0.60021  -0.59149  -0.58229  -0.57311  -0.56432
 Alpha  occ. eigenvalues --   -0.55446  -0.55054  -0.54580  -0.54209  -0.53379
 Alpha  occ. eigenvalues --   -0.52761  -0.52560  -0.52259  -0.52004  -0.51600
 Alpha  occ. eigenvalues --   -0.51394  -0.51031  -0.50320  -0.49474  -0.48979
 Alpha  occ. eigenvalues --   -0.48602  -0.48394  -0.48334  -0.48154  -0.47972
 Alpha  occ. eigenvalues --   -0.47742  -0.47442  -0.47300  -0.46849  -0.46322
 Alpha  occ. eigenvalues --   -0.45451  -0.45134  -0.44859  -0.44822  -0.44362
 Alpha  occ. eigenvalues --   -0.44170  -0.43889  -0.43683  -0.43646  -0.43108
 Alpha  occ. eigenvalues --   -0.42805  -0.42756  -0.42499  -0.42059  -0.41638
 Alpha  occ. eigenvalues --   -0.41567  -0.41167  -0.40486  -0.40323  -0.40209
 Alpha  occ. eigenvalues --   -0.40102  -0.39994  -0.39726  -0.39058  -0.38927
 Alpha  occ. eigenvalues --   -0.38831  -0.38567  -0.38477  -0.38276  -0.37798
 Alpha  occ. eigenvalues --   -0.37486  -0.36875  -0.36357  -0.35973  -0.35497
 Alpha  occ. eigenvalues --   -0.34832  -0.34153  -0.34041  -0.32427  -0.31833
 Alpha  occ. eigenvalues --   -0.31385  -0.29666  -0.28600  -0.26393  -0.23598
 Alpha  occ. eigenvalues --   -0.20035
 Alpha virt. eigenvalues --   -0.05266  -0.01210   0.03134   0.06144   0.07215
 Alpha virt. eigenvalues --    0.08406   0.10186   0.11574   0.11920   0.12579
 Alpha virt. eigenvalues --    0.13045   0.13310   0.13576   0.14172   0.14426

 Mulliken charges:
               1
     1  O   -0.550195
     2  O   -0.510012
     3  C    0.050272
     4  C   -0.130765
     5  C   -0.199261
     6  C    0.161098
     7  C    0.092316
     8  C   -0.012816
     9  C   -0.288881
    10  C   -0.268545
    11  C   -0.199483
    12  C   -0.161524
    13  C    0.165423
    14  C    0.044866
    15  C   -0.094602
    16  C   -0.205022
    17  C    0.038320
    18  C   -0.327117
    19  C   -0.302635
    20  C   -0.340175
    21  C   -0.093054
    22  C   -0.117927
    23  C   -0.358937
    24  C    0.101759
    25  C   -0.071688
    26  C   -0.361652
    27  C    0.093107
    28  C   -0.113479
    29  C   -0.401569
    30  C   -0.098202
    31  C   -0.061071
    32  C   -0.089515
    33  C   -0.117785
    34  C    0.106564
    35  C   -0.124787
    36  C    0.059189
    37  C   -0.361485
    38  C   -0.111060
    39  C   -0.119019
    40  C   -0.335982
    41  C   -0.095535
    42  C   -0.076096
    43  H    0.090830
    44  H    0.094386
    45  H    0.069451
    46  H    0.092395
    47  H    0.092466
    48  H    0.088833
    49  H    0.089808
    50  H    0.111697
    51  H    0.114688
    52  H    0.033532
    53  H    0.084674
    54  H    0.048790
    55  H    0.077996
    56  H    0.078734
    57  H    0.092362
    58  H    0.095264
    59  H    0.123486
    60  H    0.107316
    61  H    0.112808
    62  H    0.104317
    63  H    0.106742
    64  H    0.101747
    65  H    0.106530
    66  H    0.145412
    67  H    0.123623
    68  H    0.075807
    69  H    0.305356
    70  H    0.067066
    71  H    0.090667
    72  H    0.131649
    73  H    0.132726
    74  H    0.071239
    75  H    0.274029
    76  H    0.096645
    77  H    0.107794
    78  H    0.121367
    79  H    0.113059
    80  H    0.070647
    81  H    0.122544
    82  H    0.119025
    83  H    0.108805
    84  H    0.073471
    85  H    0.076028
    86  H    0.079029
    87  H    0.071394
    88  H    0.083406
    89  H    0.126881
    90  H    0.104335
    91  H    0.090783
    92  H    0.078123
    93  H    0.076840
    94  H    0.133632
    95  H    0.094826
    96  H    0.117667
    97  H    0.097402
    98  H    0.086832
 Sum of Mulliken charges =  -0.00000

 Dipole moment (field-independent basis, Debye):
    X=              0.2723    Y=             -0.1026    Z=              0.1231  Tot=              0.3159
 Quadrupole moment (field-independent basis, Debye-Ang):
   XX=           -283.2135   YY=           -244.9713   ZZ=           -262.1822
   XY=              7.0533   XZ=             39.0304   YZ=              2.2838

 Normal termination of Gaussian 16 at Tue Jul 16 02:15:33 2019.
