 Gaussian 16, Revision A.03,
 Gaussian 16:  ES64L-G16RevA.03 25-Dec-2016

 -------------------------------------
 # td=(NStates=1) CAM-B3LYP/6-31G(d,p)
 -------------------------------------

 --
 TD
 --
 Symbolic Z-matrix:
 Charge =  0 Multiplicity = 1

                         Standard orientation:
 ---------------------------------------------------------------------
 Center     Atomic      Atomic             Coordinates (Angstroms)
 Number     Number       Type             X           Y           Z
 ---------------------------------------------------------------------
      1          8           0      -14.275853   -1.829278    0.449858
      2          8           0       14.812442    0.957327    0.142997
      3          6           0      -11.834644    0.174427    1.350913
      4          6           0      -10.991517    0.404443    0.051197
      5          6           0      -12.118734   -1.349693    1.518680
      6          6           0      -12.802776   -2.070008    0.259701
      7          6           0      -11.610146   -0.341246   -1.121683
      8          6           0       11.052459    1.006990    1.099690
      9          6           0      -11.082471    0.623778    2.547624
     10          6           0      -13.181598    0.921685    1.167580
     11          6           0       12.463799    1.613456    0.726946
     12          6           0      -12.304602   -1.515517   -1.168661
     13          6           0       13.514705    0.499923    0.392104
     14          6           0       10.626211    0.038427   -0.010728
     15          6           0       -9.457075   -0.072662    0.157390
     16          6           0       12.984231   -0.180912   -0.823252
     17          6           0       11.587482   -0.489089   -0.895488
     18          6           0       10.102213    2.321035    1.140078
     19          6           0       11.092153    0.344420    2.395496
     20          6           0      -11.093654    0.313989   -2.399612
     21          6           0       -8.497040    0.666927   -0.317025
     22          6           0        9.233644   -0.377873   -0.059833
     23          6           0       11.115532   -1.327598   -2.040296
     24          6           0       -7.063787    0.310070   -0.277979
     25          6           0        8.841526   -1.736909   -0.023641
     26          6           0       -6.593335   -1.046373   -0.043411
     27          6           0        7.437021   -2.151329   -0.069042
     28          6           0       -6.252050    1.379981   -0.507040
     29          6           0        7.220749   -3.596813    0.164057
     30          6           0        6.330727   -1.230499   -0.137556
     31          6           0       -4.763401    1.337536   -0.457680
     32          6           0        4.973430   -1.611407   -0.045230
     33          6           0       -3.963607    2.420324   -0.653776
     34          6           0       -2.597145    2.584491   -0.752252
     35          6           0        3.966359   -0.679834   -0.227384
     36          6           0        2.566125   -0.898694   -0.122769
     37          6           0       -1.875129    3.925319   -0.937158
     38          6           0       -1.752974    1.489527   -0.513549
     39          6           0        1.821689    0.178107   -0.344724
     40          6           0        2.050825   -2.250408    0.237037
     41          6           0       -0.375739    1.326816   -0.506743
     42          6           0        0.442835    0.274931   -0.312057
     43          1           0      -11.140578    1.374444   -0.257657
     44          1           0      -12.715531   -1.492263    2.522903
     45          1           0      -11.100755   -1.833201    1.711235
     46          1           0      -12.549795   -3.177117    0.320266
     47          1           0      -10.200611   -0.094886    2.694948
     48          1           0      -10.591154    1.560031    2.376199
     49          1           0      -11.703130    0.683421    3.596826
     50          1           0      -13.674459    0.311606    0.308154
     51          1           0      -13.772331    0.762080    2.183631
     52          1           0      -12.789474    1.948017    0.959159
     53          1           0       12.384560    2.473433   -0.082655
     54          1           0       12.819366    2.274064    1.555667
     55          1           0      -12.640335   -2.136211   -1.970949
     56          1           0       13.666193   -0.178549    1.296877
     57          1           0       -9.193441   -1.009478    0.485204
     58          1           0       13.558675   -1.029044   -1.022403
     59          1           0       13.249531    0.332809   -1.767412
     60          1           0        9.059561    2.137852    1.711938
     61          1           0        9.583469    2.881962    0.058208
     62          1           0       10.659553    2.866916    1.788334
     63          1           0       11.852736   -0.492688    2.307375
     64          1           0       10.054312   -0.154594    2.566105
     65          1           0       11.498524    0.867318    3.038231
     66          1           0       -9.997503    0.472237   -2.485000
     67          1           0      -11.573819    1.363962   -2.587229
     68          1           0      -11.366931   -0.158777   -3.290949
     69          1           0      -14.711203   -2.333994   -0.259091
     70          1           0        8.546069    0.442061    0.002906
     71          1           0       -8.658282    1.707228   -0.539173
     72          1           0       11.467380   -2.415412   -1.978305
     73          1           0       10.083955   -1.333258   -2.391574
     74          1           0       11.869608   -1.048649   -2.952280
     75          1           0       15.265781    1.102952    1.051567
     76          1           0        9.647871   -2.400854    0.019833
     77          1           0       -5.522318   -1.274939    0.022499
     78          1           0       -6.937289   -1.122215    0.865348
     79          1           0       -7.044546   -1.708310   -0.731344
     80          1           0       -6.505041    2.342529   -0.800498
     81          1           0        7.032329   -4.022575    1.105537
     82          1           0        6.521616   -4.085592   -0.497223
     83          1           0        8.158707   -4.034840   -0.128304
     84          1           0        6.454919   -0.096970   -0.661981
     85          1           0       -4.215349    0.387286   -0.377120
     86          1           0        4.671226   -2.661153   -0.167692
     87          1           0       -4.429717    3.325937   -1.016148
     88          1           0        4.355503    0.275451   -0.445749
     89          1           0       -1.295807    3.893550   -1.900052
     90          1           0       -1.161146    4.005375   -0.015880
     91          1           0       -2.541397    4.805215   -0.954543
     92          1           0       -2.182419    0.445890    0.081768
     93          1           0        2.417589    1.061995   -0.611769
     94          1           0        2.971367   -2.860496    0.803974
     95          1           0        1.141513   -2.143146    0.724906
     96          1           0        1.866000   -2.850121   -0.911050
     97          1           0        0.041268    2.254042   -0.669671
     98          1           0       -0.251288   -0.613152   -0.068295
 ---------------------------------------------------------------------

 SCF Done:  E(RCAM-B3LYP) =  -1706.94781264     A.U. after   15 cycles

 Excitation energies and oscillator strengths:

 Excited State   1:      Singlet-A      2.1699 eV  571.38 nm  f=2.9924  <S**2>=0.000
     155 ->158        -0.16907
     156 ->157         0.68664
 This state for optimization and/or second-order correction.
 Total Energy, E(TD-HF/TD-DFT) =  -1706.86806995
 Copying the excited state density for this state as the 1-particle RhoCI density.

 The electronic state is 1-A.
 Alpha  occ. eigenvalues --  -19.21921 -19.21240 -10.32207 -10.31327 -10.28087
 Alpha  occ. eigenvalues --  -10.27990 -10.27804 -10.27631 -10.27577 -10.27540
 Alpha  occ. eigenvalues --  -10.27305 -10.27106 -10.27056 -10.26863 -10.26819
 Alpha  occ. eigenvalues --  -10.26641 -10.26557 -10.26493 -10.26358 -10.26227
 Alpha  occ. eigenvalues --  -10.26176 -10.26126 -10.26118 -10.25965 -10.25881
 Alpha  occ. eigenvalues --  -10.25859 -10.25770 -10.25768 -10.25653 -10.25518
 Alpha  occ. eigenvalues --  -10.25430 -10.25408 -10.25359 -10.25276 -10.24968
 Alpha  occ. eigenvalues --  -10.24806 -10.24756 -10.24400 -10.24333 -10.24303
 Alpha  occ. eigenvalues --  -10.24261 -10.23578  -1.09628  -1.06917  -0.93448
 Alpha  occ. eigenvalues --   -0.93251  -0.92710  -0.91831  -0.90897  -0.89752
 Alpha  occ. eigenvalues --   -0.87870  -0.87368  -0.86257  -0.85209  -0.84392
 Alpha  occ. eigenvalues --   -0.83277  -0.82193  -0.80327  -0.79738  -0.78318
 Alpha  occ. eigenvalues --   -0.77588  -0.76777  -0.75834  -0.75535  -0.75151
 Alpha  occ. eigenvalues --   -0.74635  -0.74300  -0.74101  -0.72742  -0.70550
 Alpha  occ. eigenvalues --   -0.68947  -0.67041  -0.66432  -0.65073  -0.63882
 Alpha  occ. eigenvalues --   -0.63529  -0.62093  -0.61594  -0.60771  -0.60265
 Alpha  occ. eigenvalues --   -0.59813  -0.58667  -0.57950  -0.57010  -0.55772
 Alpha  occ. eigenvalues --   -0.55162  -0.54835  -0.54590  -0.54358  -0.53537
 Alpha  occ. eigenvalues --   -0.53221  -0.52653  -0.52210  -0.52062  -0.51881
 Alpha  occ. eigenvalues --   -0.51640  -0.50479  -0.49862  -0.49097  -0.48998
 Alpha  occ. eigenvalues --   -0.48681  -0.48612  -0.48383  -0.48353  -0.47710
 Alpha  occ. eigenvalues --   -0.47443  -0.46998  -0.46701  -0.46544  -0.46350
 Alpha  occ. eigenvalues --   -0.46302  -0.45402  -0.45321  -0.44710  -0.44482
 Alpha  occ. eigenvalues --   -0.44184  -0.43851  -0.43539  -0.43477  -0.43382
 Alpha  occ. eigenvalues --   -0.43063  -0.42908  -0.42679  -0.42375  -0.42137
 Alpha  occ. eigenvalues --   -0.42028  -0.41677  -0.40782  -0.40606  -0.40530
 Alpha  occ. eigenvalues --   -0.40315  -0.40067  -0.39974  -0.39887  -0.39477
 Alpha  occ. eigenvalues --   -0.39040  -0.38844  -0.38067  -0.37549  -0.37378
 Alpha  occ. eigenvalues --   -0.36923  -0.36507  -0.36205  -0.35909  -0.35707
 Alpha  occ. eigenvalues --   -0.35007  -0.34665  -0.33886  -0.32023  -0.31538
 Alpha  occ. eigenvalues --   -0.31256  -0.29685  -0.28558  -0.26731  -0.23270
 Alpha  occ. eigenvalues --   -0.19383
 Alpha virt. eigenvalues --   -0.05656  -0.01086   0.02925   0.05224   0.07183
 Alpha virt. eigenvalues --    0.08569   0.10036   0.10659   0.11629   0.11790
 Alpha virt. eigenvalues --    0.12162   0.12786   0.13005   0.13506   0.14094

 Mulliken charges:
               1
     1  O   -0.541521
     2  O   -0.565886
     3  C    0.008563
     4  C   -0.106194
     5  C   -0.160568
     6  C    0.093273
     7  C    0.105262
     8  C   -0.023229
     9  C   -0.286204
    10  C   -0.279518
    11  C   -0.207451
    12  C   -0.136392
    13  C    0.182101
    14  C    0.030927
    15  C   -0.099312
    16  C   -0.231692
    17  C    0.103051
    18  C   -0.291239
    19  C   -0.261605
    20  C   -0.370018
    21  C   -0.060258
    22  C   -0.118921
    23  C   -0.368317
    24  C    0.079045
    25  C   -0.097395
    26  C   -0.363618
    27  C    0.066559
    28  C   -0.128400
    29  C   -0.381723
    30  C   -0.127106
    31  C   -0.071079
    32  C   -0.090792
    33  C   -0.117809
    34  C    0.081751
    35  C   -0.118569
    36  C    0.151091
    37  C   -0.368419
    38  C   -0.113124
    39  C   -0.116213
    40  C   -0.343901
    41  C   -0.071713
    42  C   -0.092782
    43  H    0.098341
    44  H    0.098492
    45  H    0.075677
    46  H    0.082938
    47  H    0.085368
    48  H    0.100991
    49  H    0.077841
    50  H    0.131578
    51  H    0.086473
    52  H    0.082403
    53  H    0.098138
    54  H    0.067917
    55  H    0.094774
    56  H    0.067319
    57  H    0.085063
    58  H    0.115027
    59  H    0.126492
    60  H    0.078090
    61  H    0.077426
    62  H    0.113689
    63  H    0.089893
    64  H    0.109193
    65  H    0.100649
    66  H    0.124001
    67  H    0.093685
    68  H    0.109936
    69  H    0.301332
    70  H    0.091818
    71  H    0.086124
    72  H    0.101855
    73  H    0.136465
    74  H    0.070386
    75  H    0.312259
    76  H    0.093077
    77  H    0.118063
    78  H    0.141262
    79  H    0.130037
    80  H    0.080065
    81  H    0.133055
    82  H    0.116398
    83  H    0.109486
    84  H    0.075279
    85  H    0.080342
    86  H    0.093210
    87  H    0.063992
    88  H    0.074600
    89  H    0.129309
    90  H    0.125209
    91  H    0.111681
    92  H    0.040151
    93  H    0.084177
    94  H    0.101500
    95  H    0.129718
    96  H    0.086030
    97  H    0.058961
    98  H    0.062107
 Sum of Mulliken charges =  -0.00000

 Dipole moment (field-independent basis, Debye):
    X=              1.7473    Y=             -1.5336    Z=             -0.1769  Tot=              2.3316
 Quadrupole moment (field-independent basis, Debye-Ang):
   XX=           -270.0516   YY=           -242.7847   ZZ=           -261.2869
   XY=              6.7830   XZ=             42.9366   YZ=              1.7232

 Normal termination of Gaussian 16 at Sun Jul 14 09:59:21 2019.
