 Gaussian 16, Revision A.03,
 Gaussian 16:  ES64L-G16RevA.03 25-Dec-2016

 -------------------------------------
 # td=(NStates=1) CAM-B3LYP/6-31G(d,p)
 -------------------------------------

 --
 TD
 --
 Symbolic Z-matrix:
 Charge =  0 Multiplicity = 1

                         Standard orientation:
 ---------------------------------------------------------------------
 Center     Atomic      Atomic             Coordinates (Angstroms)
 Number     Number       Type             X           Y           Z
 ---------------------------------------------------------------------
      1          8           0      -14.175236   -2.037400    0.349699
      2          8           0       14.837240    0.851544    0.003227
      3          6           0      -11.778142    0.071477    1.283216
      4          6           0      -11.002737    0.347665    0.012657
      5          6           0      -12.176349   -1.329760    1.342916
      6          6           0      -12.721195   -2.165508    0.207270
      7          6           0      -11.645032   -0.339537   -1.191857
      8          6           0       11.089482    0.879264    1.156537
      9          6           0      -11.089193    0.626220    2.553349
     10          6           0      -13.176294    0.767979    1.252378
     11          6           0       12.618009    1.433015    0.829071
     12          6           0      -12.296366   -1.559902   -1.134358
     13          6           0       13.503971    0.414153    0.275558
     14          6           0       10.695658   -0.019813    0.018632
     15          6           0       -9.579231   -0.157653    0.023188
     16          6           0       12.947415   -0.070333   -1.024889
     17          6           0       11.465875   -0.485145   -0.940163
     18          6           0       10.209388    2.147407    1.285778
     19          6           0       11.258460    0.137902    2.448098
     20          6           0      -11.301969    0.319872   -2.493290
     21          6           0       -8.577429    0.802169   -0.130677
     22          6           0        9.310111   -0.345116    0.087888
     23          6           0       11.114886   -1.323715   -2.120528
     24          6           0       -7.118762    0.484414   -0.003115
     25          6           0        8.803001   -1.650191   -0.053470
     26          6           0       -6.686455   -0.919553    0.227197
     27          6           0        7.476312   -2.104231    0.009823
     28          6           0       -6.196603    1.411664   -0.253689
     29          6           0        7.162397   -3.495668    0.230770
     30          6           0        6.404225   -1.174873   -0.204413
     31          6           0       -4.788549    1.367036   -0.219239
     32          6           0        5.031503   -1.452837   -0.152199
     33          6           0       -4.062182    2.530995   -0.545007
     34          6           0       -2.572098    2.548468   -0.704126
     35          6           0        3.996269   -0.511731   -0.331327
     36          6           0        2.633639   -0.756654   -0.259798
     37          6           0       -1.911054    3.879375   -1.081426
     38          6           0       -1.748401    1.524085   -0.441991
     39          6           0        1.734744    0.232491   -0.318002
     40          6           0        2.168508   -2.236225    0.045442
     41          6           0       -0.407613    1.428715   -0.657087
     42          6           0        0.372935    0.277295   -0.360252
     43          1           0      -11.240011    1.502485   -0.268934
     44          1           0      -12.714537   -1.701115    2.121304
     45          1           0      -11.096055   -1.680471    1.285455
     46          1           0      -12.438742   -3.173026    0.252722
     47          1           0      -10.050099    0.316263    2.671371
     48          1           0      -10.878967    1.641362    2.378523
     49          1           0      -11.623921    0.224010    3.438739
     50          1           0      -13.688634    0.689033    0.212088
     51          1           0      -13.973261    0.221118    1.970682
     52          1           0      -13.072832    1.904147    1.425203
     53          1           0       12.458409    2.367350    0.206637
     54          1           0       13.121864    1.979205    1.651151
     55          1           0      -12.462911   -2.218802   -1.925222
     56          1           0       13.778012   -0.526476    0.894661
     57          1           0       -9.346547   -1.255836    0.222886
     58          1           0       13.736897   -1.020579   -1.269496
     59          1           0       13.275657    0.663425   -1.797569
     60          1           0        9.015477    1.822025    1.673488
     61          1           0       10.217603    2.520573    0.277591
     62          1           0       10.482024    2.999694    1.921925
     63          1           0       11.572803   -0.863274    2.208591
     64          1           0       10.222435   -0.056119    2.723235
     65          1           0       11.528707    1.004540    3.442657
     66          1           0      -10.190352    0.540626   -2.345383
     67          1           0      -11.962707    1.162993   -2.789381
     68          1           0      -11.479485   -0.435877   -3.308112
     69          1           0      -14.519636   -2.234389   -0.625274
     70          1           0        8.569362    0.501539    0.464643
     71          1           0       -8.746662    1.934888   -0.272495
     72          1           0       11.427632   -2.319628   -1.989563
     73          1           0       10.133376   -1.337535   -2.278431
     74          1           0       11.561368   -0.937075   -3.071095
     75          1           0       15.280041    1.192976    0.780086
     76          1           0        9.540038   -2.552245    0.111995
     77          1           0       -5.504582   -1.153907    0.270721
     78          1           0       -7.059832   -1.340426    1.202800
     79          1           0       -7.017475   -1.363825   -0.654185
     80          1           0       -6.519069    2.471377   -0.378869
     81          1           0        6.476209   -3.663837    1.171621
     82          1           0        6.501570   -3.802110   -0.821839
     83          1           0        8.108903   -4.133691    0.379822
     84          1           0        6.806964   -0.213686   -0.186705
     85          1           0       -4.157261    0.518879   -0.076201
     86          1           0        4.784340   -2.546265   -0.106966
     87          1           0       -4.534445    3.582646   -0.680290
     88          1           0        4.369674    0.580405   -0.368837
     89          1           0       -1.284280    3.860827   -2.120074
     90          1           0       -1.251065    4.267119   -0.423033
     91          1           0       -2.642331    4.715609   -1.225143
     92          1           0       -2.358407    0.606170   -0.172727
     93          1           0        2.446976    1.225122   -0.456350
     94          1           0        2.292316   -2.361230    0.998000
     95          1           0        1.098049   -2.302332    0.063267
     96          1           0        2.527945   -3.002924   -0.540892
     97          1           0        0.217307    2.264259   -0.788766
     98          1           0       -0.000692   -0.796434   -0.316631
 ---------------------------------------------------------------------

 SCF Done:  E(RCAM-B3LYP) =  -1706.92226731     A.U. after   15 cycles

 Excitation energies and oscillator strengths:

 Excited State   1:      Singlet-A      1.9490 eV  636.14 nm  f=3.0737  <S**2>=0.000
     155 ->158         0.15327
     156 ->157         0.69327
     156 <-157        -0.10005
 This state for optimization and/or second-order correction.
 Total Energy, E(TD-HF/TD-DFT) =  -1706.85064285
 Copying the excited state density for this state as the 1-particle RhoCI density.

 The electronic state is 1-A.
 Alpha  occ. eigenvalues --  -19.20805 -19.20096 -10.30031 -10.29555 -10.28397
 Alpha  occ. eigenvalues --  -10.28329 -10.28316 -10.28240 -10.28229 -10.27837
 Alpha  occ. eigenvalues --  -10.27464 -10.27462 -10.27352 -10.27319 -10.27266
 Alpha  occ. eigenvalues --  -10.27249 -10.27105 -10.27105 -10.27103 -10.27097
 Alpha  occ. eigenvalues --  -10.26990 -10.26925 -10.26874 -10.26439 -10.26331
 Alpha  occ. eigenvalues --  -10.26303 -10.26300 -10.26171 -10.26113 -10.26061
 Alpha  occ. eigenvalues --  -10.25910 -10.25738 -10.25708 -10.25550 -10.25314
 Alpha  occ. eigenvalues --  -10.25219 -10.24843 -10.24652 -10.23808 -10.23759
 Alpha  occ. eigenvalues --  -10.23675 -10.23059  -1.08744  -1.06357  -0.94660
 Alpha  occ. eigenvalues --   -0.94208  -0.92521  -0.91830  -0.91064  -0.90350
 Alpha  occ. eigenvalues --   -0.87328  -0.87066  -0.86583  -0.85576  -0.84770
 Alpha  occ. eigenvalues --   -0.83360  -0.82282  -0.80534  -0.80375  -0.79134
 Alpha  occ. eigenvalues --   -0.77245  -0.76989  -0.76503  -0.76471  -0.75784
 Alpha  occ. eigenvalues --   -0.75350  -0.74903  -0.73816  -0.72999  -0.70615
 Alpha  occ. eigenvalues --   -0.69263  -0.67615  -0.66733  -0.64600  -0.64373
 Alpha  occ. eigenvalues --   -0.63546  -0.63234  -0.62170  -0.60102  -0.59841
 Alpha  occ. eigenvalues --   -0.59028  -0.57939  -0.57150  -0.56519  -0.55699
 Alpha  occ. eigenvalues --   -0.55484  -0.54998  -0.54520  -0.54245  -0.53780
 Alpha  occ. eigenvalues --   -0.53489  -0.52932  -0.52700  -0.51902  -0.51641
 Alpha  occ. eigenvalues --   -0.51236  -0.50801  -0.50685  -0.49989  -0.49769
 Alpha  occ. eigenvalues --   -0.49228  -0.49063  -0.48829  -0.48665  -0.47919
 Alpha  occ. eigenvalues --   -0.47541  -0.47381  -0.47064  -0.46977  -0.46306
 Alpha  occ. eigenvalues --   -0.46158  -0.45827  -0.45745  -0.45397  -0.45051
 Alpha  occ. eigenvalues --   -0.44304  -0.43813  -0.43587  -0.43423  -0.43273
 Alpha  occ. eigenvalues --   -0.43129  -0.42640  -0.42524  -0.42199  -0.42003
 Alpha  occ. eigenvalues --   -0.41317  -0.41196  -0.40864  -0.40660  -0.40602
 Alpha  occ. eigenvalues --   -0.40248  -0.40182  -0.39285  -0.39109  -0.39064
 Alpha  occ. eigenvalues --   -0.38978  -0.38909  -0.38325  -0.38053  -0.37857
 Alpha  occ. eigenvalues --   -0.37612  -0.37255  -0.36722  -0.36036  -0.35224
 Alpha  occ. eigenvalues --   -0.34263  -0.33358  -0.32619  -0.32223  -0.31802
 Alpha  occ. eigenvalues --   -0.31671  -0.30191  -0.28725  -0.27304  -0.23777
 Alpha  occ. eigenvalues --   -0.19106
 Alpha virt. eigenvalues --   -0.06787  -0.01873   0.01886   0.04918   0.06630
 Alpha virt. eigenvalues --    0.08497   0.09909   0.11210   0.11798   0.11933
 Alpha virt. eigenvalues --    0.12068   0.12201   0.12505   0.12969   0.13520

 Mulliken charges:
               1
     1  O   -0.560380
     2  O   -0.580937
     3  C    0.048658
     4  C   -0.154469
     5  C   -0.169085
     6  C    0.157261
     7  C    0.100949
     8  C   -0.020978
     9  C   -0.296334
    10  C   -0.291177
    11  C   -0.192056
    12  C   -0.163633
    13  C    0.185239
    14  C    0.074883
    15  C   -0.102817
    16  C   -0.216860
    17  C    0.055280
    18  C   -0.304384
    19  C   -0.270972
    20  C   -0.353663
    21  C   -0.088424
    22  C   -0.133722
    23  C   -0.350296
    24  C    0.100129
    25  C   -0.122996
    26  C   -0.375756
    27  C    0.112325
    28  C   -0.124412
    29  C   -0.369734
    30  C   -0.089045
    31  C   -0.057985
    32  C   -0.095324
    33  C   -0.125866
    34  C    0.090005
    35  C   -0.130320
    36  C    0.118461
    37  C   -0.381681
    38  C   -0.089915
    39  C   -0.110758
    40  C   -0.372360
    41  C   -0.092741
    42  C   -0.096583
    43  H    0.089604
    44  H    0.109151
    45  H    0.056385
    46  H    0.089388
    47  H    0.093831
    48  H    0.107727
    49  H    0.106020
    50  H    0.096401
    51  H    0.098161
    52  H    0.068071
    53  H    0.088095
    54  H    0.071492
    55  H    0.078877
    56  H    0.077401
    57  H    0.125365
    58  H    0.072072
    59  H    0.125173
    60  H    0.062667
    61  H    0.120708
    62  H    0.113151
    63  H    0.116812
    64  H    0.101808
    65  H    0.074741
    66  H    0.113725
    67  H    0.120575
    68  H    0.101929
    69  H    0.297090
    70  H    0.097972
    71  H    0.095620
    72  H    0.125249
    73  H    0.125245
    74  H    0.106912
    75  H    0.299989
    76  H    0.075185
    77  H    0.093279
    78  H    0.117872
    79  H    0.138350
    80  H    0.072719
    81  H    0.121577
    82  H    0.100226
    83  H    0.100921
    84  H    0.065254
    85  H    0.088228
    86  H    0.082132
    87  H    0.088172
    88  H    0.081992
    89  H    0.096974
    90  H    0.139171
    91  H    0.096960
    92  H    0.064028
    93  H    0.051212
    94  H    0.143187
    95  H    0.096923
    96  H    0.125518
    97  H    0.093818
    98  H    0.081371
 Sum of Mulliken charges =  -0.00000

 Dipole moment (field-independent basis, Debye):
    X=              1.8058    Y=             -0.5634    Z=              0.1491  Tot=              1.8975
 Quadrupole moment (field-independent basis, Debye-Ang):
   XX=           -302.9913   YY=           -242.5883   ZZ=           -264.1262
   XY=              4.8050   XZ=             40.8149   YZ=              2.8792

 Normal termination of Gaussian 16 at Fri Jul 12 23:40:57 2019.
