 Gaussian 16, Revision A.03,
 Gaussian 16:  ES64L-G16RevA.03 25-Dec-2016

 -------------------------------------
 # td=(NStates=1) CAM-B3LYP/6-31G(d,p)
 -------------------------------------

 --
 TD
 --
 Symbolic Z-matrix:
 Charge =  0 Multiplicity = 1

                         Standard orientation:
 ---------------------------------------------------------------------
 Center     Atomic      Atomic             Coordinates (Angstroms)
 Number     Number       Type             X           Y           Z
 ---------------------------------------------------------------------
      1          8           0      -14.057998   -2.186712    0.440496
      2          8           0       14.839380    0.726761    0.214660
      3          6           0      -11.767422   -0.071847    1.320345
      4          6           0      -11.017034    0.213523   -0.028854
      5          6           0      -11.944891   -1.571828    1.417231
      6          6           0      -12.670706   -2.279131    0.270012
      7          6           0      -11.527544   -0.567800   -1.269839
      8          6           0       11.108365    0.822139    1.198050
      9          6           0      -10.913585    0.569249    2.555036
     10          6           0      -13.136131    0.663867    1.229553
     11          6           0       12.637550    1.165547    0.908572
     12          6           0      -12.211668   -1.716597   -1.048267
     13          6           0       13.522196    0.118084    0.295258
     14          6           0       10.617719   -0.166356    0.076587
     15          6           0       -9.585644   -0.072874    0.107155
     16          6           0       12.998889   -0.299326   -1.017266
     17          6           0       11.490384   -0.459184   -0.978634
     18          6           0       10.249465    2.014987    1.190463
     19          6           0       10.999647    0.041851    2.479148
     20          6           0      -11.081017   -0.123258   -2.621267
     21          6           0       -8.563008    0.754548   -0.107980
     22          6           0        9.271337   -0.462347    0.179989
     23          6           0       11.033174   -1.080803   -2.188054
     24          6           0       -7.124222    0.601262   -0.143130
     25          6           0        8.696077   -1.673182   -0.113626
     26          6           0       -6.566316   -0.821071    0.096997
     27          6           0        7.276361   -2.066249   -0.212420
     28          6           0       -6.220132    1.636692   -0.307962
     29          6           0        7.062117   -3.492061    0.022370
     30          6           0        6.283786   -1.060519   -0.190102
     31          6           0       -4.848430    1.567253   -0.311343
     32          6           0        4.949647   -1.389307   -0.089900
     33          6           0       -4.087725    2.722908   -0.527860
     34          6           0       -2.685698    2.863419   -0.549590
     35          6           0        3.963675   -0.390139   -0.255583
     36          6           0        2.636855   -0.541936   -0.243583
     37          6           0       -2.033051    4.229145   -0.834824
     38          6           0       -1.750400    1.702652   -0.517484
     39          6           0        1.731455    0.523015   -0.498304
     40          6           0        2.180553   -2.039011    0.098862
     41          6           0       -0.417110    1.681671   -0.613729
     42          6           0        0.343133    0.503281   -0.519158
     43          1           0      -10.952615    1.331743   -0.325058
     44          1           0      -12.448163   -1.634556    2.369968
     45          1           0      -10.767240   -2.092619    1.700191
     46          1           0      -12.145116   -3.267934    0.182915
     47          1           0       -9.915509    0.017832    2.523956
     48          1           0      -10.775292    1.669549    2.567170
     49          1           0      -11.324419    0.240977    3.735331
     50          1           0      -13.785673    0.596348    0.273529
     51          1           0      -13.763686    0.444736    2.130717
     52          1           0      -13.025779    1.908756    1.280231
     53          1           0       12.544510    2.122406    0.241061
     54          1           0       13.054503    1.287057    2.059210
     55          1           0      -12.673074   -2.237202   -1.853389
     56          1           0       13.712127   -0.758639    0.848138
     57          1           0       -9.398786   -1.313781    0.148496
     58          1           0       13.470485   -1.218594   -1.416743
     59          1           0       13.236635    0.608427   -1.787497
     60          1           0        9.223250    1.819181    1.355894
     61          1           0       10.207877    2.677573    0.363528
     62          1           0       10.402986    2.523622    2.237942
     63          1           0       11.727088   -0.888479    2.514202
     64          1           0        9.943343   -0.391948    2.476893
     65          1           0       11.274286    0.739382    3.161416
     66          1           0      -10.006070   -0.184260   -2.570462
     67          1           0      -11.374711    0.875016   -2.764315
     68          1           0      -11.507893   -0.732491   -3.360269
     69          1           0      -14.394128   -1.969206   -0.592198
     70          1           0        8.741234    0.238643    0.596413
     71          1           0       -8.803653    1.910147   -0.197360
     72          1           0       11.163551   -2.107087   -2.464948
     73          1           0        9.797369   -0.829119   -2.251520
     74          1           0       11.503926   -0.707127   -3.133316
     75          1           0       15.413258    0.600165    1.156839
     76          1           0        9.495837   -2.404729   -0.457983
     77          1           0       -5.518502   -0.827818    0.024799
     78          1           0       -6.685176   -1.162356    1.125337
     79          1           0       -7.133452   -1.516630   -0.496128
     80          1           0       -6.535168    2.604660   -0.780555
     81          1           0        7.197220   -3.488448    1.340274
     82          1           0        5.939214   -3.943377   -0.275941
     83          1           0        7.770729   -4.260919   -0.419838
     84          1           0        6.584614    0.030785   -0.514472
     85          1           0       -4.288398    0.701257    0.062838
     86          1           0        4.710646   -2.407101    0.397133
     87          1           0       -4.492258    3.596741   -0.890439
     88          1           0        4.365974    0.609327   -0.567093
     89          1           0       -1.243686    4.020204   -1.585109
     90          1           0       -1.381091    4.445321   -0.008618
     91          1           0       -2.737570    4.981462   -1.064381
     92          1           0       -2.222148    0.758975   -0.185004
     93          1           0        2.309731    1.451259   -0.852173
     94          1           0        2.318985   -2.323744    1.003170
     95          1           0        1.031905   -2.100672   -0.048867
     96          1           0        2.728517   -2.854642   -0.536472
     97          1           0       -0.000272    2.639628   -0.763669
     98          1           0       -0.225234   -0.449696   -0.496222
 ---------------------------------------------------------------------

 SCF Done:  E(RCAM-B3LYP) =  -1706.91249111     A.U. after   17 cycles

 Excitation energies and oscillator strengths:

 Excited State   1:      Singlet-A      1.6154 eV  767.52 nm  f=3.0835  <S**2>=0.000
     155 ->158        -0.12317
     156 ->157         0.71011
     156 <-157        -0.15337
 This state for optimization and/or second-order correction.
 Total Energy, E(TD-HF/TD-DFT) =  -1706.85312691
 Copying the excited state density for this state as the 1-particle RhoCI density.

 The electronic state is 1-A.
 Alpha  occ. eigenvalues --  -19.23299 -19.21024 -10.31181 -10.29597 -10.29466
 Alpha  occ. eigenvalues --  -10.28368 -10.28316 -10.27966 -10.27896 -10.27791
 Alpha  occ. eigenvalues --  -10.27410 -10.27335 -10.27280 -10.27242 -10.27217
 Alpha  occ. eigenvalues --  -10.27126 -10.26874 -10.26766 -10.26722 -10.26652
 Alpha  occ. eigenvalues --  -10.26626 -10.26535 -10.26492 -10.26440 -10.26413
 Alpha  occ. eigenvalues --  -10.26398 -10.26306 -10.26082 -10.26065 -10.25985
 Alpha  occ. eigenvalues --  -10.25873 -10.25828 -10.25611 -10.25603 -10.25271
 Alpha  occ. eigenvalues --  -10.25259 -10.25072 -10.24737 -10.24649 -10.24550
 Alpha  occ. eigenvalues --  -10.24475 -10.24030  -1.09167  -1.05860  -0.93930
 Alpha  occ. eigenvalues --   -0.93568  -0.92107  -0.91610  -0.90485  -0.89489
 Alpha  occ. eigenvalues --   -0.87913  -0.87584  -0.86799  -0.85890  -0.85134
 Alpha  occ. eigenvalues --   -0.83077  -0.82116  -0.80596  -0.80360  -0.78798
 Alpha  occ. eigenvalues --   -0.76898  -0.76811  -0.76653  -0.76119  -0.74995
 Alpha  occ. eigenvalues --   -0.74969  -0.74353  -0.73661  -0.71931  -0.70636
 Alpha  occ. eigenvalues --   -0.68910  -0.67818  -0.66336  -0.64839  -0.63507
 Alpha  occ. eigenvalues --   -0.63195  -0.62934  -0.62253  -0.60684  -0.59468
 Alpha  occ. eigenvalues --   -0.58897  -0.57887  -0.57742  -0.57261  -0.56463
 Alpha  occ. eigenvalues --   -0.55787  -0.55086  -0.54897  -0.54401  -0.53564
 Alpha  occ. eigenvalues --   -0.52832  -0.52631  -0.52578  -0.52213  -0.51178
 Alpha  occ. eigenvalues --   -0.50939  -0.50296  -0.49801  -0.49531  -0.49157
 Alpha  occ. eigenvalues --   -0.48604  -0.48049  -0.47939  -0.47802  -0.47591
 Alpha  occ. eigenvalues --   -0.47512  -0.47186  -0.47119  -0.46802  -0.46629
 Alpha  occ. eigenvalues --   -0.46292  -0.45881  -0.45708  -0.45372  -0.45284
 Alpha  occ. eigenvalues --   -0.44957  -0.44701  -0.44035  -0.43808  -0.43393
 Alpha  occ. eigenvalues --   -0.43125  -0.42604  -0.42214  -0.42009  -0.41621
 Alpha  occ. eigenvalues --   -0.41568  -0.41311  -0.40893  -0.40740  -0.40533
 Alpha  occ. eigenvalues --   -0.39862  -0.39831  -0.39737  -0.39227  -0.38877
 Alpha  occ. eigenvalues --   -0.38798  -0.38525  -0.38492  -0.38129  -0.37535
 Alpha  occ. eigenvalues --   -0.37386  -0.37198  -0.36848  -0.35963  -0.35631
 Alpha  occ. eigenvalues --   -0.35246  -0.34243  -0.33209  -0.32612  -0.31979
 Alpha  occ. eigenvalues --   -0.31588  -0.29786  -0.28711  -0.26439  -0.23432
 Alpha  occ. eigenvalues --   -0.17692
 Alpha virt. eigenvalues --   -0.07849  -0.01550   0.02378   0.04848   0.06126
 Alpha virt. eigenvalues --    0.08776   0.09067   0.09931   0.11180   0.11425
 Alpha virt. eigenvalues --    0.12195   0.12240   0.12580   0.13150   0.13510

 Mulliken charges:
               1
     1  O   -0.539735
     2  O   -0.581686
     3  C    0.041343
     4  C   -0.139273
     5  C   -0.172754
     6  C    0.198413
     7  C    0.119066
     8  C   -0.025058
     9  C   -0.296940
    10  C   -0.277075
    11  C   -0.160590
    12  C   -0.210112
    13  C    0.189583
    14  C    0.072613
    15  C   -0.075023
    16  C   -0.224423
    17  C    0.071467
    18  C   -0.315076
    19  C   -0.282709
    20  C   -0.347415
    21  C   -0.095159
    22  C   -0.089163
    23  C   -0.383903
    24  C    0.092484
    25  C   -0.120502
    26  C   -0.365261
    27  C    0.087132
    28  C   -0.125231
    29  C   -0.342056
    30  C   -0.109709
    31  C   -0.054416
    32  C   -0.085054
    33  C   -0.116591
    34  C    0.054750
    35  C   -0.126275
    36  C    0.116994
    37  C   -0.381503
    38  C   -0.116589
    39  C   -0.133164
    40  C   -0.366305
    41  C   -0.047865
    42  C   -0.100887
    43  H    0.080465
    44  H    0.112881
    45  H    0.049996
    46  H    0.090173
    47  H    0.112484
    48  H    0.116078
    49  H    0.061434
    50  H    0.094274
    51  H    0.105321
    52  H    0.055080
    53  H    0.099818
    54  H    0.050930
    55  H    0.072150
    56  H    0.085749
    57  H    0.066912
    58  H    0.111833
    59  H    0.103553
    60  H    0.114707
    61  H    0.120146
    62  H    0.081439
    63  H    0.086212
    64  H    0.100759
    65  H    0.102982
    66  H    0.134453
    67  H    0.120763
    68  H    0.114690
    69  H    0.312161
    70  H    0.065798
    71  H    0.065805
    72  H    0.118172
    73  H    0.089933
    74  H    0.097781
    75  H    0.303173
    76  H    0.080670
    77  H    0.108299
    78  H    0.118154
    79  H    0.121234
    80  H    0.081707
    81  H    0.091804
    82  H    0.089032
    83  H    0.125093
    84  H    0.090205
    85  H    0.091102
    86  H    0.095444
    87  H    0.074567
    88  H    0.071333
    89  H    0.127288
    90  H    0.135350
    91  H    0.114433
    92  H    0.065779
    93  H    0.083689
    94  H    0.140917
    95  H    0.086282
    96  H    0.105573
    97  H    0.072421
    98  H    0.095179
 Sum of Mulliken charges =  -0.00000

 Dipole moment (field-independent basis, Debye):
    X=              0.0259    Y=             -0.4986    Z=             -0.6820  Tot=              0.8452
 Quadrupole moment (field-independent basis, Debye-Ang):
   XX=           -279.7564   YY=           -249.0283   ZZ=           -262.1321
   XY=            -22.9458   XZ=             42.9269   YZ=              0.8692

 Normal termination of Gaussian 16 at Mon Jul 15 15:18:53 2019.
