 Gaussian 16, Revision A.03,
 Gaussian 16:  ES64L-G16RevA.03 25-Dec-2016

 -------------------------------------
 # td=(NStates=1) CAM-B3LYP/6-31G(d,p)
 -------------------------------------

 --
 TD
 --
 Symbolic Z-matrix:
 Charge =  0 Multiplicity = 1

                         Standard orientation:
 ---------------------------------------------------------------------
 Center     Atomic      Atomic             Coordinates (Angstroms)
 Number     Number       Type             X           Y           Z
 ---------------------------------------------------------------------
      1          8           0      -14.153964   -2.097692    0.186783
      2          8           0       14.848461    0.880057    0.292198
      3          6           0      -11.937932   -0.063542    1.385072
      4          6           0      -11.031725    0.364365    0.108526
      5          6           0      -12.021206   -1.658083    1.357004
      6          6           0      -12.599595   -2.093451    0.117963
      7          6           0      -11.572171   -0.264637   -1.200433
      8          6           0       11.165832    0.903117    1.160422
      9          6           0      -11.120208    0.463322    2.639212
     10          6           0      -13.206375    0.640545    1.272309
     11          6           0       12.572797    1.398278    1.049211
     12          6           0      -12.203610   -1.523144   -1.095913
     13          6           0       13.558655    0.428296    0.438741
     14          6           0       10.701397    0.020259    0.044147
     15          6           0       -9.630530   -0.063506    0.196445
     16          6           0       13.108140   -0.135611   -0.946501
     17          6           0       11.551202   -0.428171   -0.857577
     18          6           0       10.131819    2.020040    1.370792
     19          6           0       11.093792   -0.048676    2.450046
     20          6           0      -11.205794    0.404346   -2.510922
     21          6           0       -8.558973    0.849155    0.187136
     22          6           0        9.231892   -0.301622   -0.033944
     23          6           0       11.186233   -1.174723   -2.160180
     24          6           0       -7.120925    0.455449    0.083177
     25          6           0        8.813500   -1.609586   -0.200265
     26          6           0       -6.700395   -0.964921    0.216076
     27          6           0        7.438817   -2.065951   -0.185089
     28          6           0       -6.140436    1.396041   -0.133198
     29          6           0        7.259529   -3.604573   -0.085603
     30          6           0        6.326878   -1.202176   -0.211599
     31          6           0       -4.791006    1.457569   -0.267680
     32          6           0        4.927299   -1.559827   -0.176437
     33          6           0       -4.059570    2.656594   -0.658866
     34          6           0       -2.667613    2.650517   -0.758732
     35          6           0        4.026135   -0.605706   -0.380453
     36          6           0        2.589512   -0.765507   -0.332531
     37          6           0       -2.095886    4.078132   -0.997687
     38          6           0       -1.762313    1.505465   -0.679312
     39          6           0        1.848258    0.386146   -0.503596
     40          6           0        2.014394   -2.115588   -0.039035
     41          6           0       -0.338663    1.555588   -0.675759
     42          6           0        0.438616    0.411555   -0.518762
     43          1           0      -11.180824    1.454330   -0.009218
     44          1           0      -12.642011   -1.982672    2.124955
     45          1           0      -10.938737   -2.081773    1.646768
     46          1           0      -12.441325   -3.229000    0.070586
     47          1           0      -10.100475   -0.238883    2.820867
     48          1           0      -11.126536    1.620305    2.482680
     49          1           0      -11.721229    0.250120    3.503243
     50          1           0      -13.663066    0.324429    0.407757
     51          1           0      -13.887635    0.779356    2.122690
     52          1           0      -12.926366    1.717226    0.960998
     53          1           0       12.541816    2.235209    0.516823
     54          1           0       12.828360    1.550010    2.145714
     55          1           0      -12.534757   -1.897411   -2.055098
     56          1           0       13.556718   -0.520063    0.940865
     57          1           0       -9.494028   -1.110348    0.243128
     58          1           0       13.724612   -0.925566   -1.376621
     59          1           0       13.143578    0.577047   -1.957081
     60          1           0        9.142310    1.505781    1.787596
     61          1           0        9.980769    2.636791    0.515325
     62          1           0       10.428720    2.711417    2.171318
     63          1           0       11.761662   -0.988393    2.538174
     64          1           0       10.172739   -0.320297    2.659666
     65          1           0       11.091842    0.544136    3.420271
     66          1           0      -10.088445    0.555229   -2.651577
     67          1           0      -11.395632    1.428795   -2.560665
     68          1           0      -11.542979    0.010535   -3.344474
     69          1           0      -14.720299   -2.588210   -0.533455
     70          1           0        8.662809    0.408048    0.288337
     71          1           0       -8.949106    1.838498   -0.182001
     72          1           0       11.475871   -2.200217   -2.067129
     73          1           0       10.275799   -0.744791   -2.568004
     74          1           0       11.865730   -0.634613   -2.982157
     75          1           0       15.481429    0.921002    1.230208
     76          1           0        9.596212   -2.465760   -0.214870
     77          1           0       -5.555344   -1.021408    0.641090
     78          1           0       -7.341437   -1.577492    0.989763
     79          1           0       -6.728740   -1.583978   -0.949575
     80          1           0       -6.562854    2.471847   -0.270324
     81          1           0        6.756158   -3.883441    0.778268
     82          1           0        6.553406   -3.869894   -0.950303
     83          1           0        8.342003   -4.130703   -0.258487
     84          1           0        6.763306   -0.123573   -0.348113
     85          1           0       -4.422574    0.628834   -0.134801
     86          1           0        4.821285   -2.580208    0.109988
     87          1           0       -4.635527    3.470595   -0.667224
     88          1           0        4.362175    0.595596   -0.393710
     89          1           0       -1.432979    3.874731   -1.921384
     90          1           0       -1.317331    4.460911   -0.139641
     91          1           0       -2.691038    4.860219   -1.118914
     92          1           0       -2.249674    0.559448   -0.300606
     93          1           0        2.353114    1.302295   -0.883368
     94          1           0        1.909034   -2.352772    1.190672
     95          1           0        0.992527   -2.178995   -0.171595
     96          1           0        2.834660   -2.983763   -0.460991
     97          1           0        0.032385    2.478744   -1.215895
     98          1           0       -0.034681   -0.590859   -0.249562
 ---------------------------------------------------------------------

 SCF Done:  E(RCAM-B3LYP) =  -1706.84631812     A.U. after   15 cycles

 Excitation energies and oscillator strengths:

 Excited State   1:      Singlet-A      1.9112 eV  648.74 nm  f=2.8009  <S**2>=0.000
     155 ->158         0.13399
     156 ->157         0.69887
     156 <-157        -0.11056
 This state for optimization and/or second-order correction.
 Total Energy, E(TD-HF/TD-DFT) =  -1706.77608444
 Copying the excited state density for this state as the 1-particle RhoCI density.

 The electronic state is 1-A.
 Alpha  occ. eigenvalues --  -19.21691 -19.19856 -10.30960 -10.29762 -10.29547
 Alpha  occ. eigenvalues --  -10.28383 -10.28292 -10.28278 -10.28271 -10.27522
 Alpha  occ. eigenvalues --  -10.27374 -10.27250 -10.27180 -10.27111 -10.27083
 Alpha  occ. eigenvalues --  -10.27021 -10.26964 -10.26956 -10.26703 -10.26635
 Alpha  occ. eigenvalues --  -10.26602 -10.26450 -10.26345 -10.26328 -10.26271
 Alpha  occ. eigenvalues --  -10.26246 -10.26219 -10.26189 -10.26009 -10.25847
 Alpha  occ. eigenvalues --  -10.25721 -10.25546 -10.25530 -10.25292 -10.24955
 Alpha  occ. eigenvalues --  -10.24821 -10.24707 -10.24683 -10.24598 -10.23947
 Alpha  occ. eigenvalues --  -10.23616 -10.22939  -1.07905  -1.03749  -0.93578
 Alpha  occ. eigenvalues --   -0.93335  -0.91894  -0.91472  -0.89699  -0.89037
 Alpha  occ. eigenvalues --   -0.87058  -0.86494  -0.86053  -0.85637  -0.84378
 Alpha  occ. eigenvalues --   -0.83382  -0.82330  -0.80910  -0.79217  -0.77930
 Alpha  occ. eigenvalues --   -0.77568  -0.76193  -0.75598  -0.75420  -0.75148
 Alpha  occ. eigenvalues --   -0.74952  -0.74883  -0.74485  -0.72363  -0.70479
 Alpha  occ. eigenvalues --   -0.69171  -0.67303  -0.66657  -0.65476  -0.63805
 Alpha  occ. eigenvalues --   -0.63734  -0.62694  -0.62343  -0.60397  -0.59754
 Alpha  occ. eigenvalues --   -0.59009  -0.58266  -0.57792  -0.57157  -0.55757
 Alpha  occ. eigenvalues --   -0.55492  -0.55085  -0.54116  -0.53846  -0.53344
 Alpha  occ. eigenvalues --   -0.52738  -0.52554  -0.52238  -0.51899  -0.51390
 Alpha  occ. eigenvalues --   -0.50762  -0.50114  -0.49928  -0.49807  -0.48953
 Alpha  occ. eigenvalues --   -0.48836  -0.48551  -0.48225  -0.47761  -0.47627
 Alpha  occ. eigenvalues --   -0.46803  -0.46676  -0.46365  -0.46150  -0.45771
 Alpha  occ. eigenvalues --   -0.45660  -0.45397  -0.45172  -0.45067  -0.45014
 Alpha  occ. eigenvalues --   -0.44318  -0.43953  -0.43423  -0.43305  -0.43005
 Alpha  occ. eigenvalues --   -0.42883  -0.42418  -0.42048  -0.41878  -0.41839
 Alpha  occ. eigenvalues --   -0.41485  -0.41413  -0.40923  -0.40556  -0.40040
 Alpha  occ. eigenvalues --   -0.39934  -0.39757  -0.39286  -0.38972  -0.38910
 Alpha  occ. eigenvalues --   -0.38764  -0.38699  -0.38054  -0.37864  -0.37686
 Alpha  occ. eigenvalues --   -0.37468  -0.37414  -0.36310  -0.36012  -0.35552
 Alpha  occ. eigenvalues --   -0.34884  -0.33414  -0.33000  -0.31648  -0.31170
 Alpha  occ. eigenvalues --   -0.31113  -0.28927  -0.28046  -0.26694  -0.23123
 Alpha  occ. eigenvalues --   -0.18864
 Alpha virt. eigenvalues --   -0.06664  -0.01474   0.02360   0.03979   0.06757
 Alpha virt. eigenvalues --    0.08664   0.08894   0.10118   0.11071   0.11244
 Alpha virt. eigenvalues --    0.11859   0.12225   0.12637   0.12967   0.13191

 Mulliken charges:
               1
     1  O   -0.606490
     2  O   -0.571487
     3  C    0.014322
     4  C   -0.159410
     5  C   -0.182245
     6  C    0.145142
     7  C    0.086786
     8  C   -0.031603
     9  C   -0.285149
    10  C   -0.287536
    11  C   -0.160453
    12  C   -0.091981
    13  C    0.198583
    14  C    0.099057
    15  C   -0.042779
    16  C   -0.214771
    17  C   -0.005873
    18  C   -0.324732
    19  C   -0.312327
    20  C   -0.364161
    21  C   -0.113217
    22  C   -0.102445
    23  C   -0.345713
    24  C    0.117302
    25  C   -0.091346
    26  C   -0.354090
    27  C    0.071510
    28  C   -0.127799
    29  C   -0.373384
    30  C   -0.120270
    31  C    0.007136
    32  C   -0.089402
    33  C   -0.110708
    34  C    0.083595
    35  C   -0.104440
    36  C    0.134124
    37  C   -0.358921
    38  C   -0.125858
    39  C   -0.120785
    40  C   -0.352000
    41  C   -0.087021
    42  C   -0.088978
    43  H    0.083891
    44  H    0.126900
    45  H    0.090450
    46  H    0.082534
    47  H    0.078582
    48  H    0.093728
    49  H    0.102277
    50  H    0.137364
    51  H    0.104744
    52  H    0.065507
    53  H    0.102654
    54  H    0.084186
    55  H    0.074296
    56  H    0.078814
    57  H    0.094582
    58  H    0.114808
    59  H    0.078328
    60  H    0.094735
    61  H    0.116550
    62  H    0.101193
    63  H    0.099392
    64  H    0.114574
    65  H    0.074166
    66  H    0.115864
    67  H    0.120647
    68  H    0.120643
    69  H    0.307178
    70  H    0.075969
    71  H    0.085912
    72  H    0.123373
    73  H    0.126987
    74  H    0.071502
    75  H    0.301300
    76  H    0.084107
    77  H    0.098458
    78  H    0.107082
    79  H    0.087935
    80  H    0.049507
    81  H    0.135168
    82  H    0.113866
    83  H    0.092716
    84  H    0.071254
    85  H    0.028321
    86  H    0.096229
    87  H    0.084543
    88  H    0.082675
    89  H    0.111976
    90  H    0.097141
    91  H    0.119433
    92  H    0.079771
    93  H    0.086070
    94  H    0.088867
    95  H    0.123728
    96  H    0.102438
    97  H    0.089501
    98  H    0.075393
 Sum of Mulliken charges =  -0.00000

 Dipole moment (field-independent basis, Debye):
    X=             -0.8417    Y=             -1.0937    Z=              0.3803  Tot=              1.4315
 Quadrupole moment (field-independent basis, Debye-Ang):
   XX=           -264.6138   YY=           -243.6214   ZZ=           -260.5642
   XY=              0.5359   XZ=             41.8574   YZ=             -1.4001

 Normal termination of Gaussian 16 at Sat Jul 13 18:08:34 2019.
