 Gaussian 16, Revision A.03,
 Gaussian 16:  ES64L-G16RevA.03 25-Dec-2016

 -------------------------------------
 # td=(NStates=1) CAM-B3LYP/6-31G(d,p)
 -------------------------------------

 --
 TD
 --
 Symbolic Z-matrix:
 Charge =  0 Multiplicity = 1

                         Standard orientation:
 ---------------------------------------------------------------------
 Center     Atomic      Atomic             Coordinates (Angstroms)
 Number     Number       Type             X           Y           Z
 ---------------------------------------------------------------------
      1          8           0      -14.063421   -1.930755    0.376954
      2          8           0       14.803701    0.885196    0.030996
      3          6           0      -11.817099   -0.035466    1.284825
      4          6           0      -10.946308    0.356206    0.082772
      5          6           0      -11.973878   -1.624153    1.323446
      6          6           0      -12.745171   -2.048417    0.126077
      7          6           0      -11.644176   -0.439853   -1.287785
      8          6           0       11.156935    1.003761    0.994037
      9          6           0      -10.945653    0.468479    2.583121
     10          6           0      -13.100299    0.649785    1.277639
     11          6           0       12.608300    1.511387    0.645586
     12          6           0      -12.382454   -1.504591   -1.169151
     13          6           0       13.565184    0.277030    0.343643
     14          6           0       10.719513   -0.066582    0.039809
     15          6           0       -9.541959   -0.067768   -0.060799
     16          6           0       13.104805   -0.443579   -0.859082
     17          6           0       11.514578   -0.583410   -0.887282
     18          6           0       10.206316    2.262242    0.788296
     19          6           0       11.007531    0.310124    2.381142
     20          6           0      -11.271448    0.170109   -2.660102
     21          6           0       -8.584407    0.916678   -0.265792
     22          6           0        9.256662   -0.408000    0.029083
     23          6           0       11.088275   -1.561047   -2.017707
     24          6           0       -7.111162    0.475371   -0.116517
     25          6           0        8.768794   -1.644989   -0.083746
     26          6           0       -6.774697   -0.949488    0.154708
     27          6           0        7.366556   -2.118818   -0.080731
     28          6           0       -6.212037    1.486280   -0.404088
     29          6           0        7.077925   -3.574082    0.148900
     30          6           0        6.397412   -1.194964   -0.253634
     31          6           0       -4.694580    1.507130   -0.474238
     32          6           0        4.947333   -1.562629   -0.134924
     33          6           0       -3.911883    2.625907   -0.533284
     34          6           0       -2.533190    2.665299   -0.533053
     35          6           0        3.996143   -0.489643   -0.107746
     36          6           0        2.599192   -0.669209    0.100001
     37          6           0       -1.875522    4.010532   -0.826108
     38          6           0       -1.754327    1.580823   -0.526308
     39          6           0        1.800579    0.379819   -0.032635
     40          6           0        2.077893   -2.081289    0.203742
     41          6           0       -0.392664    1.534028   -0.370541
     42          6           0        0.410135    0.394137   -0.148937
     43          1           0      -11.121393    1.300640   -0.078301
     44          1           0      -12.613998   -1.829907    2.215084
     45          1           0      -11.114513   -2.208045    1.674528
     46          1           0      -12.704271   -3.184237    0.159636
     47          1           0      -10.138612   -0.057881    2.932782
     48          1           0      -10.719703    1.485055    2.248095
     49          1           0      -11.554527    0.568002    3.481435
     50          1           0      -13.719684    0.260926    0.534307
     51          1           0      -13.808480    0.446234    2.128805
     52          1           0      -12.990786    1.746096    1.073885
     53          1           0       12.329411    2.183457   -0.410163
     54          1           0       12.961634    2.020607    1.437016
     55          1           0      -12.836844   -1.883285   -2.193800
     56          1           0       13.489459   -0.445312    1.002687
     57          1           0       -9.197827   -1.038799    0.068576
     58          1           0       13.654898   -1.331439   -1.237109
     59          1           0       13.282200    0.272059   -1.733939
     60          1           0        9.097636    1.963102    1.057299
     61          1           0       10.224649    2.689021   -0.309619
     62          1           0       10.625415    3.202072    1.558610
     63          1           0       11.676830   -0.585538    2.359101
     64          1           0        9.879843    0.199058    2.697020
     65          1           0       11.596540    0.968143    3.211713
     66          1           0      -10.244672    0.355448   -2.842940
     67          1           0      -11.738185    1.244015   -2.875817
     68          1           0      -11.455219   -0.450660   -3.543918
     69          1           0      -14.445637   -2.183033   -0.467712
     70          1           0        8.652328    0.392694    0.278039
     71          1           0       -8.778917    1.965084   -0.272438
     72          1           0       11.395962   -2.566741   -1.777497
     73          1           0       10.040746   -1.461708   -2.164350
     74          1           0       11.446733   -1.519739   -3.135945
     75          1           0       15.249388    1.216305    0.825369
     76          1           0        9.440183   -2.392717   -0.071389
     77          1           0       -5.733014   -1.263116    0.358617
     78          1           0       -7.284243   -1.382777    1.156384
     79          1           0       -7.318745   -1.606741   -0.594732
     80          1           0       -6.712341    2.497740   -0.840300
     81          1           0        6.375440   -3.493100    1.229091
     82          1           0        6.596043   -4.139522   -0.791072
     83          1           0        7.918213   -4.190080    0.604303
     84          1           0        6.565196   -0.107333   -0.139245
     85          1           0       -4.246920    0.589479   -0.196921
     86          1           0        4.685787   -2.625055   -0.025538
     87          1           0       -4.520009    3.476720   -0.425532
     88          1           0        4.422221    0.483559   -0.629358
     89          1           0       -1.435830    3.946270   -1.843227
     90          1           0       -1.132027    4.393173   -0.118777
     91          1           0       -2.461943    4.771441   -0.872062
     92          1           0       -2.279707    0.461895   -0.144291
     93          1           0        2.336070    1.313167   -0.397044
     94          1           0        2.431040   -2.634584    1.111073
     95          1           0        0.969794   -2.053252    0.472193
     96          1           0        2.345224   -2.533265   -0.703742
     97          1           0        0.207905    2.425219   -0.440881
     98          1           0       -0.253870   -0.407228    0.102584
 ---------------------------------------------------------------------

 SCF Done:  E(RCAM-B3LYP) =  -1706.92596839     A.U. after   14 cycles

 Excitation energies and oscillator strengths:

 Excited State   1:      Singlet-A      2.3344 eV  531.13 nm  f=2.9216  <S**2>=0.000
     155 ->158         0.15549
     156 ->157         0.68847
 This state for optimization and/or second-order correction.
 Total Energy, E(TD-HF/TD-DFT) =  -1706.84018249
 Copying the excited state density for this state as the 1-particle RhoCI density.

 The electronic state is 1-A.
 Alpha  occ. eigenvalues --  -19.21030 -19.20758 -10.29833 -10.29347 -10.28876
 Alpha  occ. eigenvalues --  -10.28354 -10.28272 -10.27669 -10.27632 -10.27496
 Alpha  occ. eigenvalues --  -10.27354 -10.27202 -10.27020 -10.27019 -10.26979
 Alpha  occ. eigenvalues --  -10.26939 -10.26855 -10.26578 -10.26574 -10.26562
 Alpha  occ. eigenvalues --  -10.26452 -10.26431 -10.26195 -10.25997 -10.25989
 Alpha  occ. eigenvalues --  -10.25867 -10.25768 -10.25729 -10.25670 -10.25646
 Alpha  occ. eigenvalues --  -10.25564 -10.25409 -10.25230 -10.25092 -10.25089
 Alpha  occ. eigenvalues --  -10.24826 -10.24768 -10.24571 -10.24568 -10.24145
 Alpha  occ. eigenvalues --  -10.23147 -10.22805  -1.13022  -1.09362  -0.93101
 Alpha  occ. eigenvalues --   -0.92871  -0.92602  -0.91603  -0.90048  -0.89358
 Alpha  occ. eigenvalues --   -0.86697  -0.86290  -0.85261  -0.85131  -0.84479
 Alpha  occ. eigenvalues --   -0.82724  -0.81472  -0.80441  -0.79484  -0.78421
 Alpha  occ. eigenvalues --   -0.76656  -0.76195  -0.75748  -0.75553  -0.75358
 Alpha  occ. eigenvalues --   -0.74851  -0.74801  -0.73847  -0.73226  -0.70269
 Alpha  occ. eigenvalues --   -0.68709  -0.67887  -0.66602  -0.65346  -0.63830
 Alpha  occ. eigenvalues --   -0.62987  -0.62828  -0.62172  -0.60433  -0.60124
 Alpha  occ. eigenvalues --   -0.60071  -0.59212  -0.58882  -0.57065  -0.56432
 Alpha  occ. eigenvalues --   -0.55423  -0.54968  -0.54604  -0.54094  -0.53275
 Alpha  occ. eigenvalues --   -0.53163  -0.52481  -0.52064  -0.51580  -0.51326
 Alpha  occ. eigenvalues --   -0.50460  -0.50245  -0.49649  -0.49507  -0.48833
 Alpha  occ. eigenvalues --   -0.48637  -0.48486  -0.48314  -0.48123  -0.47914
 Alpha  occ. eigenvalues --   -0.47550  -0.47324  -0.46418  -0.46061  -0.45634
 Alpha  occ. eigenvalues --   -0.45224  -0.44993  -0.44884  -0.44586  -0.44569
 Alpha  occ. eigenvalues --   -0.44160  -0.43704  -0.43579  -0.43564  -0.43373
 Alpha  occ. eigenvalues --   -0.42851  -0.42611  -0.42378  -0.42154  -0.42030
 Alpha  occ. eigenvalues --   -0.41647  -0.41390  -0.40974  -0.40895  -0.40659
 Alpha  occ. eigenvalues --   -0.40199  -0.40162  -0.39733  -0.39374  -0.39100
 Alpha  occ. eigenvalues --   -0.38741  -0.38575  -0.38149  -0.38028  -0.37631
 Alpha  occ. eigenvalues --   -0.37316  -0.36829  -0.36545  -0.36446  -0.35606
 Alpha  occ. eigenvalues --   -0.34936  -0.34489  -0.33039  -0.31660  -0.31391
 Alpha  occ. eigenvalues --   -0.30913  -0.29648  -0.28552  -0.26466  -0.23901
 Alpha  occ. eigenvalues --   -0.19842
 Alpha virt. eigenvalues --   -0.05266  -0.00437   0.03141   0.05724   0.07566
 Alpha virt. eigenvalues --    0.09138   0.10557   0.11192   0.11429   0.12355
 Alpha virt. eigenvalues --    0.12732   0.13104   0.13218   0.13899   0.14179

 Mulliken charges:
               1
     1  O   -0.516842
     2  O   -0.560108
     3  C    0.022120
     4  C   -0.091918
     5  C   -0.205137
     6  C    0.141956
     7  C    0.068540
     8  C   -0.036983
     9  C   -0.316286
    10  C   -0.303035
    11  C   -0.159015
    12  C   -0.128073
    13  C    0.179063
    14  C    0.074999
    15  C   -0.044045
    16  C   -0.231808
    17  C    0.036604
    18  C   -0.284861
    19  C   -0.287900
    20  C   -0.370099
    21  C   -0.102288
    22  C   -0.094591
    23  C   -0.372638
    24  C    0.128049
    25  C   -0.089725
    26  C   -0.390526
    27  C    0.093595
    28  C   -0.159221
    29  C   -0.366369
    30  C   -0.114836
    31  C   -0.064794
    32  C   -0.110432
    33  C   -0.112904
    34  C    0.109257
    35  C   -0.142825
    36  C    0.123889
    37  C   -0.368646
    38  C   -0.116995
    39  C   -0.123069
    40  C   -0.367046
    41  C   -0.077287
    42  C   -0.087735
    43  H    0.085135
    44  H    0.111109
    45  H    0.098794
    46  H    0.057092
    47  H    0.106502
    48  H    0.091319
    49  H    0.093261
    50  H    0.130706
    51  H    0.102549
    52  H    0.080664
    53  H    0.081350
    54  H    0.087374
    55  H    0.072981
    56  H    0.094718
    57  H    0.088007
    58  H    0.105866
    59  H    0.112278
    60  H    0.090625
    61  H    0.105884
    62  H    0.067908
    63  H    0.109591
    64  H    0.111973
    65  H    0.064903
    66  H    0.129498
    67  H    0.093952
    68  H    0.106675
    69  H    0.300327
    70  H    0.064057
    71  H    0.094722
    72  H    0.114456
    73  H    0.127361
    74  H    0.089272
    75  H    0.302479
    76  H    0.074836
    77  H    0.122398
    78  H    0.098853
    79  H    0.129925
    80  H    0.066066
    81  H    0.094370
    82  H    0.121006
    83  H    0.116099
    84  H    0.089362
    85  H    0.075446
    86  H    0.098218
    87  H    0.084700
    88  H    0.088349
    89  H    0.126726
    90  H    0.115335
    91  H    0.113531
    92  H    0.046717
    93  H    0.077498
    94  H    0.113706
    95  H    0.103559
    96  H    0.138064
    97  H    0.078502
    98  H    0.073313
 Sum of Mulliken charges =  -0.00000

 Dipole moment (field-independent basis, Debye):
    X=             -0.0909    Y=             -1.0924    Z=              0.4754  Tot=              1.1948
 Quadrupole moment (field-independent basis, Debye-Ang):
   XX=           -265.5779   YY=           -242.5523   ZZ=           -261.7202
   XY=             -2.1856   XZ=             38.6885   YZ=              0.7867

 Normal termination of Gaussian 16 at Tue Jul 16 13:57:43 2019.
