 Gaussian 16, Revision A.03,
 Gaussian 16:  ES64L-G16RevA.03 25-Dec-2016

 -------------------------------------
 # td=(NStates=1) CAM-B3LYP/6-31G(d,p)
 -------------------------------------

 --
 TD
 --
 Symbolic Z-matrix:
 Charge =  0 Multiplicity = 1

                         Standard orientation:
 ---------------------------------------------------------------------
 Center     Atomic      Atomic             Coordinates (Angstroms)
 Number     Number       Type             X           Y           Z
 ---------------------------------------------------------------------
      1          8           0       13.988014   -2.108783   -0.178816
      2          8           0      -14.820667    1.059040   -0.038628
      3          6           0       11.870782    0.015040   -1.253509
      4          6           0       11.053785    0.449904    0.039992
      5          6           0       11.960765   -1.435318   -1.253832
      6          6           0       12.661284   -2.129058   -0.063281
      7          6           0       11.624745   -0.301884    1.238777
      8          6           0      -11.012513    1.035829   -0.960736
      9          6           0       11.084619    0.498068   -2.421384
     10          6           0       13.223849    0.705704   -1.159416
     11          6           0      -12.413405    1.711152   -0.563453
     12          6           0       12.329051   -1.462737    1.247777
     13          6           0      -13.482593    0.571986   -0.222506
     14          6           0      -10.664838    0.035428    0.079972
     15          6           0        9.569271    0.058842    0.025861
     16          6           0      -12.969949    0.023432    1.138931
     17          6           0      -11.482073   -0.403177    1.070432
     18          6           0      -10.040212    2.242925   -0.977015
     19          6           0      -11.163647    0.274842   -2.318015
     20          6           0       11.257577    0.482793    2.527127
     21          6           0        8.487497    0.870243    0.277289
     22          6           0       -9.313275   -0.503852    0.010616
     23          6           0      -11.097541   -1.407741    2.264604
     24          6           0        7.092767    0.548516    0.193484
     25          6           0       -8.823595   -1.794909    0.145243
     26          6           0        6.738062   -0.909824   -0.192251
     27          6           0       -7.485001   -2.172037   -0.046992
     28          6           0        6.083586    1.516770    0.355639
     29          6           0       -7.198695   -3.723723   -0.114355
     30          6           0       -6.425948   -1.378080   -0.093366
     31          6           0        4.750896    1.445937    0.356499
     32          6           0       -4.975883   -1.721337   -0.132917
     33          6           0        3.889485    2.506934    0.614674
     34          6           0        2.462091    2.586523    0.508858
     35          6           0       -4.061374   -0.644318   -0.007177
     36          6           0       -2.646936   -0.947675   -0.109740
     37          6           0        1.924841    3.937773    0.860219
     38          6           0        1.673206    1.442788    0.095906
     39          6           0       -1.838411    0.138466    0.034329
     40          6           0       -2.047150   -2.369748   -0.274420
     41          6           0        0.315417    1.398474    0.139399
     42          6           0       -0.409041    0.192798   -0.055737
     43          1           0       11.296271    1.636229    0.139564
     44          1           0       12.650162   -1.767200   -2.214585
     45          1           0       10.981920   -1.739589   -1.442212
     46          1           0       12.192302   -3.218824    0.102064
     47          1           0       10.145151   -0.182109   -2.735025
     48          1           0       10.835003    1.386420   -2.415835
     49          1           0       11.770707    0.726707   -3.183800
     50          1           0       13.708387    0.291651   -0.211406
     51          1           0       13.824605    0.395123   -1.875337
     52          1           0       13.114863    1.805576   -1.407363
     53          1           0      -12.317877    2.374687    0.240700
     54          1           0      -12.676310    2.156990   -1.446934
     55          1           0       12.737911   -1.844596    2.213831
     56          1           0      -13.324892   -0.169257   -0.838744
     57          1           0        9.320793   -1.010789   -0.227720
     58          1           0      -13.461430   -0.893706    1.156539
     59          1           0      -13.004845    0.767076    1.940160
     60          1           0       -8.846947    1.904911   -1.062581
     61          1           0       -9.921480    2.698261   -0.029800
     62          1           0      -10.242606    3.056584   -1.623525
     63          1           0      -11.785978   -0.660468   -2.203751
     64          1           0      -10.073699   -0.013832   -2.723060
     65          1           0      -11.645204    1.118984   -3.041904
     66          1           0       10.285591    0.842960    2.608297
     67          1           0       11.950953    1.418183    2.667205
     68          1           0       11.532949   -0.212010    3.420503
     69          1           0       14.455026   -2.313687    0.577403
     70          1           0       -8.520331    0.180070   -0.398324
     71          1           0        8.623125    1.969172    0.519227
     72          1           0      -11.368698   -2.417996    2.224372
     73          1           0      -10.099062   -1.463785    2.395195
     74          1           0      -11.697237   -1.072646    3.142351
     75          1           0      -15.143198    1.133871   -0.989729
     76          1           0       -9.511645   -2.733810    0.076613
     77          1           0        5.608053   -0.997333   -0.477513
     78          1           0        7.433569   -1.039294   -1.101093
     79          1           0        6.983171   -1.598131    0.610271
     80          1           0        6.387386    2.704138    0.531185
     81          1           0       -6.500852   -4.111290   -0.981587
     82          1           0       -6.759747   -3.838714    0.891811
     83          1           0       -8.216140   -4.197349   -0.141924
     84          1           0       -6.575102   -0.451158    0.431783
     85          1           0        4.238085    0.477395    0.039038
     86          1           0       -4.573278   -2.707025   -0.412178
     87          1           0        4.722905    3.363492    1.208826
     88          1           0       -4.369423    0.293210    0.256347
     89          1           0        1.198172    3.873933    1.572208
     90          1           0        1.434727    4.463198    0.131370
     91          1           0        2.798330    4.627677    0.999221
     92          1           0        2.309030    0.688550   -0.296200
     93          1           0       -2.338957    1.128806    0.150332
     94          1           0       -1.850369   -2.571369   -1.507941
     95          1           0       -0.844704   -2.457286    0.353872
     96          1           0       -2.879454   -3.324294    0.171870
     97          1           0       -0.222467    2.361204    0.366722
     98          1           0       -0.114984   -0.754042   -0.442407
 ---------------------------------------------------------------------

 SCF Done:  E(RCAM-B3LYP) =  -1706.87633830     A.U. after   15 cycles

 Excitation energies and oscillator strengths:

 Excited State   1:      Singlet-A      1.9653 eV  630.86 nm  f=2.9785  <S**2>=0.000
     155 ->158         0.13882
     156 ->157         0.69679
     156 <-157        -0.10372
 This state for optimization and/or second-order correction.
 Total Energy, E(TD-HF/TD-DFT) =  -1706.80411464
 Copying the excited state density for this state as the 1-particle RhoCI density.

 The electronic state is 1-A.
 Alpha  occ. eigenvalues --  -19.22269 -19.21577 -10.32150 -10.31680 -10.29511
 Alpha  occ. eigenvalues --  -10.28374 -10.28320 -10.28033 -10.28019 -10.27655
 Alpha  occ. eigenvalues --  -10.27652 -10.27530 -10.27424 -10.27418 -10.27361
 Alpha  occ. eigenvalues --  -10.27075 -10.26902 -10.26857 -10.26778 -10.26563
 Alpha  occ. eigenvalues --  -10.26488 -10.26419 -10.26372 -10.26350 -10.26302
 Alpha  occ. eigenvalues --  -10.26181 -10.26129 -10.25940 -10.25686 -10.25634
 Alpha  occ. eigenvalues --  -10.25624 -10.25601 -10.25462 -10.25282 -10.25048
 Alpha  occ. eigenvalues --  -10.24684 -10.24399 -10.24291 -10.24154 -10.23937
 Alpha  occ. eigenvalues --  -10.22971 -10.22440  -1.14035  -1.08763  -0.93961
 Alpha  occ. eigenvalues --   -0.93424  -0.91872  -0.91167  -0.90317  -0.89616
 Alpha  occ. eigenvalues --   -0.87139  -0.86500  -0.85987  -0.85130  -0.84264
 Alpha  occ. eigenvalues --   -0.82742  -0.81887  -0.79901  -0.79260  -0.77674
 Alpha  occ. eigenvalues --   -0.77231  -0.76536  -0.76024  -0.75878  -0.75811
 Alpha  occ. eigenvalues --   -0.74824  -0.74706  -0.74258  -0.72364  -0.70856
 Alpha  occ. eigenvalues --   -0.69564  -0.68826  -0.66495  -0.65372  -0.64355
 Alpha  occ. eigenvalues --   -0.63093  -0.62845  -0.62255  -0.60488  -0.59626
 Alpha  occ. eigenvalues --   -0.59322  -0.58779  -0.58338  -0.56716  -0.56218
 Alpha  occ. eigenvalues --   -0.55393  -0.55075  -0.54527  -0.53902  -0.53301
 Alpha  occ. eigenvalues --   -0.53193  -0.52875  -0.51924  -0.51849  -0.51267
 Alpha  occ. eigenvalues --   -0.50474  -0.49883  -0.49613  -0.49256  -0.49100
 Alpha  occ. eigenvalues --   -0.48530  -0.48515  -0.48394  -0.48096  -0.47930
 Alpha  occ. eigenvalues --   -0.47728  -0.47073  -0.46524  -0.46375  -0.46100
 Alpha  occ. eigenvalues --   -0.45849  -0.45694  -0.45514  -0.44518  -0.44470
 Alpha  occ. eigenvalues --   -0.44244  -0.43716  -0.43695  -0.43308  -0.43192
 Alpha  occ. eigenvalues --   -0.42964  -0.42864  -0.42614  -0.42467  -0.42437
 Alpha  occ. eigenvalues --   -0.42110  -0.41762  -0.41476  -0.41269  -0.40912
 Alpha  occ. eigenvalues --   -0.40431  -0.39735  -0.39446  -0.39259  -0.38932
 Alpha  occ. eigenvalues --   -0.38694  -0.38419  -0.38224  -0.37891  -0.37761
 Alpha  occ. eigenvalues --   -0.37357  -0.37045  -0.36981  -0.36557  -0.35968
 Alpha  occ. eigenvalues --   -0.35169  -0.34672  -0.32992  -0.32033  -0.31519
 Alpha  occ. eigenvalues --   -0.31239  -0.29521  -0.28976  -0.26671  -0.23173
 Alpha  occ. eigenvalues --   -0.18790
 Alpha virt. eigenvalues --   -0.06412  -0.01316   0.02224   0.05867   0.07338
 Alpha virt. eigenvalues --    0.08884   0.09950   0.10302   0.10758   0.11701
 Alpha virt. eigenvalues --    0.12101   0.12636   0.12772   0.13241   0.13381

 Mulliken charges:
               1
     1  O   -0.499580
     2  O   -0.553758
     3  C    0.015940
     4  C   -0.129956
     5  C   -0.160223
     6  C    0.153972
     7  C    0.110255
     8  C   -0.035804
     9  C   -0.275374
    10  C   -0.300019
    11  C   -0.178586
    12  C   -0.157855
    13  C    0.149892
    14  C    0.100415
    15  C   -0.098601
    16  C   -0.213905
    17  C   -0.005482
    18  C   -0.312409
    19  C   -0.285867
    20  C   -0.348693
    21  C   -0.078589
    22  C   -0.137306
    23  C   -0.350598
    24  C    0.082193
    25  C   -0.101459
    26  C   -0.363366
    27  C    0.079023
    28  C   -0.130738
    29  C   -0.357022
    30  C   -0.145886
    31  C   -0.028852
    32  C   -0.103738
    33  C   -0.141398
    34  C    0.060994
    35  C   -0.089779
    36  C    0.126408
    37  C   -0.379211
    38  C   -0.077965
    39  C   -0.128361
    40  C   -0.335562
    41  C   -0.098391
    42  C   -0.086470
    43  H    0.085288
    44  H    0.083019
    45  H    0.095727
    46  H    0.049540
    47  H    0.083615
    48  H    0.101708
    49  H    0.087470
    50  H    0.111654
    51  H    0.114319
    52  H    0.079762
    53  H    0.106110
    54  H    0.077602
    55  H    0.078976
    56  H    0.086318
    57  H    0.094440
    58  H    0.116513
    59  H    0.124803
    60  H    0.068898
    61  H    0.120914
    62  H    0.112353
    63  H    0.111732
    64  H    0.105712
    65  H    0.080464
    66  H    0.131034
    67  H    0.096672
    68  H    0.085075
    69  H    0.303594
    70  H    0.085750
    71  H    0.077179
    72  H    0.118634
    73  H    0.127679
    74  H    0.099851
    75  H    0.308546
    76  H    0.077773
    77  H    0.100470
    78  H    0.113604
    79  H    0.133069
    80  H    0.059024
    81  H    0.111346
    82  H    0.133748
    83  H    0.093862
    84  H    0.079217
    85  H    0.076837
    86  H    0.083762
    87  H    0.059817
    88  H    0.088698
    89  H    0.129506
    90  H    0.130685
    91  H    0.115245
    92  H    0.083330
    93  H    0.070636
    94  H    0.107346
    95  H    0.088269
    96  H    0.085597
    97  H    0.092404
    98  H    0.086514
 Sum of Mulliken charges =  -0.00000

 Dipole moment (field-independent basis, Debye):
    X=              0.0280    Y=             -0.4125    Z=             -0.5095  Tot=              0.6562
 Quadrupole moment (field-independent basis, Debye-Ang):
   XX=           -254.0015   YY=           -246.6446   ZZ=           -263.4482
   XY=              1.4438   XZ=             32.7090   YZ=             -3.6398

 Normal termination of Gaussian 16 at Fri Jul 12 19:15:55 2019.
