 Gaussian 16, Revision A.03,
 Gaussian 16:  ES64L-G16RevA.03 25-Dec-2016

 -------------------------------------
 # td=(NStates=1) CAM-B3LYP/6-31G(d,p)
 -------------------------------------

 --
 TD
 --
 Symbolic Z-matrix:
 Charge =  0 Multiplicity = 1

                         Standard orientation:
 ---------------------------------------------------------------------
 Center     Atomic      Atomic             Coordinates (Angstroms)
 Number     Number       Type             X           Y           Z
 ---------------------------------------------------------------------
      1          8           0       14.252957   -1.831567   -0.267942
      2          8           0      -14.876100    0.930337    0.311249
      3          6           0       11.846295    0.060187   -1.168819
      4          6           0       11.038848    0.438291    0.171709
      5          6           0       12.078699   -1.435902   -1.337268
      6          6           0       12.789766   -2.160292   -0.175349
      7          6           0       11.563465   -0.459931    1.308594
      8          6           0      -11.214460    0.978385   -0.866820
      9          6           0       11.088722    0.527068   -2.434428
     10          6           0       13.143677    0.930452   -1.046618
     11          6           0      -12.618013    1.549642   -0.514110
     12          6           0       12.295864   -1.620836    1.175358
     13          6           0      -13.576223    0.384683   -0.142677
     14          6           0      -10.672881   -0.098812    0.045643
     15          6           0        9.530307   -0.033024    0.039160
     16          6           0      -12.982981   -0.321188    1.084839
     17          6           0      -11.465053   -0.575304    1.005171
     18          6           0      -10.224340    2.246841   -1.043839
     19          6           0      -11.225634    0.438610   -2.366983
     20          6           0       11.216669    0.180170    2.614307
     21          6           0        8.546289    0.828504    0.148283
     22          6           0       -9.323427   -0.363491   -0.123471
     23          6           0      -11.081031   -1.432332    2.217913
     24          6           0        7.208170    0.464304    0.139538
     25          6           0       -8.839160   -1.610356    0.044034
     26          6           0        6.791113   -0.959365   -0.114952
     27          6           0       -7.497436   -2.147712   -0.143150
     28          6           0        6.264068    1.508276    0.121701
     29          6           0       -7.165079   -3.616192   -0.331841
     30          6           0       -6.416325   -1.272792   -0.129944
     31          6           0        4.801464    1.385359    0.245427
     32          6           0       -5.035011   -1.550893   -0.147988
     33          6           0        4.006162    2.491300    0.450992
     34          6           0        2.576457    2.583362    0.512508
     35          6           0       -4.036270   -0.620292    0.141288
     36          6           0       -2.583387   -0.844622   -0.204551
     37          6           0        1.980085    3.931438    0.855119
     38          6           0        1.741867    1.542374    0.358209
     39          6           0       -1.767661    0.217351    0.135911
     40          6           0       -2.135466   -2.171904   -0.383659
     41          6           0        0.364428    1.535315    0.337840
     42          6           0       -0.284313    0.276863    0.048442
     43          1           0       11.007862    1.538811    0.452588
     44          1           0       12.545938   -1.932752   -2.335221
     45          1           0       11.073014   -1.900028   -1.438065
     46          1           0       12.774012   -3.263024   -0.117603
     47          1           0       10.253491   -0.172975   -2.456198
     48          1           0       10.582432    1.657301   -2.280529
     49          1           0       11.826972    0.361724   -3.338807
     50          1           0       13.646600    0.600359   -0.187966
     51          1           0       13.631292    0.717960   -1.843808
     52          1           0       12.561590    1.877806   -0.834505
     53          1           0      -12.622028    2.159493    0.392110
     54          1           0      -13.305883    2.019855   -1.386135
     55          1           0       12.643503   -2.145736    2.047988
     56          1           0      -13.703740   -0.232539   -0.932611
     57          1           0        9.348418   -1.176991    0.123403
     58          1           0      -13.873252   -1.101005    1.404536
     59          1           0      -13.104073    0.285042    2.020331
     60          1           0       -9.339792    1.780397   -1.321894
     61          1           0       -9.935450    2.738592   -0.164708
     62          1           0      -10.444174    2.955628   -1.592065
     63          1           0      -11.634979   -0.466772   -2.420051
     64          1           0      -10.068092    0.421513   -2.685415
     65          1           0      -11.670588    1.164893   -2.969298
     66          1           0       10.166041    0.079042    2.895421
     67          1           0       11.600841    1.125906    2.792087
     68          1           0       11.632024   -0.522276    3.404622
     69          1           0       14.693505   -2.010763    0.644066
     70          1           0       -8.552375    0.540577   -0.454140
     71          1           0        8.730668    1.837034    0.466094
     72          1           0      -11.125866   -2.305830    1.867483
     73          1           0      -10.049705   -1.218374    2.543226
     74          1           0      -11.917781   -1.178668    2.960129
     75          1           0      -15.173735    1.523178   -0.558718
     76          1           0       -9.575265   -2.473773    0.080339
     77          1           0        5.798263   -1.059261    0.092422
     78          1           0        6.937728   -1.038551   -1.251451
     79          1           0        7.356882   -1.652815    0.507711
     80          1           0        6.640744    2.488694    0.304251
     81          1           0       -6.512311   -3.850548   -1.363453
     82          1           0       -6.668624   -4.058922    0.682877
     83          1           0       -8.134936   -4.287803   -0.402263
     84          1           0       -6.564178   -0.186127    0.347619
     85          1           0        4.403264    0.501871   -0.118237
     86          1           0       -4.746189   -2.319677   -0.733002
     87          1           0        4.580313    3.398803    0.734976
     88          1           0       -4.479089    0.412169    0.387680
     89          1           0        1.491845    3.946816    1.906786
     90          1           0        1.170497    4.252998   -0.007830
     91          1           0        2.572668    4.630197    0.888621
     92          1           0        2.074630    0.429107   -0.039547
     93          1           0       -2.224674    1.094624    0.508697
     94          1           0       -2.730286   -2.586799   -1.176903
     95          1           0       -0.940393   -2.204719   -0.585957
     96          1           0       -2.196026   -2.955239    0.403423
     97          1           0       -0.109580    2.470521    0.535926
     98          1           0        0.273576   -0.720316    0.101425
 ---------------------------------------------------------------------

 SCF Done:  E(RCAM-B3LYP) =  -1706.87964606     A.U. after   15 cycles

 Excitation energies and oscillator strengths:

 Excited State   1:      Singlet-A      2.2817 eV  543.38 nm  f=3.0334  <S**2>=0.000
     155 ->158        -0.17339
     156 ->157         0.68279
 This state for optimization and/or second-order correction.
 Total Energy, E(TD-HF/TD-DFT) =  -1706.79579468
 Copying the excited state density for this state as the 1-particle RhoCI density.

 The electronic state is 1-A.
 Alpha  occ. eigenvalues --  -19.21751 -19.20717 -10.31467 -10.29175 -10.29059
 Alpha  occ. eigenvalues --  -10.28355 -10.27900 -10.27885 -10.27745 -10.27589
 Alpha  occ. eigenvalues --  -10.27527 -10.27484 -10.27251 -10.27031 -10.26977
 Alpha  occ. eigenvalues --  -10.26973 -10.26911 -10.26697 -10.26695 -10.26658
 Alpha  occ. eigenvalues --  -10.26610 -10.26598 -10.26502 -10.26404 -10.26282
 Alpha  occ. eigenvalues --  -10.26246 -10.26208 -10.26155 -10.26047 -10.26042
 Alpha  occ. eigenvalues --  -10.25957 -10.25947 -10.25861 -10.25489 -10.25243
 Alpha  occ. eigenvalues --  -10.25004 -10.24928 -10.24923 -10.23864 -10.23787
 Alpha  occ. eigenvalues --  -10.21749 -10.21393  -1.05710  -1.05606  -0.93817
 Alpha  occ. eigenvalues --   -0.93150  -0.92138  -0.91422  -0.90969  -0.89592
 Alpha  occ. eigenvalues --   -0.86935  -0.86630  -0.86491  -0.85586  -0.84347
 Alpha  occ. eigenvalues --   -0.82852  -0.82296  -0.80784  -0.80329  -0.78761
 Alpha  occ. eigenvalues --   -0.77205  -0.77154  -0.76304  -0.76248  -0.75540
 Alpha  occ. eigenvalues --   -0.74786  -0.74595  -0.74084  -0.72663  -0.70225
 Alpha  occ. eigenvalues --   -0.68813  -0.67526  -0.66047  -0.65613  -0.64219
 Alpha  occ. eigenvalues --   -0.62851  -0.62398  -0.61560  -0.60934  -0.59930
 Alpha  occ. eigenvalues --   -0.59455  -0.57971  -0.57502  -0.57317  -0.56276
 Alpha  occ. eigenvalues --   -0.55317  -0.54463  -0.54351  -0.53607  -0.53278
 Alpha  occ. eigenvalues --   -0.52936  -0.52740  -0.52483  -0.51480  -0.51142
 Alpha  occ. eigenvalues --   -0.50589  -0.50216  -0.49781  -0.49582  -0.49268
 Alpha  occ. eigenvalues --   -0.49100  -0.48802  -0.48566  -0.48084  -0.47955
 Alpha  occ. eigenvalues --   -0.47791  -0.47582  -0.46984  -0.46849  -0.46159
 Alpha  occ. eigenvalues --   -0.45942  -0.45803  -0.45460  -0.45172  -0.45000
 Alpha  occ. eigenvalues --   -0.44902  -0.44290  -0.44129  -0.43872  -0.43547
 Alpha  occ. eigenvalues --   -0.43073  -0.42545  -0.42427  -0.42352  -0.42091
 Alpha  occ. eigenvalues --   -0.41499  -0.41279  -0.41051  -0.40872  -0.40285
 Alpha  occ. eigenvalues --   -0.40172  -0.39886  -0.39823  -0.39575  -0.39152
 Alpha  occ. eigenvalues --   -0.39034  -0.38922  -0.38779  -0.38114  -0.37679
 Alpha  occ. eigenvalues --   -0.37569  -0.37414  -0.37073  -0.35867  -0.35081
 Alpha  occ. eigenvalues --   -0.34741  -0.34534  -0.33672  -0.32078  -0.31927
 Alpha  occ. eigenvalues --   -0.31478  -0.29284  -0.28808  -0.26620  -0.23334
 Alpha  occ. eigenvalues --   -0.20078
 Alpha virt. eigenvalues --   -0.05592  -0.01556   0.02062   0.05142   0.06171
 Alpha virt. eigenvalues --    0.08606   0.09285   0.10597   0.11889   0.12126
 Alpha virt. eigenvalues --    0.12231   0.12604   0.12971   0.13388   0.13456

 Mulliken charges:
               1
     1  O   -0.566830
     2  O   -0.570104
     3  C   -0.000954
     4  C   -0.152178
     5  C   -0.185849
     6  C    0.149339
     7  C    0.118295
     8  C   -0.069156
     9  C   -0.274591
    10  C   -0.239603
    11  C   -0.174958
    12  C   -0.159494
    13  C    0.152550
    14  C    0.130081
    15  C   -0.106747
    16  C   -0.246742
    17  C    0.005212
    18  C   -0.291406
    19  C   -0.286188
    20  C   -0.367268
    21  C   -0.061883
    22  C   -0.110291
    23  C   -0.325946
    24  C    0.085341
    25  C   -0.121102
    26  C   -0.359035
    27  C    0.092647
    28  C   -0.141596
    29  C   -0.359459
    30  C   -0.132649
    31  C   -0.058058
    32  C   -0.070627
    33  C   -0.131943
    34  C    0.089484
    35  C   -0.116124
    36  C    0.098470
    37  C   -0.345184
    38  C   -0.106205
    39  C   -0.106009
    40  C   -0.368412
    41  C   -0.060673
    42  C   -0.127376
    43  H    0.097135
    44  H    0.096372
    45  H    0.096293
    46  H    0.087514
    47  H    0.102630
    48  H    0.073627
    49  H    0.092851
    50  H    0.111977
    51  H    0.100563
    52  H    0.074028
    53  H    0.112475
    54  H    0.048992
    55  H    0.078269
    56  H    0.098701
    57  H    0.095209
    58  H    0.102150
    59  H    0.124332
    60  H    0.094341
    61  H    0.095791
    62  H    0.104170
    63  H    0.107945
    64  H    0.083975
    65  H    0.106219
    66  H    0.126759
    67  H    0.129185
    68  H    0.090866
    69  H    0.301455
    70  H    0.094789
    71  H    0.081508
    72  H    0.137488
    73  H    0.116779
    74  H    0.095728
    75  H    0.294497
    76  H    0.077925
    77  H    0.117976
    78  H    0.127650
    79  H    0.114680
    80  H    0.071249
    81  H    0.109529
    82  H    0.115456
    83  H    0.094659
    84  H    0.062937
    85  H    0.086012
    86  H    0.072281
    87  H    0.076693
    88  H    0.082167
    89  H    0.113101
    90  H    0.095000
    91  H    0.113239
    92  H    0.064092
    93  H    0.087556
    94  H    0.120340
    95  H    0.085543
    96  H    0.134367
    97  H    0.096601
    98  H    0.099554
 Sum of Mulliken charges =  -0.00000

 Dipole moment (field-independent basis, Debye):
    X=              0.7782    Y=             -0.6497    Z=              0.8566  Tot=              1.3272
 Quadrupole moment (field-independent basis, Debye-Ang):
   XX=           -305.6876   YY=           -241.2905   ZZ=           -262.7662
   XY=             -9.1661   XZ=             43.8339   YZ=              0.1110

 Normal termination of Gaussian 16 at Sat Jul 13 12:02:08 2019.
