 Gaussian 16, Revision A.03,
 Gaussian 16:  ES64L-G16RevA.03 25-Dec-2016

 -------------------------------------
 # td=(NStates=1) CAM-B3LYP/6-31G(d,p)
 -------------------------------------

 --
 TD
 --
 Symbolic Z-matrix:
 Charge =  0 Multiplicity = 1

                         Standard orientation:
 ---------------------------------------------------------------------
 Center     Atomic      Atomic             Coordinates (Angstroms)
 Number     Number       Type             X           Y           Z
 ---------------------------------------------------------------------
      1          8           0      -14.297227   -1.973046    0.198200
      2          8           0       14.860788    0.723532    0.124520
      3          6           0      -11.851028    0.037260    1.242456
      4          6           0      -10.997345    0.338503    0.061481
      5          6           0      -12.197334   -1.531814    1.256058
      6          6           0      -12.915800   -2.005456   -0.072698
      7          6           0      -11.524257   -0.349962   -1.289675
      8          6           0       11.100763    0.944304    1.014264
      9          6           0      -11.131931    0.294566    2.576485
     10          6           0      -13.178928    0.755793    1.226547
     11          6           0       12.662168    1.468767    0.792201
     12          6           0      -12.473221   -1.375985   -1.285437
     13          6           0       13.499179    0.298248    0.329965
     14          6           0       10.640998   -0.031686   -0.108795
     15          6           0       -9.558314   -0.112390    0.065919
     16          6           0       12.926156   -0.170248   -1.026919
     17          6           0       11.452515   -0.507264   -0.991577
     18          6           0       10.387155    2.326057    0.955398
     19          6           0       10.959354    0.459118    2.401734
     20          6           0      -11.085328    0.421425   -2.522680
     21          6           0       -8.508759    0.763395   -0.073031
     22          6           0        9.276854   -0.433391    0.077109
     23          6           0       11.067977   -1.321901   -2.179688
     24          6           0       -7.062976    0.511144    0.110931
     25          6           0        8.870412   -1.697059   -0.094242
     26          6           0       -6.538293   -0.935253    0.240222
     27          6           0        7.418060   -2.127893   -0.047696
     28          6           0       -6.186024    1.535478   -0.085465
     29          6           0        7.203387   -3.597791    0.109085
     30          6           0        6.427693   -1.131045   -0.051789
     31          6           0       -4.806362    1.495802   -0.231470
     32          6           0        5.024867   -1.475331   -0.078346
     33          6           0       -4.013451    2.527075   -0.542379
     34          6           0       -2.522763    2.549808   -0.602574
     35          6           0        4.076014   -0.608311   -0.233438
     36          6           0        2.631143   -0.843669   -0.079292
     37          6           0       -1.835600    3.888099   -1.060898
     38          6           0       -1.796178    1.512011   -0.455333
     39          6           0        1.725527    0.323567   -0.359810
     40          6           0        2.153900   -2.245825    0.419194
     41          6           0       -0.342353    1.451860   -0.466401
     42          6           0        0.364793    0.299571   -0.272834
     43          1           0      -11.013288    1.462120   -0.346426
     44          1           0      -12.864419   -1.706272    2.183982
     45          1           0      -11.288454   -2.103056    1.304903
     46          1           0      -12.564321   -3.061226   -0.114967
     47          1           0      -10.180046   -0.273671    2.657811
     48          1           0      -10.749596    1.323347    2.678280
     49          1           0      -11.853550    0.058646    3.580200
     50          1           0      -13.668199    0.522249    0.374431
     51          1           0      -13.802167    0.574041    2.162959
     52          1           0      -12.894776    1.958902    1.300747
     53          1           0       12.635040    2.134378    0.007984
     54          1           0       13.009269    1.684057    1.776268
     55          1           0      -12.732988   -1.620952   -2.405101
     56          1           0       13.511317   -0.507740    1.088973
     57          1           0       -9.601613   -1.188358    0.413768
     58          1           0       13.357052   -1.182677   -1.139768
     59          1           0       13.134920    0.521747   -1.839168
     60          1           0        9.384502    2.218855    1.287692
     61          1           0       10.357731    2.887798   -0.097097
     62          1           0       10.951480    3.136014    1.505806
     63          1           0       11.613862   -0.572343    2.609334
     64          1           0        9.734172    0.464828    2.697908
     65          1           0       11.680160    1.156148    2.934520
     66          1           0       -9.978515    0.688666   -2.528287
     67          1           0      -11.523546    1.533595   -2.535957
     68          1           0      -11.340000   -0.040720   -3.488644
     69          1           0      -14.816138   -2.407285   -0.688875
     70          1           0        8.616596    0.267732    0.390553
     71          1           0       -8.893138    1.759665   -0.369627
     72          1           0       11.385235   -2.359387   -2.012610
     73          1           0        9.904001   -1.197556   -2.412537
     74          1           0       11.826193   -1.153579   -3.106621
     75          1           0       15.351571    0.833315    1.030948
     76          1           0        9.673649   -2.455443   -0.450915
     77          1           0       -5.492825   -1.335996    0.187662
     78          1           0       -6.867106   -1.250061    1.213793
     79          1           0       -7.143716   -1.652184   -0.485092
     80          1           0       -6.760285    2.514755   -0.299410
     81          1           0        6.912770   -3.672816    1.096462
     82          1           0        6.142129   -3.808142   -0.353347
     83          1           0        7.888410   -4.282175   -0.236948
     84          1           0        6.744233   -0.165445   -0.174870
     85          1           0       -4.398509    0.463351   -0.089829
     86          1           0        4.838609   -2.513431    0.216969
     87          1           0       -4.420733    3.408006   -0.618998
     88          1           0        4.447752    0.251413   -0.349199
     89          1           0       -1.375656    3.978732   -1.943897
     90          1           0       -1.111574    4.104638   -0.147574
     91          1           0       -2.532297    4.744888   -0.906425
     92          1           0       -2.299794    0.551343   -0.149169
     93          1           0        2.422266    1.094943   -0.568755
     94          1           0        2.290686   -2.348656    1.448301
     95          1           0        1.044778   -2.108960    0.363338
     96          1           0        2.719043   -2.987148   -0.215932
     97          1           0        0.226451    2.229602   -0.846972
     98          1           0       -0.201117   -0.773848   -0.171842
 ---------------------------------------------------------------------

 SCF Done:  E(RCAM-B3LYP) =  -1706.95398760     A.U. after   15 cycles

 Excitation energies and oscillator strengths:

 Excited State   1:      Singlet-A      2.5601 eV  484.30 nm  f=3.0223  <S**2>=0.000
     155 ->158         0.16540
     156 ->157         0.68346
 This state for optimization and/or second-order correction.
 Total Energy, E(TD-HF/TD-DFT) =  -1706.85990682
 Copying the excited state density for this state as the 1-particle RhoCI density.

 The electronic state is 1-A.
 Alpha  occ. eigenvalues --  -19.22377 -19.20977 -10.30735 -10.30019 -10.28629
 Alpha  occ. eigenvalues --  -10.28048 -10.28044 -10.27939 -10.27631 -10.27443
 Alpha  occ. eigenvalues --  -10.27334 -10.27272 -10.27161 -10.26998 -10.26763
 Alpha  occ. eigenvalues --  -10.26740 -10.26736 -10.26539 -10.26474 -10.26365
 Alpha  occ. eigenvalues --  -10.26298 -10.26260 -10.26021 -10.25993 -10.25813
 Alpha  occ. eigenvalues --  -10.25729 -10.25558 -10.25536 -10.25526 -10.25525
 Alpha  occ. eigenvalues --  -10.25493 -10.25276 -10.25255 -10.25234 -10.25186
 Alpha  occ. eigenvalues --  -10.24957 -10.24809 -10.24685 -10.24580 -10.24119
 Alpha  occ. eigenvalues --  -10.24028 -10.23813  -1.07943  -1.07114  -0.93851
 Alpha  occ. eigenvalues --   -0.93137  -0.91976  -0.91518  -0.90264  -0.89169
 Alpha  occ. eigenvalues --   -0.87712  -0.87246  -0.86028  -0.85505  -0.84887
 Alpha  occ. eigenvalues --   -0.83078  -0.81906  -0.80561  -0.79994  -0.77757
 Alpha  occ. eigenvalues --   -0.77030  -0.76285  -0.75791  -0.75164  -0.75067
 Alpha  occ. eigenvalues --   -0.74898  -0.74780  -0.74311  -0.73523  -0.69876
 Alpha  occ. eigenvalues --   -0.68687  -0.66899  -0.66294  -0.65129  -0.63447
 Alpha  occ. eigenvalues --   -0.62981  -0.62765  -0.61871  -0.61091  -0.59746
 Alpha  occ. eigenvalues --   -0.59621  -0.58565  -0.57684  -0.57222  -0.56196
 Alpha  occ. eigenvalues --   -0.55486  -0.54726  -0.54284  -0.54111  -0.53679
 Alpha  occ. eigenvalues --   -0.53410  -0.53148  -0.52719  -0.51967  -0.50998
 Alpha  occ. eigenvalues --   -0.50567  -0.50282  -0.49904  -0.49682  -0.49113
 Alpha  occ. eigenvalues --   -0.48973  -0.48873  -0.48416  -0.48063  -0.47841
 Alpha  occ. eigenvalues --   -0.47459  -0.46992  -0.46624  -0.46538  -0.46147
 Alpha  occ. eigenvalues --   -0.45514  -0.45492  -0.45283  -0.45110  -0.44867
 Alpha  occ. eigenvalues --   -0.44697  -0.43828  -0.43721  -0.43558  -0.43117
 Alpha  occ. eigenvalues --   -0.42897  -0.42610  -0.42487  -0.42218  -0.42023
 Alpha  occ. eigenvalues --   -0.41753  -0.41420  -0.41025  -0.40826  -0.40605
 Alpha  occ. eigenvalues --   -0.39942  -0.39516  -0.39367  -0.39172  -0.39076
 Alpha  occ. eigenvalues --   -0.38908  -0.38688  -0.38575  -0.38426  -0.37970
 Alpha  occ. eigenvalues --   -0.37573  -0.37128  -0.36526  -0.36166  -0.35787
 Alpha  occ. eigenvalues --   -0.35001  -0.34282  -0.33836  -0.32031  -0.31747
 Alpha  occ. eigenvalues --   -0.30936  -0.29822  -0.28583  -0.26483  -0.24027
 Alpha  occ. eigenvalues --   -0.20207
 Alpha virt. eigenvalues --   -0.04455  -0.00524   0.02531   0.05129   0.07878
 Alpha virt. eigenvalues --    0.09352   0.10407   0.10482   0.11494   0.11852
 Alpha virt. eigenvalues --    0.12099   0.12787   0.13007   0.13367   0.13709

 Mulliken charges:
               1
     1  O   -0.544079
     2  O   -0.576403
     3  C    0.019816
     4  C   -0.132577
     5  C   -0.188125
     6  C    0.133070
     7  C    0.099962
     8  C   -0.050158
     9  C   -0.288819
    10  C   -0.262135
    11  C   -0.166258
    12  C   -0.126904
    13  C    0.154241
    14  C    0.115948
    15  C   -0.063183
    16  C   -0.222641
    17  C    0.039090
    18  C   -0.300684
    19  C   -0.263734
    20  C   -0.364200
    21  C   -0.120072
    22  C   -0.092125
    23  C   -0.373466
    24  C    0.107386
    25  C   -0.120497
    26  C   -0.382316
    27  C    0.061758
    28  C   -0.122997
    29  C   -0.373440
    30  C   -0.115922
    31  C   -0.050410
    32  C   -0.078548
    33  C   -0.090824
    34  C    0.078037
    35  C   -0.063712
    36  C    0.029560
    37  C   -0.374125
    38  C   -0.104427
    39  C   -0.102881
    40  C   -0.354707
    41  C   -0.097256
    42  C   -0.078253
    43  H    0.076495
    44  H    0.113730
    45  H    0.093959
    46  H    0.079907
    47  H    0.097358
    48  H    0.100069
    49  H    0.069264
    50  H    0.126847
    51  H    0.098472
    52  H    0.054820
    53  H    0.111926
    54  H    0.078921
    55  H    0.075407
    56  H    0.070771
    57  H    0.089885
    58  H    0.104835
    59  H    0.127234
    60  H    0.095278
    61  H    0.085819
    62  H    0.105049
    63  H    0.077527
    64  H    0.088689
    65  H    0.097864
    66  H    0.119502
    67  H    0.102378
    68  H    0.109648
    69  H    0.300085
    70  H    0.077493
    71  H    0.090007
    72  H    0.117310
    73  H    0.120901
    74  H    0.089736
    75  H    0.304087
    76  H    0.085769
    77  H    0.120917
    78  H    0.126795
    79  H    0.104906
    80  H    0.069578
    81  H    0.149818
    82  H    0.099187
    83  H    0.124490
    84  H    0.080021
    85  H    0.076724
    86  H    0.066387
    87  H    0.061706
    88  H    0.051078
    89  H    0.138453
    90  H    0.104917
    91  H    0.100450
    92  H    0.069043
    93  H    0.086093
    94  H    0.138617
    95  H    0.100719
    96  H    0.120960
    97  H    0.091254
    98  H    0.087857
 Sum of Mulliken charges =  -0.00000

 Dipole moment (field-independent basis, Debye):
    X=              1.2055    Y=             -1.4194    Z=             -0.0093  Tot=              1.8622
 Quadrupole moment (field-independent basis, Debye-Ang):
   XX=           -269.7624   YY=           -245.0468   ZZ=           -261.4423
   XY=              3.0422   XZ=             39.5138   YZ=              0.0364

 Normal termination of Gaussian 16 at Mon Jul 15 14:49:52 2019.
