 Gaussian 16, Revision A.03,
 Gaussian 16:  ES64L-G16RevA.03 25-Dec-2016

 -------------------------------------
 # td=(NStates=1) CAM-B3LYP/6-31G(d,p)
 -------------------------------------

 --
 TD
 --
 Symbolic Z-matrix:
 Charge =  0 Multiplicity = 1

                         Standard orientation:
 ---------------------------------------------------------------------
 Center     Atomic      Atomic             Coordinates (Angstroms)
 Number     Number       Type             X           Y           Z
 ---------------------------------------------------------------------
      1          8           0      -14.118846   -2.013435    0.386046
      2          8           0       14.840564    0.954806    0.149350
      3          6           0      -11.814583    0.115777    1.248681
      4          6           0      -10.939003    0.344280   -0.045066
      5          6           0      -11.934405   -1.415075    1.408313
      6          6           0      -12.687466   -2.140809    0.220529
      7          6           0      -11.590054   -0.439971   -1.189854
      8          6           0       11.142372    0.787357    1.169034
      9          6           0      -11.001575    0.644867    2.554879
     10          6           0      -13.103615    0.728911    1.210325
     11          6           0       12.600738    1.392032    0.956395
     12          6           0      -12.262159   -1.561548   -1.105547
     13          6           0       13.541766    0.341979    0.392680
     14          6           0       10.719711    0.004131   -0.079827
     15          6           0       -9.531269    0.004189    0.141213
     16          6           0       12.908965   -0.088418   -0.975674
     17          6           0       11.584923   -0.421452   -1.016037
     18          6           0       10.192200    2.149838    1.237743
     19          6           0       11.035576    0.094346    2.456987
     20          6           0      -11.314161    0.149175   -2.603613
     21          6           0       -8.444768    0.833961   -0.050793
     22          6           0        9.297349   -0.437723    0.106953
     23          6           0       11.042306   -1.265951   -2.133132
     24          6           0       -7.032200    0.437653   -0.022070
     25          6           0        8.769393   -1.629915   -0.201277
     26          6           0       -6.645563   -0.989019    0.434903
     27          6           0        7.443187   -2.097703   -0.142695
     28          6           0       -6.176056    1.436596   -0.324151
     29          6           0        7.112910   -3.609819   -0.008877
     30          6           0        6.444197   -1.155545   -0.106849
     31          6           0       -4.783684    1.426368   -0.368150
     32          6           0        5.081677   -1.480469   -0.143957
     33          6           0       -4.008816    2.559999   -0.634055
     34          6           0       -2.601594    2.691339   -0.687255
     35          6           0        4.000862   -0.499139   -0.337305
     36          6           0        2.605693   -0.693777   -0.271796
     37          6           0       -2.068839    3.969771   -1.083168
     38          6           0       -1.884998    1.454556   -0.559351
     39          6           0        1.774866    0.316924   -0.489926
     40          6           0        2.149313   -2.143769    0.132333
     41          6           0       -0.400961    1.412025   -0.580117
     42          6           0        0.335524    0.280724   -0.290582
     43          1           0      -10.996038    1.470260   -0.511797
     44          1           0      -12.503379   -1.614892    2.438428
     45          1           0      -10.984567   -1.860728    1.455911
     46          1           0      -12.366365   -3.257279    0.384091
     47          1           0      -10.188117    0.092913    2.883583
     48          1           0      -10.910496    1.600477    2.095927
     49          1           0      -11.855333    0.577736    3.303184
     50          1           0      -13.648728    0.440244    0.390413
     51          1           0      -13.846931    0.402037    2.023626
     52          1           0      -13.244556    1.833914    1.107757
     53          1           0       12.627748    2.293842    0.287275
     54          1           0       12.847682    1.491736    2.045991
     55          1           0      -12.797459   -2.068479   -1.970716
     56          1           0       13.613406   -0.443785    0.986924
     57          1           0       -9.195416   -0.907432    0.532628
     58          1           0       13.430132   -0.936564   -1.350223
     59          1           0       13.087346    0.766646   -1.781343
     60          1           0        9.240198    1.714156    1.813390
     61          1           0       10.197226    2.653334    0.408659
     62          1           0       10.501511    2.860732    2.166223
     63          1           0       11.540073   -0.800567    2.643455
     64          1           0        9.986940   -0.289192    2.471455
     65          1           0       11.251864    0.794850    3.189389
     66          1           0      -10.205267    0.448751   -2.728682
     67          1           0      -11.733800    1.008576   -2.733125
     68          1           0      -11.470459   -0.486558   -3.567084
     69          1           0      -14.651669   -2.607004   -0.169608
     70          1           0        8.600901    0.376939    0.500088
     71          1           0       -8.589477    1.831364   -0.431999
     72          1           0       11.364044   -2.290005   -2.303290
     73          1           0        9.928031   -1.117337   -2.306061
     74          1           0       11.463720   -0.772532   -3.230831
     75          1           0       15.085947    1.108613    1.180241
     76          1           0        9.668791   -2.343304   -0.507197
     77          1           0       -5.539490   -0.824877    0.631600
     78          1           0       -7.115138   -1.073285    1.304436
     79          1           0       -6.841423   -1.734335   -0.279544
     80          1           0       -6.571670    2.342239   -0.653360
     81          1           0        6.760735   -3.778298    1.032707
     82          1           0        6.415874   -4.149947   -0.547650
     83          1           0        7.833628   -4.182784   -0.184161
     84          1           0        6.609237   -0.118000   -0.210835
     85          1           0       -4.256556    0.542304   -0.095123
     86          1           0        4.573659   -2.455413    0.002610
     87          1           0       -4.768841    3.486541   -0.808273
     88          1           0        4.185232    0.470665   -0.590717
     89          1           0       -1.021336    3.672779   -1.652498
     90          1           0       -1.563572    4.342014   -0.138861
     91          1           0       -2.635139    4.682094   -1.527843
     92          1           0       -2.484335    0.716303   -0.163152
     93          1           0        2.172610    1.368717   -0.547517
     94          1           0        2.417123   -2.384465    1.170468
     95          1           0        0.929064   -2.261391    0.160983
     96          1           0        2.479672   -2.843614   -0.581335
     97          1           0        0.161135    2.225825   -0.740810
     98          1           0       -0.108283   -0.585658    0.099963
 ---------------------------------------------------------------------

 SCF Done:  E(RCAM-B3LYP) =  -1706.93399479     A.U. after   15 cycles

 Excitation energies and oscillator strengths:

 Excited State   1:      Singlet-A      2.1807 eV  568.54 nm  f=2.9844  <S**2>=0.000
     155 ->158        -0.17046
     156 ->157         0.68462
 This state for optimization and/or second-order correction.
 Total Energy, E(TD-HF/TD-DFT) =  -1706.85385399
 Copying the excited state density for this state as the 1-particle RhoCI density.

 The electronic state is 1-A.
 Alpha  occ. eigenvalues --  -19.21916 -19.20803 -10.31370 -10.29431 -10.28014
 Alpha  occ. eigenvalues --  -10.27811 -10.27537 -10.27385 -10.27345 -10.27155
 Alpha  occ. eigenvalues --  -10.26889 -10.26791 -10.26746 -10.26608 -10.26506
 Alpha  occ. eigenvalues --  -10.26483 -10.26458 -10.26193 -10.26185 -10.26163
 Alpha  occ. eigenvalues --  -10.25972 -10.25966 -10.25908 -10.25897 -10.25850
 Alpha  occ. eigenvalues --  -10.25848 -10.25677 -10.25660 -10.25644 -10.25447
 Alpha  occ. eigenvalues --  -10.25402 -10.25281 -10.25128 -10.25110 -10.25031
 Alpha  occ. eigenvalues --  -10.24990 -10.24940 -10.24812 -10.23805 -10.23583
 Alpha  occ. eigenvalues --  -10.23391 -10.22493  -1.07898  -1.07189  -0.94046
 Alpha  occ. eigenvalues --   -0.93591  -0.92309  -0.91624  -0.90723  -0.90217
 Alpha  occ. eigenvalues --   -0.88039  -0.86665  -0.86496  -0.85356  -0.84563
 Alpha  occ. eigenvalues --   -0.82736  -0.81930  -0.80452  -0.80405  -0.78420
 Alpha  occ. eigenvalues --   -0.77758  -0.77171  -0.76368  -0.75958  -0.75798
 Alpha  occ. eigenvalues --   -0.75358  -0.75181  -0.74867  -0.73347  -0.70774
 Alpha  occ. eigenvalues --   -0.69223  -0.67528  -0.66836  -0.65209  -0.63977
 Alpha  occ. eigenvalues --   -0.63526  -0.62788  -0.62127  -0.61073  -0.60210
 Alpha  occ. eigenvalues --   -0.59480  -0.58782  -0.58672  -0.58023  -0.56494
 Alpha  occ. eigenvalues --   -0.55679  -0.55044  -0.54527  -0.54343  -0.53823
 Alpha  occ. eigenvalues --   -0.53399  -0.52863  -0.52438  -0.52018  -0.51234
 Alpha  occ. eigenvalues --   -0.51014  -0.50883  -0.50706  -0.49654  -0.49565
 Alpha  occ. eigenvalues --   -0.49466  -0.49256  -0.48937  -0.48296  -0.47939
 Alpha  occ. eigenvalues --   -0.47906  -0.47555  -0.47270  -0.46746  -0.46404
 Alpha  occ. eigenvalues --   -0.45875  -0.45507  -0.45004  -0.44904  -0.44770
 Alpha  occ. eigenvalues --   -0.44335  -0.44314  -0.43960  -0.43488  -0.43233
 Alpha  occ. eigenvalues --   -0.43030  -0.42760  -0.42727  -0.42619  -0.42155
 Alpha  occ. eigenvalues --   -0.41858  -0.41647  -0.41344  -0.41080  -0.40820
 Alpha  occ. eigenvalues --   -0.40457  -0.40046  -0.39658  -0.39569  -0.39395
 Alpha  occ. eigenvalues --   -0.39365  -0.38761  -0.38617  -0.38390  -0.38214
 Alpha  occ. eigenvalues --   -0.37681  -0.37442  -0.36473  -0.36198  -0.35588
 Alpha  occ. eigenvalues --   -0.34808  -0.33678  -0.32569  -0.31937  -0.31616
 Alpha  occ. eigenvalues --   -0.31086  -0.29909  -0.28665  -0.26913  -0.23006
 Alpha  occ. eigenvalues --   -0.19436
 Alpha virt. eigenvalues --   -0.05502  -0.01529   0.03468   0.05763   0.07601
 Alpha virt. eigenvalues --    0.09048   0.10737   0.11120   0.12362   0.12661
 Alpha virt. eigenvalues --    0.12894   0.13258   0.13495   0.13856   0.14087

 Mulliken charges:
               1
     1  O   -0.555087
     2  O   -0.556110
     3  C    0.008737
     4  C   -0.154313
     5  C   -0.178290
     6  C    0.129141
     7  C    0.125736
     8  C   -0.039700
     9  C   -0.289391
    10  C   -0.306198
    11  C   -0.183102
    12  C   -0.112986
    13  C    0.161128
    14  C    0.060320
    15  C   -0.052611
    16  C   -0.254601
    17  C    0.125123
    18  C   -0.293506
    19  C   -0.305386
    20  C   -0.364758
    21  C   -0.097747
    22  C   -0.117063
    23  C   -0.384034
    24  C    0.072326
    25  C   -0.130629
    26  C   -0.355851
    27  C    0.083637
    28  C   -0.113237
    29  C   -0.355373
    30  C   -0.108402
    31  C   -0.056103
    32  C   -0.091216
    33  C   -0.146912
    34  C    0.111493
    35  C   -0.129125
    36  C    0.135711
    37  C   -0.372882
    38  C   -0.104432
    39  C   -0.158106
    40  C   -0.376947
    41  C   -0.087392
    42  C   -0.067594
    43  H    0.075232
    44  H    0.088261
    45  H    0.101026
    46  H    0.063542
    47  H    0.103226
    48  H    0.111368
    49  H    0.090291
    50  H    0.132696
    51  H    0.098486
    52  H    0.083301
    53  H    0.106852
    54  H    0.065177
    55  H    0.075026
    56  H    0.091688
    57  H    0.076708
    58  H    0.109514
    59  H    0.109670
    60  H    0.091962
    61  H    0.118658
    62  H    0.072724
    63  H    0.108347
    64  H    0.107864
    65  H    0.111778
    66  H    0.099781
    67  H    0.129052
    68  H    0.099200
    69  H    0.306326
    70  H    0.084207
    71  H    0.070315
    72  H    0.124110
    73  H    0.139945
    74  H    0.052927
    75  H    0.301719
    76  H    0.080603
    77  H    0.100148
    78  H    0.135688
    79  H    0.136277
    80  H    0.073258
    81  H    0.120215
    82  H    0.120793
    83  H    0.111872
    84  H    0.093916
    85  H    0.077993
    86  H    0.081035
    87  H    0.065630
    88  H    0.063778
    89  H    0.103619
    90  H    0.130007
    91  H    0.128863
    92  H    0.078668
    93  H    0.084048
    94  H    0.131439
    95  H    0.078620
    96  H    0.133846
    97  H    0.072763
    98  H    0.081675
 Sum of Mulliken charges =  -0.00000

 Dipole moment (field-independent basis, Debye):
    X=             -0.6026    Y=             -1.6370    Z=              0.7425  Tot=              1.8959
 Quadrupole moment (field-independent basis, Debye-Ang):
   XX=           -284.4063   YY=           -239.8228   ZZ=           -261.9589
   XY=              0.6865   XZ=             39.4150   YZ=             -1.0512

 Normal termination of Gaussian 16 at Sun Jul 14 20:33:29 2019.
