 Gaussian 16, Revision A.03,
 Gaussian 16:  ES64L-G16RevA.03 25-Dec-2016

 -------------------------------------
 # td=(NStates=1) CAM-B3LYP/6-31G(d,p)
 -------------------------------------

 --
 TD
 --
 Symbolic Z-matrix:
 Charge =  0 Multiplicity = 1

                         Standard orientation:
 ---------------------------------------------------------------------
 Center     Atomic      Atomic             Coordinates (Angstroms)
 Number     Number       Type             X           Y           Z
 ---------------------------------------------------------------------
      1          8           0      -14.196370   -1.909982    0.646381
      2          8           0       14.751352    0.888524    0.224096
      3          6           0      -11.727450    0.148109    1.248027
      4          6           0      -10.991004    0.280010   -0.101113
      5          6           0      -12.002562   -1.339218    1.649229
      6          6           0      -12.743506   -2.076064    0.555610
      7          6           0      -11.630477   -0.531920   -1.202940
      8          6           0       11.021546    1.074320    0.986420
      9          6           0      -11.021854    0.757571    2.390145
     10          6           0      -13.068758    0.813397    0.963290
     11          6           0       12.556690    1.468203    0.823654
     12          6           0      -12.345411   -1.586776   -0.931707
     13          6           0       13.417844    0.437939    0.394671
     14          6           0       10.641949    0.036781   -0.010314
     15          6           0       -9.505394   -0.054189   -0.047242
     16          6           0       12.980507   -0.207555   -0.828570
     17          6           0       11.601750   -0.585722   -0.864100
     18          6           0       10.041508    2.333811    0.940452
     19          6           0       10.967020    0.355470    2.318636
     20          6           0      -11.368649   -0.031742   -2.612632
     21          6           0       -8.442399    0.747401   -0.190085
     22          6           0        9.233103   -0.380353    0.047458
     23          6           0       11.219487   -1.443374   -2.020205
     24          6           0       -7.074764    0.424318   -0.218166
     25          6           0        8.762504   -1.592542   -0.115949
     26          6           0       -6.663896   -1.028531    0.030372
     27          6           0        7.408890   -2.023647   -0.117099
     28          6           0       -6.195462    1.480192   -0.311576
     29          6           0        7.282947   -3.622425    0.257402
     30          6           0        6.408116   -1.253607   -0.137486
     31          6           0       -4.711720    1.407224   -0.381345
     32          6           0        5.042383   -1.531660   -0.151099
     33          6           0       -4.035661    2.524086   -0.497271
     34          6           0       -2.564271    2.548937   -0.681866
     35          6           0        4.026032   -0.555551   -0.340271
     36          6           0        2.680122   -0.893687   -0.246325
     37          6           0       -1.946919    3.883175   -0.958854
     38          6           0       -1.744973    1.533781   -0.454612
     39          6           0        1.810399    0.200486   -0.467893
     40          6           0        2.206234   -2.261419    0.259992
     41          6           0       -0.383562    1.501225   -0.521297
     42          6           0        0.377041    0.288066   -0.392908
     43          1           0      -11.053823    1.408761   -0.369479
     44          1           0      -12.747733   -1.255700    2.560224
     45          1           0      -11.039470   -1.739227    1.827924
     46          1           0      -12.386959   -3.078494    0.626495
     47          1           0      -10.093783    0.366572    2.552393
     48          1           0      -10.749656    1.821631    1.955518
     49          1           0      -11.704017    0.806476    3.325622
     50          1           0      -13.680023    0.664950    0.108319
     51          1           0      -13.830257    0.615698    1.849214
     52          1           0      -12.899578    1.903773    0.830229
     53          1           0       12.740980    2.200262   -0.020265
     54          1           0       12.898427    1.915132    1.652765
     55          1           0      -12.769246   -2.213558   -1.757084
     56          1           0       13.470040   -0.413682    1.288830
     57          1           0       -9.261559   -1.010364    0.210753
     58          1           0       13.591522   -1.128602   -1.066397
     59          1           0       13.073948    0.595581   -1.726759
     60          1           0        8.952632    2.194416    1.286351
     61          1           0        9.938770    2.680442   -0.113479
     62          1           0       10.679540    3.009193    1.639114
     63          1           0       11.659895   -0.329413    2.408470
     64          1           0        9.950235   -0.076518    2.605641
     65          1           0       11.205661    1.036414    3.384866
     66          1           0      -10.310051   -0.024704   -2.811529
     67          1           0      -11.950693    0.903456   -2.815717
     68          1           0      -11.669707   -0.805501   -3.347836
     69          1           0      -14.593857   -2.042631   -0.090351
     70          1           0        8.494991    0.402739    0.305724
     71          1           0       -8.705572    1.796996   -0.776234
     72          1           0       11.425805   -2.474859   -1.894467
     73          1           0       10.072752   -1.395669   -2.412743
     74          1           0       11.990007   -1.318662   -2.920463
     75          1           0       15.109796    1.176034    1.233598
     76          1           0        9.638023   -2.091468   -0.300941
     77          1           0       -5.696729   -0.979977   -0.108334
     78          1           0       -7.032490   -1.060017    0.999454
     79          1           0       -7.378168   -1.626047   -0.653248
     80          1           0       -6.714003    2.412410   -0.527778
     81          1           0        7.119063   -3.823137    1.274077
     82          1           0        6.541408   -4.081799   -0.459065
     83          1           0        8.161147   -4.247399    0.145385
     84          1           0        6.664590   -0.061355   -0.390428
     85          1           0       -4.215678    0.585705   -0.136020
     86          1           0        4.765199   -2.509132    0.047905
     87          1           0       -4.457083    3.532188   -0.659448
     88          1           0        4.258757    0.437744   -0.473127
     89          1           0       -1.413606    3.704933   -1.836311
     90          1           0       -1.304637    4.232724   -0.023817
     91          1           0       -2.679625    4.626688   -1.179658
     92          1           0       -2.290099    0.516756   -0.196076
     93          1           0        2.199936    1.020720   -0.760874
     94          1           0        2.344301   -2.497429    1.401523
     95          1           0        1.137386   -2.507599    0.185020
     96          1           0        2.930158   -2.924964   -0.243911
     97          1           0        0.127221    2.498667   -0.977300
     98          1           0       -0.058218   -0.644623    0.005307
 ---------------------------------------------------------------------

 SCF Done:  E(RCAM-B3LYP) =  -1706.93216553     A.U. after   14 cycles

 Excitation energies and oscillator strengths:

 Excited State   1:      Singlet-A      2.3347 eV  531.05 nm  f=3.0852  <S**2>=0.000
     155 ->158        -0.13904
     156 ->157         0.69209
 This state for optimization and/or second-order correction.
 Total Energy, E(TD-HF/TD-DFT) =  -1706.84636747
 Copying the excited state density for this state as the 1-particle RhoCI density.

 The electronic state is 1-A.
 Alpha  occ. eigenvalues --  -19.22453 -19.19911 -10.31185 -10.30609 -10.27978
 Alpha  occ. eigenvalues --  -10.27964 -10.27753 -10.27326 -10.27092 -10.27024
 Alpha  occ. eigenvalues --  -10.26924 -10.26834 -10.26658 -10.26625 -10.26522
 Alpha  occ. eigenvalues --  -10.26491 -10.26418 -10.26297 -10.26292 -10.26255
 Alpha  occ. eigenvalues --  -10.26099 -10.26078 -10.26065 -10.26030 -10.25838
 Alpha  occ. eigenvalues --  -10.25681 -10.25643 -10.25548 -10.25519 -10.25437
 Alpha  occ. eigenvalues --  -10.25341 -10.25335 -10.25282 -10.25249 -10.25073
 Alpha  occ. eigenvalues --  -10.25032 -10.24950 -10.24757 -10.24336 -10.24110
 Alpha  occ. eigenvalues --  -10.23708 -10.23460  -1.10367  -1.08410  -0.94399
 Alpha  occ. eigenvalues --   -0.94010  -0.92741  -0.92257  -0.91321  -0.90621
 Alpha  occ. eigenvalues --   -0.87565  -0.87426  -0.87108  -0.86398  -0.84687
 Alpha  occ. eigenvalues --   -0.83627  -0.82358  -0.81264  -0.80131  -0.78648
 Alpha  occ. eigenvalues --   -0.77796  -0.76738  -0.76586  -0.76557  -0.75884
 Alpha  occ. eigenvalues --   -0.75291  -0.75182  -0.74649  -0.73483  -0.70820
 Alpha  occ. eigenvalues --   -0.68961  -0.68176  -0.66867  -0.64477  -0.63908
 Alpha  occ. eigenvalues --   -0.63715  -0.63097  -0.62158  -0.61395  -0.59932
 Alpha  occ. eigenvalues --   -0.59540  -0.58988  -0.58315  -0.57984  -0.56709
 Alpha  occ. eigenvalues --   -0.56426  -0.55238  -0.54942  -0.54428  -0.53868
 Alpha  occ. eigenvalues --   -0.53397  -0.53136  -0.52507  -0.52326  -0.51873
 Alpha  occ. eigenvalues --   -0.50427  -0.50305  -0.50178  -0.49693  -0.49564
 Alpha  occ. eigenvalues --   -0.49336  -0.49044  -0.48585  -0.48373  -0.48025
 Alpha  occ. eigenvalues --   -0.47857  -0.47258  -0.47022  -0.46854  -0.46631
 Alpha  occ. eigenvalues --   -0.46256  -0.45957  -0.45689  -0.45433  -0.45034
 Alpha  occ. eigenvalues --   -0.44602  -0.43953  -0.43807  -0.43682  -0.43373
 Alpha  occ. eigenvalues --   -0.43050  -0.42667  -0.42389  -0.42160  -0.41732
 Alpha  occ. eigenvalues --   -0.41516  -0.41417  -0.41189  -0.41130  -0.40873
 Alpha  occ. eigenvalues --   -0.40525  -0.40448  -0.40169  -0.39969  -0.39793
 Alpha  occ. eigenvalues --   -0.39662  -0.39258  -0.38168  -0.38047  -0.37784
 Alpha  occ. eigenvalues --   -0.37018  -0.36643  -0.36399  -0.36209  -0.35868
 Alpha  occ. eigenvalues --   -0.35738  -0.35282  -0.34069  -0.32438  -0.32160
 Alpha  occ. eigenvalues --   -0.31655  -0.30430  -0.29011  -0.26224  -0.24180
 Alpha  occ. eigenvalues --   -0.19837
 Alpha virt. eigenvalues --   -0.05514  -0.00295   0.02564   0.05802   0.07730
 Alpha virt. eigenvalues --    0.08644   0.09175   0.11256   0.12308   0.12477
 Alpha virt. eigenvalues --    0.12674   0.12886   0.13316   0.13390   0.14279

 Mulliken charges:
               1
     1  O   -0.533790
     2  O   -0.564471
     3  C    0.012823
     4  C   -0.132299
     5  C   -0.177835
     6  C    0.162476
     7  C    0.136484
     8  C   -0.023305
     9  C   -0.279516
    10  C   -0.283171
    11  C   -0.167664
    12  C   -0.185151
    13  C    0.179560
    14  C    0.041921
    15  C   -0.103923
    16  C   -0.220477
    17  C    0.081555
    18  C   -0.301588
    19  C   -0.273204
    20  C   -0.359967
    21  C   -0.080879
    22  C   -0.099333
    23  C   -0.382717
    24  C    0.060980
    25  C   -0.086724
    26  C   -0.333711
    27  C    0.092597
    28  C   -0.126743
    29  C   -0.379943
    30  C   -0.106790
    31  C   -0.056882
    32  C   -0.104591
    33  C   -0.092844
    34  C    0.057165
    35  C   -0.091162
    36  C    0.112142
    37  C   -0.372009
    38  C   -0.075439
    39  C   -0.104321
    40  C   -0.367346
    41  C   -0.108667
    42  C   -0.099494
    43  H    0.079492
    44  H    0.108026
    45  H    0.097028
    46  H    0.090225
    47  H    0.111759
    48  H    0.076185
    49  H    0.096544
    50  H    0.116365
    51  H    0.082454
    52  H    0.074742
    53  H    0.094230
    54  H    0.086092
    55  H    0.073045
    56  H    0.037195
    57  H    0.071476
    58  H    0.110798
    59  H    0.106537
    60  H    0.106843
    61  H    0.110599
    62  H    0.098144
    63  H    0.119108
    64  H    0.106957
    65  H    0.036364
    66  H    0.125930
    67  H    0.119041
    68  H    0.101726
    69  H    0.284641
    70  H    0.062437
    71  H    0.057968
    72  H    0.127468
    73  H    0.118431
    74  H    0.089778
    75  H    0.306850
    76  H    0.074507
    77  H    0.112351
    78  H    0.140851
    79  H    0.115218
    80  H    0.079885
    81  H    0.131784
    82  H    0.106810
    83  H    0.111396
    84  H    0.060739
    85  H    0.084567
    86  H    0.080770
    87  H    0.082224
    88  H    0.087905
    89  H    0.133967
    90  H    0.116385
    91  H    0.103686
    92  H    0.062304
    93  H    0.056535
    94  H    0.113323
    95  H    0.116479
    96  H    0.120724
    97  H    0.085011
    98  H    0.076360
 Sum of Mulliken charges =  -0.00000

 Dipole moment (field-independent basis, Debye):
    X=              0.3979    Y=             -0.7341    Z=             -0.2914  Tot=              0.8844
 Quadrupole moment (field-independent basis, Debye-Ang):
   XX=           -282.9610   YY=           -247.0218   ZZ=           -261.2798
   XY=             -0.3720   XZ=             39.8444   YZ=             -0.3447

 Normal termination of Gaussian 16 at Sun Jul 14 06:00:48 2019.
