 Gaussian 16, Revision A.03,
 Gaussian 16:  ES64L-G16RevA.03 25-Dec-2016

 -------------------------------------
 # td=(NStates=1) CAM-B3LYP/6-31G(d,p)
 -------------------------------------

 --
 TD
 --
 Symbolic Z-matrix:
 Charge =  0 Multiplicity = 1

                         Standard orientation:
 ---------------------------------------------------------------------
 Center     Atomic      Atomic             Coordinates (Angstroms)
 Number     Number       Type             X           Y           Z
 ---------------------------------------------------------------------
      1          8           0      -13.999833   -2.052538    0.621748
      2          8           0       14.680225    0.790904    0.471300
      3          6           0      -11.639184   -0.082344    1.407393
      4          6           0      -10.943457    0.413471    0.083137
      5          6           0      -11.807920   -1.549488    1.542304
      6          6           0      -12.598430   -2.183707    0.329669
      7          6           0      -11.628081   -0.228509   -1.223098
      8          6           0       11.091456    0.896977    1.332981
      9          6           0      -10.734599    0.284089    2.520844
     10          6           0      -13.026416    0.678142    1.501631
     11          6           0       12.461404    1.427077    1.095160
     12          6           0      -12.229704   -1.488045   -0.906395
     13          6           0       13.384361    0.409971    0.515067
     14          6           0       10.644685   -0.023988    0.093620
     15          6           0       -9.509470   -0.096782    0.011821
     16          6           0       12.818352    0.023780   -0.878988
     17          6           0       11.468140   -0.391694   -0.960626
     18          6           0       10.089695    2.035224    1.443833
     19          6           0       11.023845    0.076770    2.524415
     20          6           0      -11.418162    0.322318   -2.460614
     21          6           0       -8.558783    0.810064   -0.214038
     22          6           0        9.226588   -0.515669    0.134746
     23          6           0       11.067242   -1.083576   -2.174763
     24          6           0       -7.039977    0.557865   -0.221978
     25          6           0        8.827804   -1.770528   -0.317623
     26          6           0       -6.672173   -0.905841   -0.164406
     27          6           0        7.368044   -2.137568   -0.422092
     28          6           0       -6.206935    1.600859   -0.405542
     29          6           0        7.197774   -3.674744   -0.450259
     30          6           0        6.365993   -1.202987   -0.391370
     31          6           0       -4.773076    1.411453   -0.424018
     32          6           0        5.020111   -1.529365   -0.370827
     33          6           0       -3.985861    2.530521   -0.685307
     34          6           0       -2.521162    2.746189   -0.759080
     35          6           0        4.009734   -0.568127   -0.288003
     36          6           0        2.648157   -0.819615   -0.154476
     37          6           0       -1.972819    4.154535   -1.119425
     38          6           0       -1.806588    1.582569   -0.652357
     39          6           0        1.843482    0.369425   -0.349773
     40          6           0        2.029568   -2.107572    0.113546
     41          6           0       -0.406603    1.518445   -0.631063
     42          6           0        0.461933    0.405925   -0.371495
     43          1           0      -10.971684    1.433847   -0.031635
     44          1           0      -12.416136   -1.803842    2.467510
     45          1           0      -10.892248   -2.086245    1.535954
     46          1           0      -12.456165   -3.278187    0.216949
     47          1           0       -9.703884   -0.222148    2.417740
     48          1           0      -10.577524    1.328418    2.542577
     49          1           0      -10.999388    0.038184    3.535166
     50          1           0      -13.860174    0.575507    0.703507
     51          1           0      -13.458623    0.276659    2.688210
     52          1           0      -12.828563    1.941452    1.733852
     53          1           0       12.538162    2.320397    0.278763
     54          1           0       12.930546    1.651856    2.071746
     55          1           0      -12.767590   -1.942284   -1.663799
     56          1           0       13.154705   -0.553772    1.157615
     57          1           0       -9.340481   -1.133441    0.309258
     58          1           0       13.515060   -0.802160   -1.367931
     59          1           0       13.165553    1.061824   -1.314622
     60          1           0        9.261452    1.877887    1.933652
     61          1           0        9.802264    2.341002    0.519619
     62          1           0       10.732418    2.792858    1.977860
     63          1           0       11.482504   -0.872540    2.557917
     64          1           0        9.900188   -0.322711    2.599364
     65          1           0       11.254771    0.637161    3.527142
     66          1           0      -10.338956    0.490467   -2.676533
     67          1           0      -11.990459    1.129304   -2.369345
     68          1           0      -11.876124   -0.262499   -3.275852
     69          1           0      -14.593455   -2.013375   -0.254014
     70          1           0        8.507122    0.215653    0.452639
     71          1           0       -8.827981    1.885833   -0.376730
     72          1           0       11.368265   -2.170079   -2.202336
     73          1           0        9.963010   -0.902832   -2.536687
     74          1           0       11.649666   -0.820656   -3.107219
     75          1           0       14.925088    1.107038    1.446175
     76          1           0        9.543467   -2.349329   -0.746734
     77          1           0       -5.585132   -1.134485   -0.198540
     78          1           0       -6.950280   -1.577153    0.876748
     79          1           0       -7.099039   -1.556699   -0.930100
     80          1           0       -6.652567    2.581467   -0.557077
     81          1           0        6.923013   -4.045399    0.552848
     82          1           0        6.277911   -4.036072   -0.860518
     83          1           0        7.979418   -4.278614   -0.844625
     84          1           0        6.536925   -0.143600   -0.390112
     85          1           0       -4.352105    0.485392   -0.178640
     86          1           0        4.676469   -2.622507   -0.054047
     87          1           0       -4.666655    3.442137   -0.979274
     88          1           0        4.435467    0.434211   -0.367175
     89          1           0       -1.592153    4.028493   -1.958627
     90          1           0       -1.270107    4.647554   -0.319799
     91          1           0       -2.931937    4.666681   -1.209771
     92          1           0       -2.333477    0.538989   -0.810976
     93          1           0        2.358420    1.319850   -0.434841
     94          1           0        2.454505   -2.438897    0.976826
     95          1           0        0.973792   -2.209726    0.194508
     96          1           0        2.201703   -2.944636   -0.730318
     97          1           0        0.176707    2.506016   -0.827990
     98          1           0       -0.212634   -0.512281   -0.357965
 ---------------------------------------------------------------------

 SCF Done:  E(RCAM-B3LYP) =  -1706.95305128     A.U. after   15 cycles

 Excitation energies and oscillator strengths:

 Excited State   1:      Singlet-A      2.1230 eV  584.01 nm  f=2.9835  <S**2>=0.000
     155 ->158         0.13936
     156 ->157         0.69515
 This state for optimization and/or second-order correction.
 Total Energy, E(TD-HF/TD-DFT) =  -1706.87503252
 Copying the excited state density for this state as the 1-particle RhoCI density.

 The electronic state is 1-A.
 Alpha  occ. eigenvalues --  -19.23018 -19.20678 -10.30199 -10.29920 -10.28126
 Alpha  occ. eigenvalues --  -10.28033 -10.27954 -10.27853 -10.27598 -10.27400
 Alpha  occ. eigenvalues --  -10.27327 -10.27261 -10.27172 -10.27036 -10.26824
 Alpha  occ. eigenvalues --  -10.26749 -10.26732 -10.26500 -10.26493 -10.26459
 Alpha  occ. eigenvalues --  -10.26433 -10.26226 -10.26193 -10.26151 -10.26122
 Alpha  occ. eigenvalues --  -10.26063 -10.26057 -10.25969 -10.25849 -10.25699
 Alpha  occ. eigenvalues --  -10.25675 -10.25660 -10.25567 -10.25545 -10.25424
 Alpha  occ. eigenvalues --  -10.25196 -10.25174 -10.24474 -10.24438 -10.24130
 Alpha  occ. eigenvalues --  -10.23183 -10.22909  -1.11367  -1.06610  -0.94353
 Alpha  occ. eigenvalues --   -0.93416  -0.92024  -0.91173  -0.89923  -0.89424
 Alpha  occ. eigenvalues --   -0.88706  -0.88432  -0.86159  -0.85233  -0.84310
 Alpha  occ. eigenvalues --   -0.82592  -0.82095  -0.80906  -0.80314  -0.79428
 Alpha  occ. eigenvalues --   -0.77476  -0.77282  -0.76326  -0.76194  -0.76052
 Alpha  occ. eigenvalues --   -0.74816  -0.74573  -0.73282  -0.72225  -0.69952
 Alpha  occ. eigenvalues --   -0.68257  -0.67360  -0.65847  -0.64402  -0.63843
 Alpha  occ. eigenvalues --   -0.62978  -0.62284  -0.61605  -0.60670  -0.59822
 Alpha  occ. eigenvalues --   -0.59702  -0.58593  -0.58229  -0.57459  -0.57177
 Alpha  occ. eigenvalues --   -0.55508  -0.54848  -0.54371  -0.54037  -0.53742
 Alpha  occ. eigenvalues --   -0.53401  -0.53218  -0.52752  -0.52297  -0.52010
 Alpha  occ. eigenvalues --   -0.51842  -0.50641  -0.50443  -0.49797  -0.49648
 Alpha  occ. eigenvalues --   -0.49230  -0.49098  -0.48710  -0.48443  -0.47988
 Alpha  occ. eigenvalues --   -0.47779  -0.47053  -0.46960  -0.46543  -0.46341
 Alpha  occ. eigenvalues --   -0.45930  -0.45513  -0.45406  -0.45207  -0.44941
 Alpha  occ. eigenvalues --   -0.44809  -0.44439  -0.44080  -0.43476  -0.43254
 Alpha  occ. eigenvalues --   -0.43193  -0.43116  -0.42718  -0.42486  -0.42280
 Alpha  occ. eigenvalues --   -0.41596  -0.41433  -0.41154  -0.40922  -0.40555
 Alpha  occ. eigenvalues --   -0.40155  -0.39990  -0.39824  -0.39372  -0.39257
 Alpha  occ. eigenvalues --   -0.38866  -0.38410  -0.38168  -0.37867  -0.37830
 Alpha  occ. eigenvalues --   -0.37548  -0.37145  -0.36373  -0.35780  -0.35545
 Alpha  occ. eigenvalues --   -0.34587  -0.34259  -0.33014  -0.31651  -0.31474
 Alpha  occ. eigenvalues --   -0.31116  -0.29040  -0.27544  -0.26226  -0.23888
 Alpha  occ. eigenvalues --   -0.18966
 Alpha virt. eigenvalues --   -0.05836  -0.00267   0.02665   0.04848   0.06589
 Alpha virt. eigenvalues --    0.08443   0.09994   0.10995   0.11548   0.12008
 Alpha virt. eigenvalues --    0.12589   0.12931   0.13329   0.13737   0.13920

 Mulliken charges:
               1
     1  O   -0.564090
     2  O   -0.546082
     3  C    0.031150
     4  C   -0.120576
     5  C   -0.170957
     6  C    0.161019
     7  C    0.102232
     8  C    0.016570
     9  C   -0.294061
    10  C   -0.249557
    11  C   -0.179079
    12  C   -0.152711
    13  C    0.173382
    14  C   -0.002024
    15  C   -0.072025
    16  C   -0.237903
    17  C    0.145884
    18  C   -0.294264
    19  C   -0.296510
    20  C   -0.359288
    21  C   -0.110896
    22  C   -0.112150
    23  C   -0.400661
    24  C    0.119611
    25  C   -0.101910
    26  C   -0.375558
    27  C    0.069511
    28  C   -0.126870
    29  C   -0.382679
    30  C   -0.105283
    31  C   -0.058533
    32  C   -0.085777
    33  C   -0.134157
    34  C    0.062445
    35  C   -0.124941
    36  C    0.125931
    37  C   -0.339732
    38  C   -0.108920
    39  C   -0.123634
    40  C   -0.376480
    41  C   -0.106563
    42  C   -0.086720
    43  H    0.084265
    44  H    0.109291
    45  H    0.094036
    46  H    0.077979
    47  H    0.095261
    48  H    0.097448
    49  H    0.099813
    50  H    0.117024
    51  H    0.054403
    52  H    0.044988
    53  H    0.080592
    54  H    0.066940
    55  H    0.046772
    56  H    0.045013
    57  H    0.099034
    58  H    0.086928
    59  H    0.098858
    60  H    0.111096
    61  H    0.114354
    62  H    0.094552
    63  H    0.120902
    64  H    0.089501
    65  H    0.082707
    66  H    0.130504
    67  H    0.134533
    68  H    0.111946
    69  H    0.298027
    70  H    0.083541
    71  H    0.073168
    72  H    0.115289
    73  H    0.124593
    74  H    0.108069
    75  H    0.316710
    76  H    0.090217
    77  H    0.104672
    78  H    0.077949
    79  H    0.132483
    80  H    0.088727
    81  H    0.123026
    82  H    0.116257
    83  H    0.120529
    84  H    0.084796
    85  H    0.088666
    86  H    0.069503
    87  H    0.060812
    88  H    0.080906
    89  H    0.147707
    90  H    0.118327
    91  H    0.113374
    92  H    0.085564
    93  H    0.085705
    94  H    0.136460
    95  H    0.124772
    96  H    0.099895
    97  H    0.064842
    98  H    0.069527
 Sum of Mulliken charges =  -0.00000

 Dipole moment (field-independent basis, Debye):
    X=              0.8452    Y=             -0.0242    Z=             -0.8662  Tot=              1.2105
 Quadrupole moment (field-independent basis, Debye-Ang):
   XX=           -281.5036   YY=           -244.9944   ZZ=           -261.0319
   XY=             -4.3186   XZ=             45.1685   YZ=              1.8694

 Normal termination of Gaussian 16 at Sat Jul 13 13:54:58 2019.
