 Gaussian 16, Revision A.03,
 Gaussian 16:  ES64L-G16RevA.03 25-Dec-2016

 -------------------------------------
 # td=(NStates=1) CAM-B3LYP/6-31G(d,p)
 -------------------------------------

 --
 TD
 --
 Symbolic Z-matrix:
 Charge =  0 Multiplicity = 1

                         Standard orientation:
 ---------------------------------------------------------------------
 Center     Atomic      Atomic             Coordinates (Angstroms)
 Number     Number       Type             X           Y           Z
 ---------------------------------------------------------------------
      1          8           0      -14.089938   -2.061838    0.625327
      2          8           0       14.886500    0.747311    0.215884
      3          6           0      -11.850232    0.219119    1.302331
      4          6           0      -11.024858    0.290225   -0.069801
      5          6           0      -11.942936   -1.299790    1.635098
      6          6           0      -12.626331   -2.148954    0.493383
      7          6           0      -11.579615   -0.514885   -1.109327
      8          6           0       11.121682    1.073623    1.069040
      9          6           0      -11.081459    0.842074    2.413595
     10          6           0      -13.179744    0.852359    1.104811
     11          6           0       12.679165    1.301966    0.958992
     12          6           0      -12.144082   -1.716460   -0.846028
     13          6           0       13.628843    0.227079    0.491335
     14          6           0       10.638048   -0.011611    0.046663
     15          6           0       -9.578508   -0.060303    0.091154
     16          6           0       13.025237   -0.230203   -0.908116
     17          6           0       11.542848   -0.515237   -0.906538
     18          6           0       10.267735    2.296798    1.130918
     19          6           0       10.998834    0.329238    2.514311
     20          6           0      -11.210001   -0.289910   -2.594990
     21          6           0       -8.525000    0.806536   -0.028161
     22          6           0        9.206891   -0.376201    0.056184
     23          6           0       11.139043   -1.452304   -1.957298
     24          6           0       -6.980858    0.529744   -0.100066
     25          6           0        8.754099   -1.628036    0.062876
     26          6           0       -6.642597   -0.924489    0.269756
     27          6           0        7.331795   -2.082248   -0.031564
     28          6           0       -6.234741    1.579433   -0.371623
     29          6           0        7.129159   -3.424533    0.217210
     30          6           0        6.296485   -1.164762   -0.261221
     31          6           0       -4.816731    1.482300   -0.523538
     32          6           0        4.972624   -1.469365   -0.110658
     33          6           0       -4.018036    2.574687   -0.586785
     34          6           0       -2.705753    2.588732   -0.830825
     35          6           0        4.021410   -0.543216   -0.311000
     36          6           0        2.577626   -0.757465   -0.371223
     37          6           0       -2.109109    3.998059   -1.126565
     38          6           0       -1.840099    1.461825   -0.758538
     39          6           0        1.746449    0.297420   -0.542375
     40          6           0        2.051594   -2.129649   -0.185351
     41          6           0       -0.429873    1.456678   -0.818136
     42          6           0        0.341982    0.303148   -0.527921
     43          1           0      -10.961692    1.437533   -0.276746
     44          1           0      -12.714498   -1.617332    2.483859
     45          1           0      -11.068551   -1.810046    1.888638
     46          1           0      -12.433402   -3.247420    0.483094
     47          1           0       -9.909793    0.414854    2.659117
     48          1           0      -10.879815    1.881511    2.572832
     49          1           0      -11.702777    0.518939    3.293424
     50          1           0      -13.638770    0.481136    0.235920
     51          1           0      -13.749208    0.694828    1.992258
     52          1           0      -13.019192    2.066281    1.088764
     53          1           0       12.744377    2.206414    0.312938
     54          1           0       12.916429    1.704907    2.152506
     55          1           0      -12.553026   -2.337533   -1.698032
     56          1           0       13.604328   -0.718416    1.023654
     57          1           0       -9.250794   -1.167853    0.349079
     58          1           0       13.794112   -1.026681   -1.272671
     59          1           0       13.186544    0.685602   -1.621190
     60          1           0        9.161311    2.128608    1.425213
     61          1           0       10.260931    2.780386    0.114678
     62          1           0       10.792820    3.117564    1.832375
     63          1           0       11.922690   -0.508634    2.426040
     64          1           0       10.096270   -0.243261    2.493319
     65          1           0       11.339735    1.156431    3.279053
     66          1           0      -10.144295   -0.416314   -2.732890
     67          1           0      -11.271720    0.942258   -2.889554
     68          1           0      -11.762894   -0.826140   -3.346773
     69          1           0      -14.425562   -2.548819   -0.144205
     70          1           0        8.664950    0.445613    0.234767
     71          1           0       -8.825536    1.787198   -0.274618
     72          1           0       11.617821   -2.550300   -1.929033
     73          1           0       10.088295   -1.430323   -2.094653
     74          1           0       11.706241   -1.042602   -2.776292
     75          1           0       15.203565    1.101661    1.102501
     76          1           0        9.346518   -2.319760    0.140874
     77          1           0       -5.539900   -1.108479    0.284358
     78          1           0       -7.006078   -0.993927    1.155658
     79          1           0       -7.114749   -1.507744   -0.288025
     80          1           0       -6.684796    2.549168   -0.605548
     81          1           0        7.037721   -3.510977    1.284947
     82          1           0        6.098110   -3.861389   -0.297806
     83          1           0        8.058426   -4.030217   -0.071218
     84          1           0        6.614162   -0.209077   -0.411990
     85          1           0       -4.320994    0.409288   -0.472492
     86          1           0        4.797443   -2.535390    0.229472
     87          1           0       -4.376881    3.790982   -0.591511
     88          1           0        4.336820    0.410836   -0.801055
     89          1           0       -1.463109    3.916882   -2.051260
     90          1           0       -1.175960    4.099315   -0.434699
     91          1           0       -2.815530    4.772452   -1.168834
     92          1           0       -2.285238    0.491069   -0.523896
     93          1           0        2.217877    1.118311   -0.802845
     94          1           0        2.951719   -2.875768    0.526657
     95          1           0        0.915852   -1.987600    0.300398
     96          1           0        1.810284   -2.779976   -1.314932
     97          1           0        0.114673    2.510700   -0.903674
     98          1           0       -0.383671   -0.521054   -0.179686
 ---------------------------------------------------------------------

 SCF Done:  E(RCAM-B3LYP) =  -1706.86900868     A.U. after   15 cycles

 Excitation energies and oscillator strengths:

 Excited State   1:      Singlet-A      2.1491 eV  576.91 nm  f=2.8298  <S**2>=0.000
     155 ->158         0.14452
     156 ->157         0.69383
 This state for optimization and/or second-order correction.
 Total Energy, E(TD-HF/TD-DFT) =  -1706.79002991
 Copying the excited state density for this state as the 1-particle RhoCI density.

 The electronic state is 1-A.
 Alpha  occ. eigenvalues --  -19.22581 -19.20998 -10.31018 -10.30818 -10.30279
 Alpha  occ. eigenvalues --  -10.27987 -10.27894 -10.27519 -10.27484 -10.27322
 Alpha  occ. eigenvalues --  -10.27307 -10.27211 -10.27207 -10.27174 -10.27119
 Alpha  occ. eigenvalues --  -10.27075 -10.27053 -10.26952 -10.26781 -10.26773
 Alpha  occ. eigenvalues --  -10.26714 -10.26697 -10.26564 -10.26457 -10.26358
 Alpha  occ. eigenvalues --  -10.26307 -10.26220 -10.26215 -10.26015 -10.26000
 Alpha  occ. eigenvalues --  -10.25809 -10.25763 -10.25763 -10.25367 -10.25295
 Alpha  occ. eigenvalues --  -10.25257 -10.24722 -10.24626 -10.24583 -10.24165
 Alpha  occ. eigenvalues --  -10.24060 -10.23757  -1.10809  -1.08027  -0.94352
 Alpha  occ. eigenvalues --   -0.93315  -0.92371  -0.92105  -0.90978  -0.90066
 Alpha  occ. eigenvalues --   -0.87488  -0.87354  -0.86711  -0.85639  -0.84749
 Alpha  occ. eigenvalues --   -0.83756  -0.82433  -0.80945  -0.80762  -0.78554
 Alpha  occ. eigenvalues --   -0.77780  -0.76056  -0.75664  -0.75560  -0.75055
 Alpha  occ. eigenvalues --   -0.74668  -0.74416  -0.73428  -0.72642  -0.70330
 Alpha  occ. eigenvalues --   -0.69416  -0.67322  -0.66228  -0.65520  -0.63266
 Alpha  occ. eigenvalues --   -0.62830  -0.62221  -0.61859  -0.60143  -0.59793
 Alpha  occ. eigenvalues --   -0.59739  -0.58697  -0.58129  -0.57371  -0.56451
 Alpha  occ. eigenvalues --   -0.56112  -0.55152  -0.54672  -0.54491  -0.54291
 Alpha  occ. eigenvalues --   -0.53301  -0.52820  -0.52721  -0.52073  -0.51557
 Alpha  occ. eigenvalues --   -0.50905  -0.50163  -0.49969  -0.49557  -0.49231
 Alpha  occ. eigenvalues --   -0.49106  -0.48786  -0.48449  -0.47791  -0.47571
 Alpha  occ. eigenvalues --   -0.47489  -0.47105  -0.46782  -0.46495  -0.46417
 Alpha  occ. eigenvalues --   -0.45996  -0.45760  -0.45627  -0.45233  -0.44960
 Alpha  occ. eigenvalues --   -0.44778  -0.44761  -0.44474  -0.44229  -0.43340
 Alpha  occ. eigenvalues --   -0.43203  -0.42895  -0.42772  -0.42048  -0.41681
 Alpha  occ. eigenvalues --   -0.41602  -0.41141  -0.40757  -0.40636  -0.40388
 Alpha  occ. eigenvalues --   -0.40260  -0.39866  -0.39700  -0.39583  -0.39139
 Alpha  occ. eigenvalues --   -0.38788  -0.38711  -0.38358  -0.38138  -0.37873
 Alpha  occ. eigenvalues --   -0.37394  -0.37339  -0.36626  -0.36499  -0.35705
 Alpha  occ. eigenvalues --   -0.34672  -0.34144  -0.33661  -0.33296  -0.32205
 Alpha  occ. eigenvalues --   -0.31200  -0.29453  -0.28422  -0.26862  -0.23741
 Alpha  occ. eigenvalues --   -0.19202
 Alpha virt. eigenvalues --   -0.05655  -0.00867   0.02995   0.04822   0.06537
 Alpha virt. eigenvalues --    0.08302   0.10058   0.10357   0.10769   0.11126
 Alpha virt. eigenvalues --    0.11870   0.12255   0.12465   0.13273   0.13787

 Mulliken charges:
               1
     1  O   -0.549109
     2  O   -0.542501
     3  C    0.036206
     4  C   -0.162070
     5  C   -0.192067
     6  C    0.119246
     7  C    0.140677
     8  C   -0.003527
     9  C   -0.299187
    10  C   -0.271712
    11  C   -0.182931
    12  C   -0.128729
    13  C    0.181464
    14  C    0.025579
    15  C   -0.068996
    16  C   -0.251589
    17  C    0.071428
    18  C   -0.305630
    19  C   -0.280102
    20  C   -0.347703
    21  C   -0.113305
    22  C   -0.107972
    23  C   -0.354882
    24  C    0.078377
    25  C   -0.037397
    26  C   -0.341931
    27  C    0.093378
    28  C   -0.110991
    29  C   -0.401227
    30  C   -0.086880
    31  C   -0.102320
    32  C   -0.058294
    33  C   -0.109925
    34  C    0.122363
    35  C   -0.138360
    36  C    0.133377
    37  C   -0.380059
    38  C   -0.127053
    39  C   -0.090770
    40  C   -0.325070
    41  C   -0.077734
    42  C   -0.105765
    43  H    0.087172
    44  H    0.100243
    45  H    0.112022
    46  H    0.078147
    47  H    0.071778
    48  H    0.107208
    49  H    0.095912
    50  H    0.128175
    51  H    0.113288
    52  H    0.064598
    53  H    0.101141
    54  H    0.031063
    55  H    0.063248
    56  H    0.092498
    57  H    0.068686
    58  H    0.105212
    59  H    0.110304
    60  H    0.108629
    61  H    0.103273
    62  H    0.088554
    63  H    0.062758
    64  H    0.112459
    65  H    0.095237
    66  H    0.134260
    67  H    0.065209
    68  H    0.118730
    69  H    0.300260
    70  H    0.078886
    71  H    0.070278
    72  H    0.094104
    73  H    0.123364
    74  H    0.111929
    75  H    0.311763
    76  H    0.049044
    77  H    0.098857
    78  H    0.142087
    79  H    0.134659
    80  H    0.093732
    81  H    0.142090
    82  H    0.101391
    83  H    0.108849
    84  H    0.066787
    85  H    0.090536
    86  H    0.076253
    87  H    0.060533
    88  H    0.082714
    89  H    0.124137
    90  H    0.116216
    91  H    0.114210
    92  H    0.070108
    93  H    0.068771
    94  H    0.065958
    95  H    0.094332
    96  H    0.086377
    97  H    0.070541
    98  H    0.085119
 Sum of Mulliken charges =  -0.00000

 Dipole moment (field-independent basis, Debye):
    X=              0.5585    Y=             -0.7412    Z=             -0.0791  Tot=              0.9314
 Quadrupole moment (field-independent basis, Debye-Ang):
   XX=           -274.6439   YY=           -243.8959   ZZ=           -265.7843
   XY=              8.6242   XZ=             32.8218   YZ=              2.0752

 Normal termination of Gaussian 16 at Mon Jul 15 23:14:17 2019.
