 Gaussian 16, Revision A.03,
 Gaussian 16:  ES64L-G16RevA.03 25-Dec-2016

 -------------------------------------
 # td=(NStates=1) CAM-B3LYP/6-31G(d,p)
 -------------------------------------

 --
 TD
 --
 Symbolic Z-matrix:
 Charge =  0 Multiplicity = 1

                         Standard orientation:
 ---------------------------------------------------------------------
 Center     Atomic      Atomic             Coordinates (Angstroms)
 Number     Number       Type             X           Y           Z
 ---------------------------------------------------------------------
      1          8           0      -14.029220   -2.145736    0.790414
      2          8           0       14.823912    0.750483   -0.041045
      3          6           0      -11.653825    0.050210    1.271273
      4          6           0      -11.002733    0.251246   -0.149190
      5          6           0      -11.845640   -1.428460    1.469163
      6          6           0      -12.713101   -2.170814    0.368248
      7          6           0      -11.773907   -0.424142   -1.264382
      8          6           0       11.208272    0.852766    1.016020
      9          6           0      -10.875616    0.711007    2.322635
     10          6           0      -13.028893    0.746715    1.258273
     11          6           0       12.601471    1.396265    0.753928
     12          6           0      -12.457017   -1.493709   -1.052303
     13          6           0       13.531458    0.348610    0.233585
     14          6           0       10.624450   -0.109194    0.000478
     15          6           0       -9.511054   -0.072515   -0.055483
     16          6           0       12.931599   -0.367537   -0.996203
     17          6           0       11.456976   -0.562140   -0.959912
     18          6           0       10.298977    2.109888    1.153668
     19          6           0       11.217735    0.266270    2.495872
     20          6           0      -11.525598    0.028571   -2.702273
     21          6           0       -8.463545    0.759678   -0.133398
     22          6           0        9.129433   -0.454469    0.139111
     23          6           0       11.033569   -1.310439   -2.103078
     24          6           0       -7.029355    0.401723   -0.271252
     25          6           0        8.787936   -1.726068   -0.062762
     26          6           0       -6.568460   -0.950704    0.029221
     27          6           0        7.349777   -2.047175   -0.025770
     28          6           0       -6.140049    1.499372   -0.361005
     29          6           0        6.966291   -3.510175    0.277568
     30          6           0        6.340172   -1.211364   -0.211479
     31          6           0       -4.718950    1.381380   -0.302543
     32          6           0        4.971025   -1.415210   -0.066747
     33          6           0       -3.984051    2.581544   -0.604423
     34          6           0       -2.667191    2.606605   -0.647863
     35          6           0        3.962252   -0.494182   -0.204100
     36          6           0        2.685959   -0.624374   -0.154753
     37          6           0       -2.003184    4.083417   -0.772249
     38          6           0       -1.787905    1.589923   -0.479166
     39          6           0        1.757337    0.436597   -0.470585
     40          6           0        2.115077   -2.094559    0.159034
     41          6           0       -0.339766    1.614492   -0.433236
     42          6           0        0.346413    0.504792   -0.340673
     43          1           0      -11.000695    1.348930   -0.383394
     44          1           0      -12.442110   -1.691046    2.328562
     45          1           0      -10.900649   -1.768606    1.463279
     46          1           0      -12.340015   -3.354732    0.228149
     47          1           0       -9.866110    0.274445    2.748518
     48          1           0      -10.620046    1.742428    2.092319
     49          1           0      -11.375261    0.655472    3.237263
     50          1           0      -13.592628    0.679601    0.352081
     51          1           0      -13.701971    0.255954    2.121910
     52          1           0      -13.092615    1.895979    1.258651
     53          1           0       12.666794    2.259507    0.083774
     54          1           0       13.006886    1.757877    1.528822
     55          1           0      -12.806432   -1.931696   -2.040143
     56          1           0       13.557239   -0.550308    1.065206
     57          1           0       -9.224781   -1.227550    0.195673
     58          1           0       13.681631   -1.139563   -1.264611
     59          1           0       13.240298    0.234100   -1.851943
     60          1           0        9.321856    1.945937    1.468110
     61          1           0       10.153680    2.643797    0.178175
     62          1           0       10.656118    2.873410    1.876606
     63          1           0       11.911581   -0.574731    2.602224
     64          1           0       10.179576    0.154548    2.665543
     65          1           0       11.362187    1.035177    3.350567
     66          1           0      -10.505231   -0.104802   -2.946930
     67          1           0      -11.655293    1.138264   -2.721891
     68          1           0      -12.029421   -0.637777   -3.404580
     69          1           0      -14.543044   -2.090195   -0.189707
     70          1           0        8.347578    0.267277    0.487991
     71          1           0       -8.789883    1.772815   -0.325588
     72          1           0       11.324339   -2.437198   -2.312337
     73          1           0        9.936878   -1.196339   -2.120907
     74          1           0       11.455052   -0.796794   -2.993783
     75          1           0       15.078818    1.081279    0.904443
     76          1           0        9.657280   -2.269263   -0.362053
     77          1           0       -5.558703   -1.141801    0.384874
     78          1           0       -7.457549   -1.642721    0.712682
     79          1           0       -6.774999   -1.533801   -0.990284
     80          1           0       -6.648371    2.421814   -0.665899
     81          1           0        6.306613   -3.700543    1.168891
     82          1           0        6.404817   -3.961226   -0.700536
     83          1           0        7.702489   -4.180248    0.250359
     84          1           0        6.634899   -0.316276   -0.372777
     85          1           0       -4.175902    0.393182   -0.000700
     86          1           0        4.627838   -2.503200    0.099978
     87          1           0       -4.740531    3.498110   -0.577798
     88          1           0        4.248368    0.698346   -0.268338
     89          1           0       -1.045600    4.017834   -1.561286
     90          1           0       -1.612168    4.348886    0.301123
     91          1           0       -2.647432    4.881348   -0.946791
     92          1           0       -2.268713    0.804806   -0.127591
     93          1           0        2.307845    1.445649   -0.874329
     94          1           0        3.046441   -2.388286    0.852845
     95          1           0        1.002494   -2.050002    0.796522
     96          1           0        1.941281   -2.718554   -0.873713
     97          1           0        0.068716    2.499341   -0.597973
     98          1           0       -0.129011   -0.479855   -0.063708
 ---------------------------------------------------------------------

 SCF Done:  E(RCAM-B3LYP) =  -1706.86762410     A.U. after   15 cycles

 Excitation energies and oscillator strengths:

 Excited State   1:      Singlet-A      2.0317 eV  610.26 nm  f=2.8954  <S**2>=0.000
     155 ->158        -0.13889
     156 ->157         0.69627
     156 <-157        -0.10111
 This state for optimization and/or second-order correction.
 Total Energy, E(TD-HF/TD-DFT) =  -1706.79296156
 Copying the excited state density for this state as the 1-particle RhoCI density.

 The electronic state is 1-A.
 Alpha  occ. eigenvalues --  -19.23016 -19.22600 -10.32779 -10.30525 -10.29425
 Alpha  occ. eigenvalues --  -10.28564 -10.28357 -10.28272 -10.28027 -10.27486
 Alpha  occ. eigenvalues --  -10.27367 -10.27294 -10.27291 -10.27188 -10.27184
 Alpha  occ. eigenvalues --  -10.27064 -10.26847 -10.26808 -10.26761 -10.26751
 Alpha  occ. eigenvalues --  -10.26744 -10.26668 -10.26568 -10.26495 -10.26401
 Alpha  occ. eigenvalues --  -10.26358 -10.26309 -10.26044 -10.25647 -10.25409
 Alpha  occ. eigenvalues --  -10.25377 -10.25268 -10.24945 -10.24802 -10.24605
 Alpha  occ. eigenvalues --  -10.24547 -10.24477 -10.24221 -10.23805 -10.23787
 Alpha  occ. eigenvalues --  -10.23633 -10.22833  -1.10689  -1.09588  -0.94023
 Alpha  occ. eigenvalues --   -0.93999  -0.92870  -0.92412  -0.90940  -0.90331
 Alpha  occ. eigenvalues --   -0.88326  -0.88052  -0.87831  -0.85563  -0.84642
 Alpha  occ. eigenvalues --   -0.82313  -0.81512  -0.80276  -0.79878  -0.77731
 Alpha  occ. eigenvalues --   -0.76884  -0.76700  -0.76197  -0.75973  -0.75552
 Alpha  occ. eigenvalues --   -0.75390  -0.74893  -0.74594  -0.73207  -0.70779
 Alpha  occ. eigenvalues --   -0.68860  -0.67160  -0.66639  -0.64877  -0.64365
 Alpha  occ. eigenvalues --   -0.63369  -0.63132  -0.62283  -0.60552  -0.60104
 Alpha  occ. eigenvalues --   -0.59523  -0.58837  -0.57937  -0.57701  -0.56477
 Alpha  occ. eigenvalues --   -0.55630  -0.55288  -0.55187  -0.54281  -0.53667
 Alpha  occ. eigenvalues --   -0.53183  -0.52890  -0.52561  -0.52205  -0.51292
 Alpha  occ. eigenvalues --   -0.50349  -0.50125  -0.49815  -0.49465  -0.49088
 Alpha  occ. eigenvalues --   -0.48717  -0.48631  -0.48428  -0.47947  -0.47589
 Alpha  occ. eigenvalues --   -0.47398  -0.47192  -0.46772  -0.46508  -0.46467
 Alpha  occ. eigenvalues --   -0.46235  -0.45807  -0.45612  -0.45497  -0.45190
 Alpha  occ. eigenvalues --   -0.45022  -0.44494  -0.44164  -0.44034  -0.43683
 Alpha  occ. eigenvalues --   -0.43389  -0.42846  -0.42780  -0.42365  -0.42278
 Alpha  occ. eigenvalues --   -0.42053  -0.41868  -0.41538  -0.41202  -0.40783
 Alpha  occ. eigenvalues --   -0.40336  -0.40103  -0.39726  -0.39608  -0.39331
 Alpha  occ. eigenvalues --   -0.38886  -0.38813  -0.38356  -0.37884  -0.37536
 Alpha  occ. eigenvalues --   -0.37202  -0.36815  -0.36209  -0.35751  -0.35481
 Alpha  occ. eigenvalues --   -0.35325  -0.34457  -0.33920  -0.32027  -0.31920
 Alpha  occ. eigenvalues --   -0.31598  -0.30671  -0.29766  -0.27419  -0.23873
 Alpha  occ. eigenvalues --   -0.19338
 Alpha virt. eigenvalues --   -0.06584  -0.01626   0.03067   0.05488   0.06829
 Alpha virt. eigenvalues --    0.08549   0.10131   0.10611   0.10892   0.11420
 Alpha virt. eigenvalues --    0.11950   0.12569   0.12964   0.13058   0.13166

 Mulliken charges:
               1
     1  O   -0.529317
     2  O   -0.545263
     3  C    0.041800
     4  C   -0.156371
     5  C   -0.171934
     6  C    0.170138
     7  C    0.148120
     8  C   -0.044590
     9  C   -0.299410
    10  C   -0.298443
    11  C   -0.140453
    12  C   -0.187528
    13  C    0.152666
    14  C    0.064381
    15  C   -0.068108
    16  C   -0.240584
    17  C    0.077019
    18  C   -0.322744
    19  C   -0.301819
    20  C   -0.360064
    21  C   -0.091815
    22  C   -0.103299
    23  C   -0.387010
    24  C    0.119015
    25  C   -0.100740
    26  C   -0.365289
    27  C    0.059435
    28  C   -0.124874
    29  C   -0.369069
    30  C   -0.053089
    31  C   -0.079680
    32  C   -0.126252
    33  C   -0.143175
    34  C    0.106830
    35  C   -0.075438
    36  C    0.102593
    37  C   -0.361215
    38  C   -0.103447
    39  C   -0.143611
    40  C   -0.335308
    41  C   -0.040191
    42  C   -0.061155
    43  H    0.075601
    44  H    0.114494
    45  H    0.098655
    46  H    0.044305
    47  H    0.080914
    48  H    0.103071
    49  H    0.109116
    50  H    0.101644
    51  H    0.095429
    52  H    0.076510
    53  H    0.092662
    54  H    0.080341
    55  H    0.065490
    56  H    0.028546
    57  H    0.060099
    58  H    0.118366
    59  H    0.114737
    60  H    0.102646
    61  H    0.097203
    62  H    0.096656
    63  H    0.107771
    64  H    0.109635
    65  H    0.083521
    66  H    0.133407
    67  H    0.109169
    68  H    0.108943
    69  H    0.315788
    70  H    0.102815
    71  H    0.073840
    72  H    0.103114
    73  H    0.119432
    74  H    0.107413
    75  H    0.312943
    76  H    0.117778
    77  H    0.124584
    78  H    0.081915
    79  H    0.116652
    80  H    0.087753
    81  H    0.118633
    82  H    0.088452
    83  H    0.113749
    84  H    0.047162
    85  H    0.100418
    86  H    0.090900
    87  H    0.096768
    88  H    0.064639
    89  H    0.093905
    90  H    0.108393
    91  H    0.113071
    92  H    0.052774
    93  H    0.064213
    94  H    0.107907
    95  H    0.082104
    96  H    0.116978
    97  H    0.076007
    98  H    0.080260
 Sum of Mulliken charges =  -0.00000

 Dipole moment (field-independent basis, Debye):
    X=             -0.6743    Y=              0.5476    Z=             -0.4025  Tot=              0.9574
 Quadrupole moment (field-independent basis, Debye-Ang):
   XX=           -273.6318   YY=           -250.3384   ZZ=           -263.1113
   XY=             -3.2680   XZ=             40.8968   YZ=              5.5225

 Normal termination of Gaussian 16 at Sat Jul 13 02:58:11 2019.
