 Gaussian 16, Revision A.03,
 Gaussian 16:  ES64L-G16RevA.03 25-Dec-2016

 -------------------------------------
 # td=(NStates=1) CAM-B3LYP/6-31G(d,p)
 -------------------------------------

 --
 TD
 --
 Symbolic Z-matrix:
 Charge =  0 Multiplicity = 1

                         Standard orientation:
 ---------------------------------------------------------------------
 Center     Atomic      Atomic             Coordinates (Angstroms)
 Number     Number       Type             X           Y           Z
 ---------------------------------------------------------------------
      1          8           0      -14.200146   -1.924198    0.244864
      2          8           0       14.922005    0.820349    0.056973
      3          6           0      -11.933035   -0.011685    1.273464
      4          6           0      -11.094275    0.401683   -0.047876
      5          6           0      -12.193904   -1.467403    1.289001
      6          6           0      -12.928506   -1.987573   -0.003444
      7          6           0      -11.779968   -0.203489   -1.257507
      8          6           0       11.217315    1.146285    0.858788
      9          6           0      -11.196931    0.342777    2.465855
     10          6           0      -13.173988    0.870787    1.246270
     11          6           0       12.629752    1.564493    0.525741
     12          6           0      -12.542288   -1.334035   -1.279036
     13          6           0       13.611764    0.335659    0.304299
     14          6           0       10.702825   -0.000222   -0.132733
     15          6           0       -9.624885   -0.000240   -0.000103
     16          6           0       13.220459   -0.401972   -0.996975
     17          6           0       11.667149   -0.578941   -0.933810
     18          6           0       10.214163    2.368650    0.709541
     19          6           0       11.225027    0.699811    2.274823
     20          6           0      -11.412947    0.612744   -2.562115
     21          6           0       -8.561226    0.766398   -0.252527
     22          6           0        9.379480   -0.258267   -0.126364
     23          6           0       11.235320   -1.595146   -2.026470
     24          6           0       -7.209684    0.362550   -0.198656
     25          6           0        8.842457   -1.485766   -0.084297
     26          6           0       -6.905187   -1.081502    0.079795
     27          6           0        7.492205   -2.095869    0.014532
     28          6           0       -6.251688    1.393655   -0.344535
     29          6           0        7.289841   -3.495493    0.214571
     30          6           0        6.421342   -1.228950    0.014085
     31          6           0       -4.827553    1.273184   -0.285051
     32          6           0        5.077636   -1.529252    0.081735
     33          6           0       -4.029957    2.355762   -0.551704
     34          6           0       -2.557519    2.421847   -0.508282
     35          6           0        4.110782   -0.560784   -0.088385
     36          6           0        2.769692   -0.791375    0.126400
     37          6           0       -1.983170    3.677429   -0.789350
     38          6           0       -1.797999    1.303653   -0.370683
     39          6           0        1.794357    0.209735   -0.085410
     40          6           0        2.269348   -2.174227    0.423444
     41          6           0       -0.412514    1.361056   -0.287347
     42          6           0        0.356309    0.132030   -0.040411
     43          1           0      -11.365845    1.437198    0.031690
     44          1           0      -12.656245   -1.863721    2.209265
     45          1           0      -10.968921   -1.918072    1.127520
     46          1           0      -12.612181   -3.208711    0.026756
     47          1           0      -10.369010   -0.278180    2.770761
     48          1           0      -10.803209    1.366458    2.238817
     49          1           0      -11.730029    0.317376    3.410505
     50          1           0      -13.938633    0.894566    0.387469
     51          1           0      -13.831291    0.441842    2.066083
     52          1           0      -12.877169    2.003410    1.318997
     53          1           0       12.704472    2.003434   -0.715751
     54          1           0       12.883135    2.396788    1.185018
     55          1           0      -12.912159   -1.748816   -2.185577
     56          1           0       13.691753   -0.265224    1.184841
     57          1           0       -9.475521   -1.066561    0.224018
     58          1           0       13.807675   -1.336036   -1.070466
     59          1           0       13.584826    0.232271   -1.824805
     60          1           0        9.193428    2.248521    1.069726
     61          1           0       10.035630    2.698946   -0.461493
     62          1           0       10.736574    3.204371    1.242801
     63          1           0       11.798700   -0.257102    2.573096
     64          1           0       10.039031    0.911874    2.719008
     65          1           0       11.801683    1.405438    2.852683
     66          1           0      -10.303711    0.447226   -2.774622
     67          1           0      -11.883342    1.464792   -2.697580
     68          1           0      -11.974898    0.082896   -3.400091
     69          1           0      -14.785193   -2.267849   -0.583683
     70          1           0        8.699724    0.571302   -0.089253
     71          1           0       -8.788479    1.908235   -0.341837
     72          1           0       11.667107   -2.629262   -1.670224
     73          1           0       10.289103   -1.742723   -2.335412
     74          1           0       11.726259   -1.358530   -2.858062
     75          1           0       15.235480    1.187402    0.902122
     76          1           0        9.672592   -2.204047   -0.160984
     77          1           0       -5.894034   -1.121166    0.376783
     78          1           0       -7.269528   -1.226329    1.173841
     79          1           0       -6.994064   -1.790772   -0.507224
     80          1           0       -6.558514    2.361493   -0.345896
     81          1           0        7.352778   -3.641474    1.517832
     82          1           0        6.108521   -4.033958   -0.122574
     83          1           0        8.255271   -4.081219   -0.383058
     84          1           0        6.522460   -0.049776    0.027510
     85          1           0       -4.303060    0.403294   -0.049476
     86          1           0        4.820863   -2.544137    0.604476
     87          1           0       -4.642056    3.335506   -0.723319
     88          1           0        4.362290    0.552470   -0.441669
     89          1           0       -1.338354    3.622827   -1.777020
     90          1           0       -1.338551    4.241520    0.014010
     91          1           0       -2.749650    4.571212   -0.930745
     92          1           0       -2.146860    0.415384   -0.117297
     93          1           0        2.203406    1.237025   -0.429851
     94          1           0        3.072945   -2.716565    1.149767
     95          1           0        1.316472   -2.339298    1.033075
     96          1           0        2.660271   -2.863431   -0.454738
     97          1           0        0.004328    2.249159   -0.475700
     98          1           0       -0.171134   -0.738478    0.179604
 ---------------------------------------------------------------------

 SCF Done:  E(RCAM-B3LYP) =  -1706.84857862     A.U. after   15 cycles

 Excitation energies and oscillator strengths:

 Excited State   1:      Singlet-A      2.0518 eV  604.26 nm  f=3.1390  <S**2>=0.000
     155 ->158        -0.14221
     156 ->157         0.69398
 This state for optimization and/or second-order correction.
 Total Energy, E(TD-HF/TD-DFT) =  -1706.77317484
 Copying the excited state density for this state as the 1-particle RhoCI density.

 The electronic state is 1-A.
 Alpha  occ. eigenvalues --  -19.22203 -19.20821 -10.30996 -10.30917 -10.30724
 Alpha  occ. eigenvalues --  -10.27698 -10.27611 -10.27459 -10.27369 -10.27344
 Alpha  occ. eigenvalues --  -10.27343 -10.27304 -10.27282 -10.27216 -10.27136
 Alpha  occ. eigenvalues --  -10.27085 -10.27046 -10.26973 -10.26680 -10.26404
 Alpha  occ. eigenvalues --  -10.26362 -10.26336 -10.26297 -10.26204 -10.26190
 Alpha  occ. eigenvalues --  -10.26125 -10.25954 -10.25910 -10.25864 -10.25859
 Alpha  occ. eigenvalues --  -10.25825 -10.25647 -10.25618 -10.25432 -10.25009
 Alpha  occ. eigenvalues --  -10.24956 -10.24795 -10.24490 -10.24408 -10.24359
 Alpha  occ. eigenvalues --  -10.23070 -10.23043  -1.12689  -1.09366  -0.93446
 Alpha  occ. eigenvalues --   -0.93319  -0.92747  -0.91879  -0.90959  -0.89922
 Alpha  occ. eigenvalues --   -0.87288  -0.86857  -0.86467  -0.85546  -0.84632
 Alpha  occ. eigenvalues --   -0.82709  -0.81986  -0.79970  -0.79685  -0.78220
 Alpha  occ. eigenvalues --   -0.77701  -0.75902  -0.75684  -0.75224  -0.74997
 Alpha  occ. eigenvalues --   -0.74870  -0.74537  -0.74250  -0.72125  -0.69812
 Alpha  occ. eigenvalues --   -0.68539  -0.67190  -0.66281  -0.65266  -0.64120
 Alpha  occ. eigenvalues --   -0.63649  -0.62991  -0.62450  -0.61264  -0.60140
 Alpha  occ. eigenvalues --   -0.58774  -0.58394  -0.58351  -0.57627  -0.56669
 Alpha  occ. eigenvalues --   -0.55880  -0.55477  -0.55061  -0.54175  -0.54033
 Alpha  occ. eigenvalues --   -0.53511  -0.53295  -0.52516  -0.52093  -0.51763
 Alpha  occ. eigenvalues --   -0.50788  -0.50544  -0.49856  -0.49308  -0.49126
 Alpha  occ. eigenvalues --   -0.48808  -0.48756  -0.48290  -0.48232  -0.47607
 Alpha  occ. eigenvalues --   -0.47424  -0.47281  -0.46725  -0.46537  -0.46090
 Alpha  occ. eigenvalues --   -0.45655  -0.45495  -0.44950  -0.44713  -0.44371
 Alpha  occ. eigenvalues --   -0.43988  -0.43826  -0.43429  -0.43368  -0.43133
 Alpha  occ. eigenvalues --   -0.42935  -0.42708  -0.42257  -0.42096  -0.41713
 Alpha  occ. eigenvalues --   -0.41083  -0.40824  -0.40615  -0.40418  -0.40307
 Alpha  occ. eigenvalues --   -0.39954  -0.39730  -0.39353  -0.39049  -0.38954
 Alpha  occ. eigenvalues --   -0.38901  -0.38859  -0.38628  -0.38289  -0.37964
 Alpha  occ. eigenvalues --   -0.36907  -0.36704  -0.36229  -0.35581  -0.35394
 Alpha  occ. eigenvalues --   -0.34536  -0.33759  -0.33237  -0.31807  -0.31528
 Alpha  occ. eigenvalues --   -0.30703  -0.29140  -0.28847  -0.26109  -0.23407
 Alpha  occ. eigenvalues --   -0.19092
 Alpha virt. eigenvalues --   -0.06219  -0.00962   0.02490   0.05700   0.06702
 Alpha virt. eigenvalues --    0.08620   0.09671   0.10220   0.10934   0.11480
 Alpha virt. eigenvalues --    0.12373   0.13005   0.13033   0.13171   0.13684

 Mulliken charges:
               1
     1  O   -0.506740
     2  O   -0.557806
     3  C    0.023640
     4  C   -0.128902
     5  C   -0.157287
     6  C    0.176913
     7  C    0.081507
     8  C    0.002756
     9  C   -0.285685
    10  C   -0.295327
    11  C   -0.188237
    12  C   -0.122489
    13  C    0.164010
    14  C    0.079660
    15  C   -0.088608
    16  C   -0.216938
    17  C    0.011610
    18  C   -0.307953
    19  C   -0.282947
    20  C   -0.354219
    21  C   -0.078954
    22  C   -0.090043
    23  C   -0.349580
    24  C    0.090350
    25  C   -0.111168
    26  C   -0.362617
    27  C    0.126105
    28  C   -0.124746
    29  C   -0.345064
    30  C   -0.105936
    31  C   -0.044193
    32  C   -0.101338
    33  C   -0.140518
    34  C    0.138208
    35  C   -0.115022
    36  C    0.148673
    37  C   -0.408664
    38  C   -0.086729
    39  C   -0.137411
    40  C   -0.387764
    41  C   -0.068325
    42  C   -0.093115
    43  H    0.091280
    44  H    0.104252
    45  H    0.042289
    46  H    0.002618
    47  H    0.098016
    48  H    0.085713
    49  H    0.098142
    50  H    0.104215
    51  H    0.098843
    52  H    0.079886
    53  H    0.056178
    54  H    0.086523
    55  H    0.080492
    56  H    0.082926
    57  H    0.092082
    58  H    0.117259
    59  H    0.133636
    60  H    0.112784
    61  H    0.086964
    62  H    0.093156
    63  H    0.105320
    64  H    0.075457
    65  H    0.098691
    66  H    0.127919
    67  H    0.129296
    68  H    0.082857
    69  H    0.308538
    70  H    0.079546
    71  H    0.073096
    72  H    0.085526
    73  H    0.120741
    74  H    0.112133
    75  H    0.300681
    76  H    0.069380
    77  H    0.110892
    78  H    0.115051
    79  H    0.132922
    80  H    0.079936
    81  H    0.095090
    82  H    0.090302
    83  H    0.092076
    84  H    0.074536
    85  H    0.081343
    86  H    0.083629
    87  H    0.072841
    88  H    0.084578
    89  H    0.120121
    90  H    0.114465
    91  H    0.101503
    92  H    0.065539
    93  H    0.072846
    94  H    0.086546
    95  H    0.120473
    96  H    0.124274
    97  H    0.078449
    98  H    0.087050
 Sum of Mulliken charges =  -0.00000

 Dipole moment (field-independent basis, Debye):
    X=             -1.0226    Y=             -0.0499    Z=              0.6496  Tot=              1.2125
 Quadrupole moment (field-independent basis, Debye-Ang):
   XX=           -258.8148   YY=           -247.7464   ZZ=           -261.7895
   XY=              4.2886   XZ=             38.7792   YZ=              1.7547

 Normal termination of Gaussian 16 at Sat Jul 13 18:41:33 2019.
