 Gaussian 16, Revision A.03,
 Gaussian 16:  ES64L-G16RevA.03 25-Dec-2016

 -------------------------------------
 # td=(NStates=1) CAM-B3LYP/6-31G(d,p)
 -------------------------------------

 --
 TD
 --
 Symbolic Z-matrix:
 Charge =  0 Multiplicity = 1

                         Standard orientation:
 ---------------------------------------------------------------------
 Center     Atomic      Atomic             Coordinates (Angstroms)
 Number     Number       Type             X           Y           Z
 ---------------------------------------------------------------------
      1          8           0      -14.171538   -1.876339    0.526687
      2          8           0       14.802988    1.035384    0.158268
      3          6           0      -11.746081    0.230144    1.325244
      4          6           0      -10.880228    0.380147    0.033025
      5          6           0      -12.093579   -1.260132    1.625192
      6          6           0      -12.681231   -2.017100    0.397730
      7          6           0      -11.559006   -0.391250   -1.091798
      8          6           0       11.129189    1.101330    1.107539
      9          6           0      -10.956524    0.886144    2.559739
     10          6           0      -13.074580    1.026336    1.004366
     11          6           0       12.442207    1.643846    0.745608
     12          6           0      -12.321379   -1.478069   -0.830489
     13          6           0       13.493921    0.620669    0.391392
     14          6           0       10.615433    0.088012    0.005953
     15          6           0       -9.479911   -0.041261    0.154400
     16          6           0       13.053706   -0.085457   -0.792319
     17          6           0       11.489182   -0.421403   -0.899209
     18          6           0       10.125615    2.247189    1.379818
     19          6           0       11.089362    0.331983    2.582960
     20          6           0      -11.372412    0.147404   -2.433288
     21          6           0       -8.499472    0.816500   -0.255513
     22          6           0        9.176314   -0.408891    0.067636
     23          6           0       11.233123   -1.262599   -2.061966
     24          6           0       -7.152899    0.491988   -0.117845
     25          6           0        8.764051   -1.633427   -0.097229
     26          6           0       -6.645692   -0.978093    0.216842
     27          6           0        7.450650   -2.151871    0.025121
     28          6           0       -6.210720    1.469263   -0.386012
     29          6           0        7.190989   -3.553070    0.310870
     30          6           0        6.367987   -1.211688   -0.064343
     31          6           0       -4.792718    1.345085   -0.419310
     32          6           0        5.068203   -1.578500   -0.158919
     33          6           0       -3.947307    2.403184   -0.789075
     34          6           0       -2.596866    2.401187   -0.828780
     35          6           0        3.991797   -0.807597   -0.534388
     36          6           0        2.624936   -1.089408   -0.480848
     37          6           0       -1.938096    3.745216   -1.117183
     38          6           0       -1.830347    1.298040   -0.672310
     39          6           0        1.822883    0.133554   -0.674956
     40          6           0        2.093331   -2.357488   -0.098372
     41          6           0       -0.436157    1.249275   -0.700251
     42          6           0        0.381936    0.074094   -0.635721
     43          1           0      -10.826865    1.399245   -0.105527
     44          1           0      -12.663601   -1.328908    2.463700
     45          1           0      -11.097761   -1.586354    1.993392
     46          1           0      -12.427934   -3.132298    0.723124
     47          1           0       -9.816507    0.479151    2.638791
     48          1           0      -10.852651    1.752949    2.440705
     49          1           0      -11.407395    0.602177    3.523927
     50          1           0      -13.579346    0.226739    0.373039
     51          1           0      -13.811247    1.034098    1.921344
     52          1           0      -12.990581    2.064105    0.640872
     53          1           0       12.387117    2.224819   -0.060982
     54          1           0       12.568595    2.089787    1.590287
     55          1           0      -12.909927   -2.015754   -1.652142
     56          1           0       13.549067   -0.046323    1.400558
     57          1           0       -9.209625   -1.051864    0.554583
     58          1           0       13.500862   -1.015891   -1.227098
     59          1           0       13.368506    0.394053   -1.755633
     60          1           0        9.152175    1.897407    1.913688
     61          1           0        9.819653    2.854321    0.504127
     62          1           0       10.685131    2.978521    1.982907
     63          1           0       11.879033   -0.505331    2.727568
     64          1           0       10.270615    0.000668    2.817977
     65          1           0       11.368088    0.977565    3.435735
     66          1           0      -10.184586   -0.089797   -2.868091
     67          1           0      -11.473689    1.187607   -2.394623
     68          1           0      -12.228834   -0.317029   -3.297962
     69          1           0      -14.602091   -3.116770    0.144453
     70          1           0        8.532613    0.259149    0.363519
     71          1           0       -8.845796    1.696237   -0.724806
     72          1           0       11.435383   -2.326041   -1.659983
     73          1           0       10.239635   -1.288456   -2.386614
     74          1           0       11.933324   -1.161933   -2.977217
     75          1           0       15.068299    1.445610    1.095379
     76          1           0        9.444902   -2.484844   -0.178601
     77          1           0       -5.505890   -0.992404    0.251355
     78          1           0       -6.933874   -1.380748    1.216128
     79          1           0       -7.194482   -1.592128   -0.443110
     80          1           0       -6.570758    2.376876   -0.782764
     81          1           0        7.146306   -3.901957    1.420826
     82          1           0        6.441291   -4.051943   -0.356254
     83          1           0        8.039817   -4.120482    0.172084
     84          1           0        6.618940   -0.251875   -0.294595
     85          1           0       -4.349476    0.545740    0.222765
     86          1           0        4.761035   -2.578299    0.008998
     87          1           0       -4.544436    3.188317   -1.028468
     88          1           0        4.175968    0.148025   -0.589894
     89          1           0       -1.303551    3.888075   -2.101671
     90          1           0       -1.309564    4.060700   -0.435468
     91          1           0       -2.864597    4.599220   -1.201679
     92          1           0       -2.241494    0.223002   -0.347078
     93          1           0        2.425283    1.086606   -0.846023
     94          1           0        2.205656   -2.645682    0.964622
     95          1           0        1.036139   -2.462624   -0.286276
     96          1           0        2.569253   -3.160602   -0.643115
     97          1           0       -0.138033    2.351525   -0.640302
     98          1           0       -0.127385   -1.118019   -0.459996
 ---------------------------------------------------------------------

 SCF Done:  E(RCAM-B3LYP) =  -1706.78700694     A.U. after   16 cycles

 Excitation energies and oscillator strengths:

 Excited State   1:      Singlet-A      1.8635 eV  665.31 nm  f=3.1920  <S**2>=0.000
     155 ->158         0.13863
     156 ->157         0.69870
     156 <-157        -0.11185
 This state for optimization and/or second-order correction.
 Total Energy, E(TD-HF/TD-DFT) =  -1706.71852295
 Copying the excited state density for this state as the 1-particle RhoCI density.

 The electronic state is 1-A.
 Alpha  occ. eigenvalues --  -19.23786 -19.22336 -10.31392 -10.30907 -10.29281
 Alpha  occ. eigenvalues --  -10.28488 -10.27993 -10.27671 -10.27459 -10.27165
 Alpha  occ. eigenvalues --  -10.27109 -10.27013 -10.26989 -10.26871 -10.26726
 Alpha  occ. eigenvalues --  -10.26551 -10.26461 -10.26101 -10.26043 -10.25985
 Alpha  occ. eigenvalues --  -10.25899 -10.25864 -10.25848 -10.25529 -10.25516
 Alpha  occ. eigenvalues --  -10.25474 -10.25450 -10.25241 -10.25179 -10.25164
 Alpha  occ. eigenvalues --  -10.25093 -10.25017 -10.24748 -10.24705 -10.24632
 Alpha  occ. eigenvalues --  -10.24526 -10.24258 -10.24050 -10.23922 -10.23862
 Alpha  occ. eigenvalues --  -10.23106 -10.22391  -1.09724  -1.04123  -0.93823
 Alpha  occ. eigenvalues --   -0.93546  -0.92409  -0.92159  -0.90836  -0.90261
 Alpha  occ. eigenvalues --   -0.87536  -0.86589  -0.86011  -0.85706  -0.84547
 Alpha  occ. eigenvalues --   -0.83494  -0.82198  -0.81296  -0.79993  -0.78521
 Alpha  occ. eigenvalues --   -0.77479  -0.77335  -0.76501  -0.76247  -0.76183
 Alpha  occ. eigenvalues --   -0.75775  -0.75724  -0.74679  -0.72319  -0.70397
 Alpha  occ. eigenvalues --   -0.68908  -0.67393  -0.66317  -0.65898  -0.63827
 Alpha  occ. eigenvalues --   -0.63080  -0.62077  -0.62059  -0.61299  -0.60314
 Alpha  occ. eigenvalues --   -0.59340  -0.58933  -0.58328  -0.57281  -0.57035
 Alpha  occ. eigenvalues --   -0.55860  -0.55377  -0.54871  -0.54193  -0.53992
 Alpha  occ. eigenvalues --   -0.53458  -0.52496  -0.52393  -0.51808  -0.51506
 Alpha  occ. eigenvalues --   -0.50198  -0.49959  -0.49326  -0.49157  -0.48849
 Alpha  occ. eigenvalues --   -0.48789  -0.48711  -0.48517  -0.48217  -0.48048
 Alpha  occ. eigenvalues --   -0.47644  -0.47346  -0.47122  -0.46686  -0.46532
 Alpha  occ. eigenvalues --   -0.46413  -0.45946  -0.45492  -0.44942  -0.44756
 Alpha  occ. eigenvalues --   -0.44668  -0.44433  -0.44258  -0.43578  -0.43314
 Alpha  occ. eigenvalues --   -0.43038  -0.42540  -0.42535  -0.42064  -0.41856
 Alpha  occ. eigenvalues --   -0.41834  -0.41437  -0.41327  -0.40823  -0.40675
 Alpha  occ. eigenvalues --   -0.40244  -0.40178  -0.39953  -0.39676  -0.39153
 Alpha  occ. eigenvalues --   -0.38923  -0.38779  -0.38470  -0.38319  -0.38043
 Alpha  occ. eigenvalues --   -0.37653  -0.36962  -0.36583  -0.35912  -0.35330
 Alpha  occ. eigenvalues --   -0.35218  -0.34800  -0.34063  -0.33379  -0.31347
 Alpha  occ. eigenvalues --   -0.31162  -0.28869  -0.28332  -0.26482  -0.22940
 Alpha  occ. eigenvalues --   -0.18115
 Alpha virt. eigenvalues --   -0.06464  -0.01184   0.00831   0.03176   0.05738
 Alpha virt. eigenvalues --    0.07260   0.08661   0.10112   0.10289   0.11852
 Alpha virt. eigenvalues --    0.12444   0.12839   0.13245   0.13727   0.13815

 Mulliken charges:
               1
     1  O   -0.506427
     2  O   -0.553078
     3  C   -0.010349
     4  C   -0.130797
     5  C   -0.174742
     6  C    0.058288
     7  C    0.133515
     8  C   -0.025934
     9  C   -0.280653
    10  C   -0.310712
    11  C   -0.149865
    12  C   -0.050948
    13  C    0.186079
    14  C    0.044957
    15  C   -0.068815
    16  C   -0.239950
    17  C    0.072741
    18  C   -0.308199
    19  C   -0.306700
    20  C   -0.336663
    21  C   -0.098960
    22  C   -0.100153
    23  C   -0.377930
    24  C    0.104619
    25  C   -0.088981
    26  C   -0.366580
    27  C    0.086189
    28  C   -0.137366
    29  C   -0.386248
    30  C   -0.095406
    31  C   -0.074877
    32  C   -0.081131
    33  C   -0.123595
    34  C    0.120281
    35  C   -0.103052
    36  C    0.128480
    37  C   -0.379778
    38  C   -0.098960
    39  C   -0.121896
    40  C   -0.388723
    41  C   -0.088666
    42  C   -0.112972
    43  H    0.092479
    44  H    0.118487
    45  H    0.090135
    46  H    0.086502
    47  H    0.069703
    48  H    0.101594
    49  H    0.096066
    50  H    0.135130
    51  H    0.080747
    52  H    0.091693
    53  H    0.109998
    54  H    0.079745
    55  H    0.072789
    56  H    0.041372
    57  H    0.086939
    58  H    0.106608
    59  H    0.114454
    60  H    0.099295
    61  H    0.102747
    62  H    0.100536
    63  H    0.086996
    64  H    0.117417
    65  H    0.087339
    66  H    0.092478
    67  H    0.124614
    68  H    0.080329
    69  H    0.252650
    70  H    0.070085
    71  H    0.085170
    72  H    0.112151
    73  H    0.130219
    74  H    0.102793
    75  H    0.307735
    76  H    0.072182
    77  H    0.107895
    78  H    0.110262
    79  H    0.131101
    80  H    0.071705
    81  H    0.116023
    82  H    0.121649
    83  H    0.115320
    84  H    0.076070
    85  H    0.084623
    86  H    0.065920
    87  H    0.074605
    88  H    0.054826
    89  H    0.111751
    90  H    0.143283
    91  H    0.079190
    92  H    0.065636
    93  H    0.099093
    94  H    0.132318
    95  H    0.107952
    96  H    0.122684
    97  H    0.076885
    98  H    0.075988
 Sum of Mulliken charges =  -0.00000

 Dipole moment (field-independent basis, Debye):
    X=              0.9970    Y=             -1.7307    Z=              1.3424  Tot=              2.4066
 Quadrupole moment (field-independent basis, Debye-Ang):
   XX=           -282.1078   YY=           -234.9930   ZZ=           -261.3218
   XY=             18.7726   XZ=             24.3175   YZ=             -0.1624

 Normal termination of Gaussian 16 at Sun Jul 14 02:20:55 2019.
