 Gaussian 16, Revision A.03,
 Gaussian 16:  ES64L-G16RevA.03 25-Dec-2016

 -------------------------------------
 # td=(NStates=1) CAM-B3LYP/6-31G(d,p)
 -------------------------------------

 --
 TD
 --
 Symbolic Z-matrix:
 Charge =  0 Multiplicity = 1

                         Standard orientation:
 ---------------------------------------------------------------------
 Center     Atomic      Atomic             Coordinates (Angstroms)
 Number     Number       Type             X           Y           Z
 ---------------------------------------------------------------------
      1          8           0      -14.102862   -2.122181    0.660957
      2          8           0       14.768062    1.205608    0.435376
      3          6           0      -11.628838    0.009316    1.474701
      4          6           0      -10.947267    0.393443    0.141809
      5          6           0      -11.902549   -1.505133    1.547601
      6          6           0      -12.664123   -2.065794    0.407101
      7          6           0      -11.746435   -0.241444   -1.072250
      8          6           0       11.031801    0.853964    1.201399
      9          6           0      -10.793225    0.402594    2.739406
     10          6           0      -13.037266    0.779188    1.568264
     11          6           0       12.341743    1.592682    1.062781
     12          6           0      -12.447496   -1.371778   -0.943571
     13          6           0       13.505150    0.534681    0.479600
     14          6           0       10.707170   -0.071054    0.090897
     15          6           0       -9.491569   -0.031617   -0.003838
     16          6           0       13.140965   -0.060923   -0.765159
     17          6           0       11.658927   -0.533234   -0.780127
     18          6           0       10.031577    2.061010    1.407257
     19          6           0       11.132686    0.139038    2.563109
     20          6           0      -11.515100    0.393719   -2.444388
     21          6           0       -8.499259    0.781267   -0.218711
     22          6           0        9.259813   -0.485892    0.119050
     23          6           0       11.299338   -1.275294   -2.052975
     24          6           0       -7.151438    0.490403   -0.218239
     25          6           0        8.814651   -1.796694   -0.234091
     26          6           0       -6.768304   -0.945636   -0.019178
     27          6           0        7.390798   -2.161825   -0.200361
     28          6           0       -6.183277    1.514958   -0.546113
     29          6           0        7.146574   -3.571187   -0.186140
     30          6           0        6.378884   -1.319643   -0.225470
     31          6           0       -4.783902    1.409248   -0.659821
     32          6           0        4.922866   -1.500032   -0.240202
     33          6           0       -4.003750    2.556553   -0.822006
     34          6           0       -2.626225    2.595400   -0.878452
     35          6           0        3.974653   -0.592299   -0.419305
     36          6           0        2.562995   -0.826590   -0.386358
     37          6           0       -2.011588    4.091529   -0.866291
     38          6           0       -1.747557    1.476242   -0.795174
     39          6           0        1.819893    0.321822   -0.656819
     40          6           0        2.004803   -2.256011   -0.206389
     41          6           0       -0.368882    1.396158   -0.898493
     42          6           0        0.386229    0.360006   -0.565894
     43          1           0      -10.874035    1.470837    0.149068
     44          1           0      -12.407965   -1.922681    2.467645
     45          1           0      -11.002884   -2.135101    1.668237
     46          1           0      -12.473239   -3.059558    0.301430
     47          1           0       -9.899795   -0.026884    2.591655
     48          1           0      -10.630667    1.423030    2.419400
     49          1           0      -11.091091    0.002149    3.972443
     50          1           0      -13.655966    0.522621    0.585818
     51          1           0      -13.328186    0.451605    2.596028
     52          1           0      -12.814060    1.797473    1.833158
     53          1           0       12.261459    2.242808    0.146282
     54          1           0       12.546373    2.139534    1.878442
     55          1           0      -12.746626   -2.088835   -1.779608
     56          1           0       13.649598   -0.277878    1.208163
     57          1           0       -9.351026   -0.985235   -0.011081
     58          1           0       13.824342   -0.873615   -0.867498
     59          1           0       13.517301    0.469895   -1.534850
     60          1           0        8.956417    1.691892    1.589383
     61          1           0        9.962302    2.578215    0.374578
     62          1           0       10.288885    2.642179    2.379892
     63          1           0       11.944960   -0.553179    2.844759
     64          1           0       10.260884   -0.533102    2.765971
     65          1           0       11.325989    0.676083    3.469260
     66          1           0      -10.455177    0.354473   -2.621385
     67          1           0      -11.558009    1.427437   -2.368579
     68          1           0      -12.245170   -0.156503   -3.333857
     69          1           0      -14.371116   -2.094518   -0.362268
     70          1           0        8.406423    0.071559    0.391601
     71          1           0       -8.771474    1.950286   -0.321413
     72          1           0       11.613142   -2.353627   -1.797662
     73          1           0       10.186875   -1.325667   -2.388605
     74          1           0       12.036078   -0.775587   -2.769578
     75          1           0       15.139791    1.404890    1.359363
     76          1           0        9.515770   -2.644826   -0.318295
     77          1           0       -5.573719   -1.302943   -0.364802
     78          1           0       -7.042859   -1.146209    1.141879
     79          1           0       -7.501101   -1.677441   -0.537712
     80          1           0       -6.482868    2.520475   -0.655721
     81          1           0        7.277064   -3.895040    0.869200
     82          1           0        6.225178   -3.913708   -0.802962
     83          1           0        8.020004   -4.193814   -0.805116
     84          1           0        6.548821   -0.233517   -0.453359
     85          1           0       -4.398954    0.506910   -0.371702
     86          1           0        4.663990   -2.548850   -0.056828
     87          1           0       -4.606335    3.411095   -1.054299
     88          1           0        4.233083    0.435721   -0.556706
     89          1           0       -1.810818    4.170111   -2.012972
     90          1           0       -0.987405    4.084127   -0.259746
     91          1           0       -2.869687    4.799383   -0.380517
     92          1           0       -2.185899    0.615578   -0.642667
     93          1           0        2.298805    1.264181   -0.787063
     94          1           0        2.802264   -2.860644    0.498787
     95          1           0        0.901679   -2.364186   -0.107084
     96          1           0        2.293839   -2.761204   -1.139896
     97          1           0        0.177352    2.401889   -0.995147
     98          1           0       -0.224926   -0.736350   -0.797096
 ---------------------------------------------------------------------

 SCF Done:  E(RCAM-B3LYP) =  -1706.89405792     A.U. after   15 cycles

 Excitation energies and oscillator strengths:

 Excited State   1:      Singlet-A      2.2028 eV  562.84 nm  f=2.9374  <S**2>=0.000
     155 ->158         0.14320
     156 ->157         0.69321
 This state for optimization and/or second-order correction.
 Total Energy, E(TD-HF/TD-DFT) =  -1706.81310519
 Copying the excited state density for this state as the 1-particle RhoCI density.

 The electronic state is 1-A.
 Alpha  occ. eigenvalues --  -19.20826 -19.20176 -10.30135 -10.29455 -10.28780
 Alpha  occ. eigenvalues --  -10.28587 -10.28376 -10.28196 -10.28151 -10.28089
 Alpha  occ. eigenvalues --  -10.28071 -10.27738 -10.27658 -10.27521 -10.27264
 Alpha  occ. eigenvalues --  -10.27082 -10.27027 -10.26939 -10.26936 -10.26896
 Alpha  occ. eigenvalues --  -10.26805 -10.26798 -10.26648 -10.26633 -10.26547
 Alpha  occ. eigenvalues --  -10.26492 -10.26481 -10.26397 -10.26336 -10.26095
 Alpha  occ. eigenvalues --  -10.26052 -10.26042 -10.25754 -10.25556 -10.25249
 Alpha  occ. eigenvalues --  -10.25235 -10.24718 -10.24651 -10.24464 -10.24310
 Alpha  occ. eigenvalues --  -10.24021 -10.23908  -1.07598  -1.06411  -0.93771
 Alpha  occ. eigenvalues --   -0.93534  -0.92459  -0.92008  -0.91220  -0.90408
 Alpha  occ. eigenvalues --   -0.88248  -0.87480  -0.86411  -0.85485  -0.84687
 Alpha  occ. eigenvalues --   -0.83321  -0.82225  -0.80412  -0.79927  -0.78349
 Alpha  occ. eigenvalues --   -0.76386  -0.76284  -0.76103  -0.75661  -0.75245
 Alpha  occ. eigenvalues --   -0.75136  -0.74664  -0.74616  -0.73532  -0.70547
 Alpha  occ. eigenvalues --   -0.68590  -0.67587  -0.66748  -0.65552  -0.64302
 Alpha  occ. eigenvalues --   -0.64173  -0.62377  -0.62203  -0.60703  -0.60400
 Alpha  occ. eigenvalues --   -0.59936  -0.58911  -0.58595  -0.57382  -0.56294
 Alpha  occ. eigenvalues --   -0.55635  -0.55101  -0.54671  -0.54564  -0.53107
 Alpha  occ. eigenvalues --   -0.53012  -0.52568  -0.52405  -0.51831  -0.50992
 Alpha  occ. eigenvalues --   -0.50545  -0.50349  -0.49668  -0.49594  -0.49411
 Alpha  occ. eigenvalues --   -0.49025  -0.48683  -0.48168  -0.47611  -0.47465
 Alpha  occ. eigenvalues --   -0.47258  -0.46822  -0.46664  -0.46350  -0.46279
 Alpha  occ. eigenvalues --   -0.46090  -0.46053  -0.45394  -0.45175  -0.45020
 Alpha  occ. eigenvalues --   -0.44467  -0.44133  -0.43969  -0.43793  -0.43375
 Alpha  occ. eigenvalues --   -0.43137  -0.42973  -0.42685  -0.42349  -0.42050
 Alpha  occ. eigenvalues --   -0.41709  -0.41560  -0.41356  -0.41216  -0.40530
 Alpha  occ. eigenvalues --   -0.40475  -0.39800  -0.39789  -0.39480  -0.39092
 Alpha  occ. eigenvalues --   -0.38950  -0.38307  -0.38000  -0.37809  -0.37756
 Alpha  occ. eigenvalues --   -0.37537  -0.37382  -0.36951  -0.36321  -0.35997
 Alpha  occ. eigenvalues --   -0.35221  -0.34799  -0.34309  -0.32174  -0.30877
 Alpha  occ. eigenvalues --   -0.30214  -0.29741  -0.29701  -0.27156  -0.23970
 Alpha  occ. eigenvalues --   -0.19922
 Alpha virt. eigenvalues --   -0.06114  -0.01578   0.02159   0.05104   0.06456
 Alpha virt. eigenvalues --    0.08736   0.09945   0.10768   0.11173   0.11541
 Alpha virt. eigenvalues --    0.11852   0.12325   0.12837   0.13396   0.13511

 Mulliken charges:
               1
     1  O   -0.563459
     2  O   -0.588851
     3  C   -0.014057
     4  C   -0.136325
     5  C   -0.185404
     6  C    0.174136
     7  C    0.103197
     8  C   -0.014672
     9  C   -0.292026
    10  C   -0.280794
    11  C   -0.173846
    12  C   -0.198177
    13  C    0.166636
    14  C    0.079856
    15  C   -0.061806
    16  C   -0.220968
    17  C    0.023605
    18  C   -0.296250
    19  C   -0.314314
    20  C   -0.346610
    21  C   -0.074240
    22  C   -0.107805
    23  C   -0.343760
    24  C    0.119305
    25  C   -0.119856
    26  C   -0.370319
    27  C    0.123165
    28  C   -0.133328
    29  C   -0.386158
    30  C   -0.135978
    31  C   -0.036441
    32  C   -0.097344
    33  C   -0.128358
    34  C    0.056704
    35  C   -0.094124
    36  C    0.133423
    37  C   -0.348567
    38  C   -0.080577
    39  C   -0.139047
    40  C   -0.376471
    41  C   -0.065883
    42  C   -0.089283
    43  H    0.086774
    44  H    0.107486
    45  H    0.085170
    46  H    0.085268
    47  H    0.115533
    48  H    0.096681
    49  H    0.078930
    50  H    0.111708
    51  H    0.105379
    52  H    0.089672
    53  H    0.087218
    54  H    0.083213
    55  H    0.093671
    56  H    0.075111
    57  H    0.068568
    58  H    0.118710
    59  H    0.133093
    60  H    0.087635
    61  H    0.101362
    62  H    0.100139
    63  H    0.091263
    64  H    0.097673
    65  H    0.096742
    66  H    0.128072
    67  H    0.122677
    68  H    0.091925
    69  H    0.297555
    70  H    0.101418
    71  H    0.065231
    72  H    0.107894
    73  H    0.124985
    74  H    0.105861
    75  H    0.312747
    76  H    0.089416
    77  H    0.090129
    78  H    0.111453
    79  H    0.120049
    80  H    0.074644
    81  H    0.133180
    82  H    0.115255
    83  H    0.083162
    84  H    0.068349
    85  H    0.079864
    86  H    0.063889
    87  H    0.089151
    88  H    0.081445
    89  H    0.125914
    90  H    0.113502
    91  H    0.104804
    92  H    0.058499
    93  H    0.089397
    94  H    0.107759
    95  H    0.123189
    96  H    0.135283
    97  H    0.065455
    98  H    0.055919
 Sum of Mulliken charges =  -0.00000

 Dipole moment (field-independent basis, Debye):
    X=              2.7520    Y=             -0.7784    Z=             -0.6526  Tot=              2.9335
 Quadrupole moment (field-independent basis, Debye-Ang):
   XX=           -309.5390   YY=           -249.2273   ZZ=           -259.9617
   XY=            -14.3423   XZ=             41.6646   YZ=              4.1876

 Normal termination of Gaussian 16 at Sat Jul 13 09:57:42 2019.
