 Gaussian 16, Revision A.03,
 Gaussian 16:  ES64L-G16RevA.03 25-Dec-2016

 -------------------------------------
 # td=(NStates=1) CAM-B3LYP/6-31G(d,p)
 -------------------------------------

 --
 TD
 --
 Symbolic Z-matrix:
 Charge =  0 Multiplicity = 1

                         Standard orientation:
 ---------------------------------------------------------------------
 Center     Atomic      Atomic             Coordinates (Angstroms)
 Number     Number       Type             X           Y           Z
 ---------------------------------------------------------------------
      1          8           0      -14.075184   -2.215309    0.380342
      2          8           0       14.844826    0.918702   -0.069379
      3          6           0      -11.838566    0.092141    1.357567
      4          6           0      -11.054907    0.414619   -0.006253
      5          6           0      -11.967086   -1.479323    1.410752
      6          6           0      -12.690579   -2.157393    0.191832
      7          6           0      -11.577294   -0.262739   -1.254773
      8          6           0       11.251396    0.848671    1.093088
      9          6           0      -11.048632    0.496470    2.520433
     10          6           0      -13.230011    0.665002    1.173495
     11          6           0       12.645189    1.543373    0.754281
     12          6           0      -12.331450   -1.407126   -1.124489
     13          6           0       13.499254    0.292909    0.234638
     14          6           0       10.690840   -0.156852    0.022150
     15          6           0       -9.606143    0.047094    0.065528
     16          6           0       12.987810   -0.200900   -1.033718
     17          6           0       11.452945   -0.503327   -1.083333
     18          6           0       10.292168    2.114078    1.187313
     19          6           0       11.204163    0.235331    2.469285
     20          6           0      -11.226752    0.181391   -2.556990
     21          6           0       -8.513722    0.814720    0.008539
     22          6           0        9.308539   -0.490104    0.148144
     23          6           0       10.992902   -1.259236   -2.308467
     24          6           0       -7.173031    0.366881   -0.202202
     25          6           0        8.839117   -1.734899   -0.015952
     26          6           0       -6.606230   -1.067456   -0.058131
     27          6           0        7.411453   -2.190449    0.069325
     28          6           0       -6.270250    1.433118   -0.395139
     29          6           0        7.202635   -3.561905    0.191231
     30          6           0        6.400841   -1.160852   -0.149664
     31          6           0       -4.803740    1.470026   -0.486324
     32          6           0        5.005052   -1.441882   -0.022113
     33          6           0       -4.001857    2.598728   -0.515649
     34          6           0       -2.621800    2.705341   -0.603155
     35          6           0        4.005762   -0.536682   -0.165969
     36          6           0        2.583668   -0.701806   -0.033782
     37          6           0       -2.029075    3.989066   -0.883899
     38          6           0       -1.804993    1.569768   -0.448774
     39          6           0        1.755020    0.333645   -0.246834
     40          6           0        2.152405   -2.159539    0.200786
     41          6           0       -0.457039    1.429712   -0.510581
     42          6           0        0.305064    0.322032   -0.271936
     43          1           0      -10.944052    1.562742   -0.174632
     44          1           0      -12.463637   -1.827900    2.436862
     45          1           0      -10.972024   -1.882797    1.651308
     46          1           0      -12.281887   -3.083647   -0.040442
     47          1           0      -10.037323    0.025725    2.465746
     48          1           0      -10.705237    1.635445    2.482402
     49          1           0      -11.544538    0.552397    3.506332
     50          1           0      -13.839240    0.495618    0.304300
     51          1           0      -13.927397    0.487758    2.071635
     52          1           0      -13.170404    1.894150    1.175723
     53          1           0       12.493219    2.414951    0.162841
     54          1           0       13.132409    1.798778    1.746609
     55          1           0      -12.764172   -1.917791   -1.965091
     56          1           0       13.624364   -0.451483    0.970248
     57          1           0       -9.195334   -0.939476    0.303823
     58          1           0       13.507244   -1.101355   -1.492834
     59          1           0       13.043048    0.585238   -1.710845
     60          1           0        9.275845    2.457755    1.877903
     61          1           0       10.073317    2.681615    0.211965
     62          1           0       10.955386    2.888438    1.862885
     63          1           0       11.813393   -0.598459    2.621306
     64          1           0       10.176475   -0.270628    2.628066
     65          1           0       11.165427    0.951252    3.341191
     66          1           0      -10.190119    0.370767   -2.664308
     67          1           0      -11.581015    1.269670   -2.832680
     68          1           0      -11.703672   -0.289796   -3.322255
     69          1           0      -14.632395   -2.459522   -0.371259
     70          1           0        8.792124    0.458466    0.812458
     71          1           0       -8.560213    1.813790   -0.320738
     72          1           0       11.418418   -2.317655   -2.521215
     73          1           0        9.853460   -1.544963   -1.977205
     74          1           0       11.001186   -0.544303   -3.330171
     75          1           0       15.141272    1.318882    0.706035
     76          1           0        9.712100   -2.523693   -0.524060
     77          1           0       -5.478886   -1.132158   -0.306720
     78          1           0       -6.859714   -1.394252    0.915141
     79          1           0       -7.079652   -1.655989   -0.782526
     80          1           0       -6.644623    2.484203   -0.242308
     81          1           0        6.843534   -3.983927    1.046376
     82          1           0        6.394322   -3.782392   -0.410240
     83          1           0        8.165824   -3.986647   -0.170431
     84          1           0        6.791069   -0.110697   -0.338558
     85          1           0       -4.458157    0.486470   -0.444020
     86          1           0        4.731569   -2.407458    0.174642
     87          1           0       -4.625010    3.425184   -0.377912
     88          1           0        4.387390    0.344989   -0.249612
     89          1           0       -1.566347    3.895378   -2.019648
     90          1           0       -1.187448    4.317652   -0.075700
     91          1           0       -2.763580    4.695906   -1.014081
     92          1           0       -2.416305    0.677497   -0.237837
     93          1           0        2.154197    1.211727   -0.478952
     94          1           0        3.028876   -2.779102    0.768588
     95          1           0        1.039150   -2.076817    1.076548
     96          1           0        1.903299   -2.666988   -1.074649
     97          1           0        0.087943    2.528087   -0.654062
     98          1           0       -0.069004   -0.577661   -0.005203
 ---------------------------------------------------------------------

 SCF Done:  E(RCAM-B3LYP) =  -1706.84666703     A.U. after   15 cycles

 Excitation energies and oscillator strengths:

 Excited State   1:      Singlet-A      2.1663 eV  572.34 nm  f=2.9548  <S**2>=0.000
     155 ->158         0.15918
     156 ->157         0.68879
 This state for optimization and/or second-order correction.
 Total Energy, E(TD-HF/TD-DFT) =  -1706.76705863
 Copying the excited state density for this state as the 1-particle RhoCI density.

 The electronic state is 1-A.
 Alpha  occ. eigenvalues --  -19.20934 -19.19418 -10.31856 -10.30798 -10.30689
 Alpha  occ. eigenvalues --  -10.29270 -10.28213 -10.28125 -10.27855 -10.27811
 Alpha  occ. eigenvalues --  -10.27802 -10.27792 -10.27712 -10.27543 -10.27129
 Alpha  occ. eigenvalues --  -10.27073 -10.26911 -10.26891 -10.26839 -10.26794
 Alpha  occ. eigenvalues --  -10.26693 -10.26625 -10.26609 -10.26385 -10.26266
 Alpha  occ. eigenvalues --  -10.26175 -10.26085 -10.25824 -10.25784 -10.25619
 Alpha  occ. eigenvalues --  -10.25213 -10.25194 -10.25169 -10.25127 -10.25051
 Alpha  occ. eigenvalues --  -10.24924 -10.24856 -10.24731 -10.24730 -10.24425
 Alpha  occ. eigenvalues --  -10.24356 -10.23820  -1.09457  -1.07121  -0.93625
 Alpha  occ. eigenvalues --   -0.93282  -0.92445  -0.91738  -0.90620  -0.90254
 Alpha  occ. eigenvalues --   -0.87644  -0.87456  -0.86592  -0.85766  -0.85034
 Alpha  occ. eigenvalues --   -0.83490  -0.82200  -0.80913  -0.80250  -0.78147
 Alpha  occ. eigenvalues --   -0.77627  -0.76297  -0.76225  -0.75685  -0.75234
 Alpha  occ. eigenvalues --   -0.74418  -0.74226  -0.73708  -0.72880  -0.70457
 Alpha  occ. eigenvalues --   -0.68841  -0.68222  -0.66628  -0.65114  -0.63542
 Alpha  occ. eigenvalues --   -0.63132  -0.62991  -0.62299  -0.60352  -0.60097
 Alpha  occ. eigenvalues --   -0.59828  -0.59411  -0.58566  -0.57301  -0.56537
 Alpha  occ. eigenvalues --   -0.55886  -0.55166  -0.54678  -0.54462  -0.53545
 Alpha  occ. eigenvalues --   -0.53280  -0.53146  -0.52341  -0.51617  -0.51159
 Alpha  occ. eigenvalues --   -0.50758  -0.50333  -0.50071  -0.49991  -0.49602
 Alpha  occ. eigenvalues --   -0.49175  -0.48586  -0.48212  -0.48144  -0.48014
 Alpha  occ. eigenvalues --   -0.47963  -0.47379  -0.46878  -0.46617  -0.46110
 Alpha  occ. eigenvalues --   -0.45919  -0.45522  -0.45386  -0.45236  -0.44114
 Alpha  occ. eigenvalues --   -0.43861  -0.43430  -0.43365  -0.43141  -0.42965
 Alpha  occ. eigenvalues --   -0.42783  -0.42741  -0.42493  -0.41885  -0.41542
 Alpha  occ. eigenvalues --   -0.41268  -0.40958  -0.40816  -0.40494  -0.40471
 Alpha  occ. eigenvalues --   -0.40021  -0.39946  -0.39493  -0.39226  -0.38800
 Alpha  occ. eigenvalues --   -0.38748  -0.38165  -0.38026  -0.37699  -0.37661
 Alpha  occ. eigenvalues --   -0.37599  -0.37425  -0.36703  -0.36427  -0.35436
 Alpha  occ. eigenvalues --   -0.35380  -0.34705  -0.33985  -0.31976  -0.31697
 Alpha  occ. eigenvalues --   -0.30966  -0.28662  -0.28215  -0.26693  -0.23380
 Alpha  occ. eigenvalues --   -0.19503
 Alpha virt. eigenvalues --   -0.05760  -0.01281   0.02556   0.05279   0.06577
 Alpha virt. eigenvalues --    0.08414   0.08780   0.10224   0.11298   0.11893
 Alpha virt. eigenvalues --    0.12481   0.12637   0.12792   0.13357   0.13707

 Mulliken charges:
               1
     1  O   -0.550762
     2  O   -0.575384
     3  C    0.055723
     4  C   -0.148137
     5  C   -0.186590
     6  C    0.177592
     7  C    0.166908
     8  C   -0.017739
     9  C   -0.312414
    10  C   -0.283734
    11  C   -0.189436
    12  C   -0.180953
    13  C    0.136792
    14  C    0.069100
    15  C   -0.091681
    16  C   -0.187475
    17  C    0.032016
    18  C   -0.329930
    19  C   -0.304297
    20  C   -0.368973
    21  C   -0.088545
    22  C   -0.090965
    23  C   -0.357444
    24  C    0.090151
    25  C   -0.147778
    26  C   -0.371770
    27  C    0.084723
    28  C   -0.156993
    29  C   -0.378455
    30  C   -0.117207
    31  C   -0.044705
    32  C   -0.078928
    33  C   -0.144792
    34  C    0.131036
    35  C   -0.075460
    36  C    0.112003
    37  C   -0.372745
    38  C   -0.098535
    39  C   -0.096101
    40  C   -0.310865
    41  C   -0.076862
    42  C   -0.075409
    43  H    0.090416
    44  H    0.089264
    45  H    0.094510
    46  H    0.091938
    47  H    0.111561
    48  H    0.078343
    49  H    0.112128
    50  H    0.129033
    51  H    0.093386
    52  H    0.050110
    53  H    0.125402
    54  H    0.088593
    55  H    0.066591
    56  H    0.102985
    57  H    0.074582
    58  H    0.104704
    59  H    0.132577
    60  H    0.081766
    61  H    0.108427
    62  H    0.076031
    63  H    0.108404
    64  H    0.102743
    65  H    0.100998
    66  H    0.130020
    67  H    0.084933
    68  H    0.121257
    69  H    0.308509
    70  H    0.096315
    71  H    0.077428
    72  H    0.110718
    73  H    0.103780
    74  H    0.096916
    75  H    0.293030
    76  H    0.077391
    77  H    0.111674
    78  H    0.135377
    79  H    0.132139
    80  H    0.070184
    81  H    0.134757
    82  H    0.130139
    83  H    0.112094
    84  H    0.092640
    85  H    0.063405
    86  H    0.054511
    87  H    0.078944
    88  H    0.057368
    89  H    0.106716
    90  H    0.111585
    91  H    0.119126
    92  H    0.069271
    93  H    0.067540
    94  H    0.109787
    95  H    0.060352
    96  H    0.084683
    97  H    0.064917
    98  H    0.073019
 Sum of Mulliken charges =  -0.00000

 Dipole moment (field-independent basis, Debye):
    X=             -1.0884    Y=             -0.7156    Z=              0.1790  Tot=              1.3148
 Quadrupole moment (field-independent basis, Debye-Ang):
   XX=           -276.8465   YY=           -244.5317   ZZ=           -260.6672
   XY=              5.0895   XZ=             41.5607   YZ=              3.9780

 Normal termination of Gaussian 16 at Sat Jul 13 22:55:25 2019.
