 Gaussian 16, Revision A.03,
 Gaussian 16:  ES64L-G16RevA.03 25-Dec-2016

 -------------------------------------
 # td=(NStates=1) CAM-B3LYP/6-31G(d,p)
 -------------------------------------

 --
 TD
 --
 Symbolic Z-matrix:
 Charge =  0 Multiplicity = 1

                         Standard orientation:
 ---------------------------------------------------------------------
 Center     Atomic      Atomic             Coordinates (Angstroms)
 Number     Number       Type             X           Y           Z
 ---------------------------------------------------------------------
      1          8           0      -14.010623   -2.152424    0.730749
      2          8           0       14.948148    0.506562    0.188601
      3          6           0      -11.697039   -0.060524    1.290835
      4          6           0      -10.995310    0.249690   -0.068630
      5          6           0      -11.829404   -1.588229    1.419244
      6          6           0      -12.613219   -2.308053    0.343686
      7          6           0      -11.643714   -0.527793   -1.238772
      8          6           0       11.238162    0.994982    1.033471
      9          6           0      -10.968284    0.505855    2.501736
     10          6           0      -13.184815    0.529889    1.327411
     11          6           0       12.680229    1.353290    0.773597
     12          6           0      -12.408450   -1.544453   -0.976609
     13          6           0       13.577477    0.190553    0.466666
     14          6           0       10.682780   -0.084833    0.021802
     15          6           0       -9.510169   -0.057487   -0.064580
     16          6           0       13.122829   -0.453280   -0.866360
     17          6           0       11.604468   -0.569954   -0.938782
     18          6           0       10.438713    2.304209    0.901354
     19          6           0       11.121898    0.285216    2.450067
     20          6           0      -11.479117    0.066535   -2.642683
     21          6           0       -8.517382    0.795116   -0.121416
     22          6           0        9.211537   -0.409845    0.100457
     23          6           0       11.229918   -1.519513   -2.004738
     24          6           0       -7.146433    0.522578   -0.251993
     25          6           0        8.665069   -1.672542   -0.095896
     26          6           0       -6.695136   -0.910826   -0.060378
     27          6           0        7.348090   -2.044271   -0.146530
     28          6           0       -6.252869    1.550018   -0.337280
     29          6           0        7.014390   -3.501977    0.175460
     30          6           0        6.347059   -1.120229   -0.207727
     31          6           0       -4.824653    1.548037   -0.307837
     32          6           0        4.940686   -1.427963   -0.160437
     33          6           0       -4.131651    2.649238   -0.512971
     34          6           0       -2.757511    2.777782   -0.554493
     35          6           0        3.972359   -0.398528   -0.233112
     36          6           0        2.574815   -0.587099   -0.256686
     37          6           0       -2.125533    4.140164   -0.756416
     38          6           0       -1.826089    1.749880   -0.529218
     39          6           0        1.767476    0.540208   -0.443540
     40          6           0        2.102095   -1.964678   -0.097027
     41          6           0       -0.483447    1.771797   -0.545723
     42          6           0        0.324436    0.552116   -0.547495
     43          1           0      -11.099343    1.281776   -0.288764
     44          1           0      -12.210238   -1.932003    2.220048
     45          1           0      -10.807814   -1.927333    1.526140
     46          1           0      -12.135876   -3.343529    0.317432
     47          1           0       -9.802970    0.137725    2.674284
     48          1           0      -10.865359    1.518571    2.642563
     49          1           0      -11.653715    0.444888    3.409065
     50          1           0      -13.675906    0.567883    0.352471
     51          1           0      -13.791266   -0.014989    2.120045
     52          1           0      -13.060660    1.605153    1.440636
     53          1           0       12.870145    2.146560   -0.050245
     54          1           0       12.939445    1.950830    1.765094
     55          1           0      -12.896672   -2.007065   -2.005915
     56          1           0       13.577285   -0.648558    1.215361
     57          1           0       -9.182068   -1.158320   -0.188287
     58          1           0       13.418275   -1.664736   -0.985615
     59          1           0       13.751463   -0.176404   -1.799087
     60          1           0        9.503018    2.022178    1.455259
     61          1           0       10.523430    2.621257   -0.216174
     62          1           0       10.995994    3.296825    1.567993
     63          1           0       11.591558   -0.641392    2.710828
     64          1           0        9.932579   -0.006107    2.743364
     65          1           0       11.597957    0.946700    3.295854
     66          1           0      -10.408684    0.415199   -2.786039
     67          1           0      -12.140243    0.950545   -2.524184
     68          1           0      -11.901939   -0.638384   -3.398724
     69          1           0      -14.581379   -2.419877   -0.163379
     70          1           0        8.391894    0.287515    0.473811
     71          1           0       -8.865893    1.819043   -0.232202
     72          1           0       11.598029   -2.521455   -1.572312
     73          1           0       10.022863   -1.672879   -2.231973
     74          1           0       11.605561   -1.088469   -2.919350
     75          1           0       15.544176    0.904420    0.917101
     76          1           0        9.510798   -2.297715   -0.210573
     77          1           0       -5.635221   -1.054806    0.010552
     78          1           0       -7.233046   -1.519384    0.755331
     79          1           0       -6.997551   -1.344623   -0.873493
     80          1           0       -6.760228    2.559452   -0.484843
     81          1           0        6.777397   -3.611191    1.246760
     82          1           0        6.386075   -3.950746   -0.473978
     83          1           0        7.999631   -4.049831    0.146814
     84          1           0        6.580168   -0.025843   -0.237365
     85          1           0       -4.198132    0.594460   -0.233286
     86          1           0        4.539432   -2.470649    0.090296
     87          1           0       -4.581521    3.693546   -0.520721
     88          1           0        4.289250    0.630196   -0.424559
     89          1           0       -1.382045    4.208204   -1.663927
     90          1           0       -1.533091    4.434177    0.091775
     91          1           0       -2.847596    4.901277   -1.043529
     92          1           0       -2.203992    0.782719   -0.507200
     93          1           0        2.160036    1.431187   -0.459243
     94          1           0        2.393112   -2.285443    0.917317
     95          1           0        1.046064   -1.969232   -0.004667
     96          1           0        2.330401   -2.669803   -0.679753
     97          1           0        0.111851    2.616992   -0.575034
     98          1           0       -0.281191   -0.442067   -0.737322
 ---------------------------------------------------------------------

 SCF Done:  E(RCAM-B3LYP) =  -1706.96335571     A.U. after   15 cycles

 Excitation energies and oscillator strengths:

 Excited State   1:      Singlet-A      1.9827 eV  625.33 nm  f=3.1529  <S**2>=0.000
     155 ->158         0.14713
     156 ->157         0.69488
 This state for optimization and/or second-order correction.
 Total Energy, E(TD-HF/TD-DFT) =  -1706.89049311
 Copying the excited state density for this state as the 1-particle RhoCI density.

 The electronic state is 1-A.
 Alpha  occ. eigenvalues --  -19.22394 -19.20867 -10.31444 -10.31161 -10.28153
 Alpha  occ. eigenvalues --  -10.28140 -10.27674 -10.27614 -10.27548 -10.27402
 Alpha  occ. eigenvalues --  -10.27355 -10.27256 -10.26950 -10.26906 -10.26743
 Alpha  occ. eigenvalues --  -10.26714 -10.26502 -10.26484 -10.26449 -10.26419
 Alpha  occ. eigenvalues --  -10.26376 -10.26317 -10.26261 -10.26240 -10.26193
 Alpha  occ. eigenvalues --  -10.26099 -10.26072 -10.26008 -10.25821 -10.25762
 Alpha  occ. eigenvalues --  -10.25734 -10.25467 -10.25424 -10.24983 -10.24893
 Alpha  occ. eigenvalues --  -10.24766 -10.24641 -10.24526 -10.24313 -10.23509
 Alpha  occ. eigenvalues --  -10.23497 -10.22433  -1.07284  -1.06840  -0.93303
 Alpha  occ. eigenvalues --   -0.92825  -0.92554  -0.91956  -0.90996  -0.90650
 Alpha  occ. eigenvalues --   -0.87436  -0.86702  -0.86393  -0.85064  -0.84259
 Alpha  occ. eigenvalues --   -0.82961  -0.82053  -0.80814  -0.79943  -0.79766
 Alpha  occ. eigenvalues --   -0.77403  -0.76729  -0.76127  -0.75314  -0.75195
 Alpha  occ. eigenvalues --   -0.74802  -0.74270  -0.73891  -0.72751  -0.70602
 Alpha  occ. eigenvalues --   -0.68792  -0.67638  -0.66418  -0.64890  -0.63215
 Alpha  occ. eigenvalues --   -0.62720  -0.62427  -0.61947  -0.61004  -0.59767
 Alpha  occ. eigenvalues --   -0.59591  -0.58598  -0.57802  -0.57372  -0.56505
 Alpha  occ. eigenvalues --   -0.55518  -0.55155  -0.54516  -0.53992  -0.53735
 Alpha  occ. eigenvalues --   -0.52923  -0.52653  -0.52309  -0.52264  -0.51060
 Alpha  occ. eigenvalues --   -0.50808  -0.50356  -0.50219  -0.49813  -0.49600
 Alpha  occ. eigenvalues --   -0.49081  -0.48812  -0.48401  -0.48215  -0.48022
 Alpha  occ. eigenvalues --   -0.47594  -0.47104  -0.46379  -0.45790  -0.45529
 Alpha  occ. eigenvalues --   -0.45473  -0.45190  -0.44774  -0.44626  -0.44174
 Alpha  occ. eigenvalues --   -0.43923  -0.43704  -0.43585  -0.43220  -0.43058
 Alpha  occ. eigenvalues --   -0.42830  -0.42771  -0.42410  -0.42167  -0.41874
 Alpha  occ. eigenvalues --   -0.41657  -0.41335  -0.40817  -0.40611  -0.40375
 Alpha  occ. eigenvalues --   -0.40245  -0.39746  -0.39471  -0.39275  -0.39140
 Alpha  occ. eigenvalues --   -0.38947  -0.38919  -0.38637  -0.38335  -0.37825
 Alpha  occ. eigenvalues --   -0.37425  -0.37194  -0.36222  -0.36085  -0.35460
 Alpha  occ. eigenvalues --   -0.35064  -0.34421  -0.33975  -0.32465  -0.32162
 Alpha  occ. eigenvalues --   -0.31954  -0.29962  -0.28912  -0.26683  -0.23297
 Alpha  occ. eigenvalues --   -0.18870
 Alpha virt. eigenvalues --   -0.06416  -0.01209   0.02727   0.05909   0.07570
 Alpha virt. eigenvalues --    0.08889   0.11102   0.11245   0.11928   0.12281
 Alpha virt. eigenvalues --    0.12593   0.13365   0.13459   0.13526   0.14378

 Mulliken charges:
               1
     1  O   -0.549068
     2  O   -0.592128
     3  C    0.036804
     4  C   -0.141322
     5  C   -0.160497
     6  C    0.136131
     7  C    0.112984
     8  C   -0.005156
     9  C   -0.309147
    10  C   -0.298405
    11  C   -0.185579
    12  C   -0.138682
    13  C    0.203238
    14  C    0.043239
    15  C   -0.081715
    16  C   -0.218201
    17  C    0.046271
    18  C   -0.270567
    19  C   -0.303284
    20  C   -0.346535
    21  C   -0.084480
    22  C   -0.109628
    23  C   -0.354339
    24  C    0.111850
    25  C   -0.115283
    26  C   -0.375784
    27  C    0.091206
    28  C   -0.140710
    29  C   -0.368378
    30  C   -0.117024
    31  C   -0.078363
    32  C   -0.100634
    33  C   -0.090523
    34  C    0.094039
    35  C   -0.120708
    36  C    0.120470
    37  C   -0.384664
    38  C   -0.101304
    39  C   -0.110073
    40  C   -0.376036
    41  C   -0.069795
    42  C   -0.114736
    43  H    0.084471
    44  H    0.108518
    45  H    0.086905
    46  H    0.089980
    47  H    0.082724
    48  H    0.109003
    49  H    0.091344
    50  H    0.100841
    51  H    0.117961
    52  H    0.079426
    53  H    0.097112
    54  H    0.074600
    55  H    0.032526
    56  H    0.086499
    57  H    0.072132
    58  H    0.076018
    59  H    0.129082
    60  H    0.110552
    61  H    0.116907
    62  H    0.052690
    63  H    0.121751
    64  H    0.076627
    65  H    0.079168
    66  H    0.119590
    67  H    0.121435
    68  H    0.111324
    69  H    0.307618
    70  H    0.080944
    71  H    0.069599
    72  H    0.114870
    73  H    0.097304
    74  H    0.120374
    75  H    0.306252
    76  H    0.081865
    77  H    0.108019
    78  H    0.110187
    79  H    0.140330
    80  H    0.076550
    81  H    0.129325
    82  H    0.128479
    83  H    0.099887
    84  H    0.086841
    85  H    0.091828
    86  H    0.089875
    87  H    0.078272
    88  H    0.078701
    89  H    0.104910
    90  H    0.129532
    91  H    0.103516
    92  H    0.061639
    93  H    0.071180
    94  H    0.120542
    95  H    0.106043
    96  H    0.134683
    97  H    0.078427
    98  H    0.079735
 Sum of Mulliken charges =  -0.00000

 Dipole moment (field-independent basis, Debye):
    X=              0.8706    Y=             -0.7209    Z=             -0.3005  Tot=              1.1696
 Quadrupole moment (field-independent basis, Debye-Ang):
   XX=           -260.0947   YY=           -244.6055   ZZ=           -263.8434
   XY=              2.3112   XZ=             38.9191   YZ=              1.5917

 Normal termination of Gaussian 16 at Sat Jul 13 04:33:01 2019.
