 Gaussian 16, Revision A.03,
 Gaussian 16:  ES64L-G16RevA.03 25-Dec-2016

 -------------------------------------
 # td=(NStates=1) CAM-B3LYP/6-31G(d,p)
 -------------------------------------

 --
 TD
 --
 Symbolic Z-matrix:
 Charge =  0 Multiplicity = 1

                         Standard orientation:
 ---------------------------------------------------------------------
 Center     Atomic      Atomic             Coordinates (Angstroms)
 Number     Number       Type             X           Y           Z
 ---------------------------------------------------------------------
      1          8           0      -14.172333   -1.866583    0.721968
      2          8           0       14.651175    1.239706    0.263936
      3          6           0      -11.704548    0.092216    1.392997
      4          6           0      -10.921951    0.399682    0.047744
      5          6           0      -12.001604   -1.410967    1.509716
      6          6           0      -12.765406   -2.194411    0.323885
      7          6           0      -11.604714   -0.318169   -1.125864
      8          6           0       11.004166    1.040339    1.201304
      9          6           0      -10.852259    0.576649    2.575151
     10          6           0      -12.985544    0.843242    1.393079
     11          6           0       12.309497    1.573479    0.944046
     12          6           0      -12.530821   -1.354538   -0.949221
     13          6           0       13.380627    0.641311    0.560098
     14          6           0       10.638641   -0.013623    0.188164
     15          6           0       -9.534966   -0.017476    0.085145
     16          6           0       12.928231   -0.045959   -0.815791
     17          6           0       11.532619   -0.572176   -0.732739
     18          6           0        9.928880    2.185567    1.137046
     19          6           0       10.954788    0.377118    2.602329
     20          6           0      -11.242601    0.246853   -2.502206
     21          6           0       -8.410673    0.739258   -0.106134
     22          6           0        9.341275   -0.592447    0.278041
     23          6           0       11.302603   -1.396093   -1.979027
     24          6           0       -7.062833    0.455600   -0.089217
     25          6           0        8.916202   -1.898614   -0.096336
     26          6           0       -6.612108   -0.967688    0.206010
     27          6           0        7.509992   -2.198966   -0.198661
     28          6           0       -6.237254    1.443935   -0.339591
     29          6           0        7.074528   -3.689966   -0.053830
     30          6           0        6.501533   -1.236198   -0.347837
     31          6           0       -4.813507    1.361753   -0.508622
     32          6           0        5.151656   -1.606594   -0.269225
     33          6           0       -3.994994    2.479869   -0.743674
     34          6           0       -2.595075    2.534559   -0.911816
     35          6           0        4.119667   -0.616213   -0.501854
     36          6           0        2.695173   -0.861999   -0.435558
     37          6           0       -1.921175    3.899306   -1.141858
     38          6           0       -1.834354    1.398396   -0.804991
     39          6           0        1.846404    0.193577   -0.698469
     40          6           0        2.162961   -2.192576   -0.087294
     41          6           0       -0.399918    1.334551   -0.818090
     42          6           0        0.418178    0.224869   -0.669703
     43          1           0      -11.043045    1.474119   -0.195893
     44          1           0      -12.382176   -1.472364    2.407957
     45          1           0      -10.831777   -1.843657    1.523830
     46          1           0      -12.561237   -3.143716    0.046279
     47          1           0       -9.856267    0.123377    2.729707
     48          1           0      -10.681942    1.613707    2.405621
     49          1           0      -11.276687    0.425093    3.593062
     50          1           0      -13.470354    0.788968    0.318950
     51          1           0      -13.739355    0.444418    2.259355
     52          1           0      -12.790389    1.871179    1.754495
     53          1           0       12.317069    2.325672    0.153921
     54          1           0       12.980473    2.388132    1.795718
     55          1           0      -12.909008   -1.730676   -1.894839
     56          1           0       13.431688   -0.266133    1.302591
     57          1           0       -9.291824   -1.035266    0.379123
     58          1           0       13.616984   -0.701069   -1.003920
     59          1           0       12.945061    0.963150   -1.472936
     60          1           0        9.091798    1.866890    1.732535
     61          1           0        9.760795    2.504269   -0.034952
     62          1           0       10.176398    2.954807    1.849080
     63          1           0       11.899038   -0.313092    2.847148
     64          1           0       10.163966   -0.289708    2.809868
     65          1           0       11.015781    1.185423    3.453870
     66          1           0      -10.253862    0.017754   -2.656229
     67          1           0      -11.465683    1.274245   -2.604634
     68          1           0      -12.082898   -0.003369   -3.390593
     69          1           0      -14.732275   -2.111807   -0.025096
     70          1           0        8.363879   -0.062739    0.704335
     71          1           0       -8.756075    1.748955   -0.254974
     72          1           0       11.559545   -2.548118   -1.721272
     73          1           0       10.281254   -1.580235   -2.191645
     74          1           0       11.881606   -1.052174   -2.881253
     75          1           0       14.954773    1.671970    1.091761
     76          1           0        9.669061   -2.675538   -0.182954
     77          1           0       -5.580618   -1.401437    0.027269
     78          1           0       -6.653298   -1.293002    1.301834
     79          1           0       -7.537119   -1.542961   -0.320768
     80          1           0       -6.845752    2.417244   -0.543677
     81          1           0        6.796901   -3.976573    0.913022
     82          1           0        6.316890   -4.077432   -0.698351
     83          1           0        8.000653   -4.312117    0.083604
     84          1           0        6.540978   -0.204399   -0.431677
     85          1           0       -4.365952    0.450931   -0.584457
     86          1           0        4.972895   -2.703959   -0.055055
     87          1           0       -4.383095    3.327956   -0.813552
     88          1           0        4.376130    0.494777   -0.632176
     89          1           0       -1.139011    3.720717   -2.031254
     90          1           0       -1.416566    4.322583   -0.165668
     91          1           0       -2.520278    4.793747   -1.426572
     92          1           0       -2.583248    0.563794   -0.322385
     93          1           0        2.294379    1.060773   -0.909942
     94          1           0        2.610092   -2.904148    0.772074
     95          1           0        1.021132   -2.138672    0.479970
     96          1           0        2.161677   -2.911951   -0.995128
     97          1           0        0.090802    2.254957   -1.043519
     98          1           0       -0.120538   -0.883015   -0.241715
 ---------------------------------------------------------------------

 SCF Done:  E(RCAM-B3LYP) =  -1706.88855356     A.U. after   15 cycles

 Excitation energies and oscillator strengths:

 Excited State   1:      Singlet-A      2.0788 eV  596.43 nm  f=3.1274  <S**2>=0.000
     155 ->158        -0.17496
     156 ->157         0.68425
 This state for optimization and/or second-order correction.
 Total Energy, E(TD-HF/TD-DFT) =  -1706.81216044
 Copying the excited state density for this state as the 1-particle RhoCI density.

 The electronic state is 1-A.
 Alpha  occ. eigenvalues --  -19.22060 -19.20676 -10.31565 -10.30866 -10.28278
 Alpha  occ. eigenvalues --  -10.28187 -10.28129 -10.28082 -10.28012 -10.27717
 Alpha  occ. eigenvalues --  -10.27644 -10.27642 -10.27559 -10.27364 -10.27260
 Alpha  occ. eigenvalues --  -10.27084 -10.27080 -10.27047 -10.26811 -10.26679
 Alpha  occ. eigenvalues --  -10.26638 -10.26540 -10.26532 -10.26495 -10.26477
 Alpha  occ. eigenvalues --  -10.26373 -10.26197 -10.26169 -10.26069 -10.26027
 Alpha  occ. eigenvalues --  -10.25762 -10.25548 -10.25516 -10.25405 -10.25383
 Alpha  occ. eigenvalues --  -10.25378 -10.25162 -10.25013 -10.24951 -10.24736
 Alpha  occ. eigenvalues --  -10.24435 -10.23871  -1.09216  -1.07172  -0.94894
 Alpha  occ. eigenvalues --   -0.93596  -0.92180  -0.91439  -0.90742  -0.89902
 Alpha  occ. eigenvalues --   -0.87676  -0.86563  -0.86137  -0.85306  -0.84298
 Alpha  occ. eigenvalues --   -0.82719  -0.81704  -0.80146  -0.79881  -0.77477
 Alpha  occ. eigenvalues --   -0.76941  -0.76286  -0.75896  -0.75888  -0.75693
 Alpha  occ. eigenvalues --   -0.75036  -0.74986  -0.74482  -0.72847  -0.70758
 Alpha  occ. eigenvalues --   -0.69613  -0.68908  -0.66612  -0.65291  -0.64111
 Alpha  occ. eigenvalues --   -0.63507  -0.61982  -0.61874  -0.60760  -0.60197
 Alpha  occ. eigenvalues --   -0.59414  -0.58615  -0.57716  -0.57056  -0.56311
 Alpha  occ. eigenvalues --   -0.56190  -0.55463  -0.55002  -0.54273  -0.53811
 Alpha  occ. eigenvalues --   -0.53697  -0.52722  -0.52179  -0.52098  -0.51410
 Alpha  occ. eigenvalues --   -0.50913  -0.50440  -0.49828  -0.49270  -0.48973
 Alpha  occ. eigenvalues --   -0.48587  -0.48320  -0.48184  -0.48009  -0.47550
 Alpha  occ. eigenvalues --   -0.47238  -0.47081  -0.46589  -0.46390  -0.46003
 Alpha  occ. eigenvalues --   -0.45496  -0.45344  -0.44848  -0.44509  -0.44389
 Alpha  occ. eigenvalues --   -0.44081  -0.43812  -0.43566  -0.43201  -0.42930
 Alpha  occ. eigenvalues --   -0.42760  -0.42688  -0.42460  -0.42263  -0.41592
 Alpha  occ. eigenvalues --   -0.41251  -0.41130  -0.40976  -0.40644  -0.40362
 Alpha  occ. eigenvalues --   -0.40160  -0.40032  -0.39649  -0.39266  -0.39162
 Alpha  occ. eigenvalues --   -0.39001  -0.38737  -0.38657  -0.38509  -0.37888
 Alpha  occ. eigenvalues --   -0.37348  -0.37006  -0.36285  -0.36224  -0.35227
 Alpha  occ. eigenvalues --   -0.34650  -0.34250  -0.33394  -0.32834  -0.32806
 Alpha  occ. eigenvalues --   -0.31710  -0.29253  -0.28515  -0.26574  -0.23007
 Alpha  occ. eigenvalues --   -0.19298
 Alpha virt. eigenvalues --   -0.05956  -0.01980   0.02125   0.04914   0.06496
 Alpha virt. eigenvalues --    0.08469   0.09990   0.10582   0.11579   0.12320
 Alpha virt. eigenvalues --    0.13054   0.13369   0.13578   0.13674   0.13931

 Mulliken charges:
               1
     1  O   -0.545028
     2  O   -0.555941
     3  C    0.021541
     4  C   -0.139129
     5  C   -0.126368
     6  C    0.125414
     7  C    0.077728
     8  C    0.009761
     9  C   -0.313322
    10  C   -0.272589
    11  C   -0.146030
    12  C   -0.142003
    13  C    0.143697
    14  C    0.074284
    15  C   -0.083498
    16  C   -0.205081
    17  C    0.046335
    18  C   -0.302357
    19  C   -0.306275
    20  C   -0.346710
    21  C   -0.117601
    22  C   -0.119146
    23  C   -0.358658
    24  C    0.188518
    25  C   -0.129434
    26  C   -0.377883
    27  C    0.065321
    28  C   -0.142255
    29  C   -0.393942
    30  C   -0.086758
    31  C   -0.087975
    32  C   -0.083535
    33  C   -0.066745
    34  C    0.105339
    35  C   -0.159506
    36  C    0.159430
    37  C   -0.374569
    38  C   -0.115732
    39  C   -0.114809
    40  C   -0.372285
    41  C   -0.108813
    42  C   -0.067629
    43  H    0.092003
    44  H    0.111258
    45  H    0.044691
    46  H    0.109022
    47  H    0.103129
    48  H    0.106124
    49  H    0.095905
    50  H    0.101104
    51  H    0.086300
    52  H    0.082714
    53  H    0.108448
    54  H    0.010556
    55  H    0.072147
    56  H    0.065716
    57  H    0.079276
    58  H    0.115318
    59  H    0.107157
    60  H    0.110727
    61  H    0.101970
    62  H    0.107990
    63  H    0.086851
    64  H    0.123050
    65  H    0.085895
    66  H    0.140463
    67  H    0.122211
    68  H    0.078048
    69  H    0.296832
    70  H    0.089334
    71  H    0.068652
    72  H    0.095317
    73  H    0.133999
    74  H    0.121578
    75  H    0.305771
    76  H    0.089419
    77  H    0.117652
    78  H    0.116755
    79  H    0.096444
    80  H    0.077341
    81  H    0.133897
    82  H    0.131552
    83  H    0.097531
    84  H    0.082895
    85  H    0.086892
    86  H    0.088665
    87  H    0.048448
    88  H    0.085907
    89  H    0.109905
    90  H    0.115710
    91  H    0.110915
    92  H    0.071021
    93  H    0.069625
    94  H    0.103178
    95  H    0.084449
    96  H    0.122906
    97  H    0.088811
    98  H    0.054760
 Sum of Mulliken charges =  -0.00000

 Dipole moment (field-independent basis, Debye):
    X=              1.2737    Y=             -0.5517    Z=              0.2752  Tot=              1.4150
 Quadrupole moment (field-independent basis, Debye-Ang):
   XX=           -275.2472   YY=           -241.1503   ZZ=           -262.7032
   XY=              1.6321   XZ=             36.2835   YZ=              0.9728

 Normal termination of Gaussian 16 at Fri Jul 12 22:12:08 2019.
