 Gaussian 16, Revision A.03,
 Gaussian 16:  ES64L-G16RevA.03 25-Dec-2016

 -------------------------------------
 # td=(NStates=1) CAM-B3LYP/6-31G(d,p)
 -------------------------------------

 --
 TD
 --
 Symbolic Z-matrix:
 Charge =  0 Multiplicity = 1

                         Standard orientation:
 ---------------------------------------------------------------------
 Center     Atomic      Atomic             Coordinates (Angstroms)
 Number     Number       Type             X           Y           Z
 ---------------------------------------------------------------------
      1          8           0      -14.068327   -2.203395    0.433542
      2          8           0       14.841252    0.953438    0.131130
      3          6           0      -11.790583    0.091496    1.319882
      4          6           0      -10.976377    0.412693   -0.064757
      5          6           0      -11.915265   -1.462913    1.454219
      6          6           0      -12.647688   -2.108766    0.279475
      7          6           0      -11.593974   -0.312216   -1.249913
      8          6           0       11.041370    1.210566    0.938711
      9          6           0      -11.043568    0.575089    2.516462
     10          6           0      -13.198848    0.830992    1.208271
     11          6           0       12.440654    1.715089    0.674125
     12          6           0      -12.289973   -1.511976   -1.028701
     13          6           0       13.447174    0.482593    0.333226
     14          6           0       10.676255   -0.078310   -0.009063
     15          6           0       -9.525225   -0.080920   -0.033101
     16          6           0       12.993836   -0.267371   -0.861071
     17          6           0       11.503138   -0.571382   -0.839181
     18          6           0       10.057470    2.353986    0.748897
     19          6           0       10.829527    0.629510    2.346235
     20          6           0      -11.347679    0.269142   -2.531963
     21          6           0       -8.618886    0.823279   -0.172173
     22          6           0        9.344150   -0.518955    0.047667
     23          6           0       11.184577   -1.501757   -1.959728
     24          6           0       -7.110844    0.513471   -0.218299
     25          6           0        8.908727   -1.704039   -0.137747
     26          6           0       -6.733596   -0.962443    0.025215
     27          6           0        7.466507   -2.219207   -0.027786
     28          6           0       -6.258314    1.608751   -0.379462
     29          6           0        7.294080   -3.722740    0.262578
     30          6           0        6.367311   -1.310585   -0.097560
     31          6           0       -4.770979    1.530321   -0.471611
     32          6           0        5.096492   -1.616156    0.002113
     33          6           0       -3.871610    2.619696   -0.567905
     34          6           0       -2.535260    2.602110   -0.580377
     35          6           0        3.991655   -0.696781   -0.147880
     36          6           0        2.686294   -0.943003   -0.136572
     37          6           0       -1.770215    3.928097   -0.774841
     38          6           0       -1.756934    1.428151   -0.533773
     39          6           0        1.756080    0.183150   -0.312570
     40          6           0        2.037031   -2.257655    0.305240
     41          6           0       -0.348347    1.444026   -0.487995
     42          6           0        0.363823    0.169760   -0.331306
     43          1           0      -10.971453    1.485904   -0.416156
     44          1           0      -12.754973   -1.426151    2.147469
     45          1           0      -10.998702   -2.012049    1.511463
     46          1           0      -12.327404   -3.056626    0.418367
     47          1           0      -10.093172    0.035223    2.839340
     48          1           0      -10.503062    1.583751    2.311391
     49          1           0      -11.634922    0.713624    3.420018
     50          1           0      -13.813710    0.481707    0.467406
     51          1           0      -13.598727    0.648943    2.211787
     52          1           0      -13.098460    1.809125    1.160950
     53          1           0       12.385533    2.525153   -0.015469
     54          1           0       12.790151    2.156142    1.521067
     55          1           0      -12.754909   -1.875126   -2.040499
     56          1           0       13.207955   -0.167872    1.091468
     57          1           0       -9.223715   -1.136011    0.053453
     58          1           0       13.551709   -1.326850   -0.802438
     59          1           0       13.325743    0.175711   -1.943428
     60          1           0        9.113438    1.689407    1.227745
     61          1           0        9.917110    2.603699   -0.186342
     62          1           0       10.438084    3.173744    1.455463
     63          1           0       11.583260   -0.098935    2.701560
     64          1           0        9.608518    0.542252    2.438087
     65          1           0       10.931385    1.472120    3.143922
     66          1           0      -10.187021    0.642841   -2.684373
     67          1           0      -11.861642    1.095418   -2.651367
     68          1           0      -11.710217   -0.346804   -3.591910
     69          1           0      -14.589986   -2.185309   -0.412934
     70          1           0        8.489360    0.362894    0.073720
     71          1           0       -8.823467    1.912444   -0.471969
     72          1           0       11.224881   -2.710162   -1.487968
     73          1           0       10.214418   -1.338897   -2.399397
     74          1           0       11.973916   -1.414419   -2.664544
     75          1           0       15.099700    1.192234    0.900468
     76          1           0        9.574749   -2.553137   -0.326289
     77          1           0       -5.621485   -1.016747    0.091785
     78          1           0       -7.103758   -1.451567    1.046807
     79          1           0       -7.061689   -1.562718   -1.004211
     80          1           0       -6.682113    2.594917   -0.605940
     81          1           0        6.986876   -3.725253    1.482654
     82          1           0        6.591137   -4.081820   -0.417241
     83          1           0        8.114642   -4.334781   -0.075865
     84          1           0        6.772444   -0.402670   -0.486569
     85          1           0       -4.301779    0.492186   -0.462198
     86          1           0        4.793673   -2.656206    0.316828
     87          1           0       -4.438276    3.517628   -0.801804
     88          1           0        4.063739    0.236822   -0.311761
     89          1           0       -1.049859    3.829480   -1.565614
     90          1           0       -1.244400    4.284800    0.045194
     91          1           0       -2.335493    4.589131   -1.090440
     92          1           0       -2.389746    0.689187   -0.490267
     93          1           0        2.226713    1.008192   -0.643635
     94          1           0        2.039164   -2.423977    1.533384
     95          1           0        0.988171   -2.302538   -0.164834
     96          1           0        2.664177   -3.108119   -0.060096
     97          1           0        0.258750    2.417470   -0.690841
     98          1           0       -0.230591   -0.696517   -0.204671
 ---------------------------------------------------------------------

 SCF Done:  E(RCAM-B3LYP) =  -1706.82011351     A.U. after   17 cycles

 Excitation energies and oscillator strengths:

 Excited State   1:      Singlet-A      1.6876 eV  734.67 nm  f=2.9161  <S**2>=0.000
     155 ->158         0.11241
     156 ->157         0.71521
     156 <-157        -0.17041
 This state for optimization and/or second-order correction.
 Total Energy, E(TD-HF/TD-DFT) =  -1706.75809475
 Copying the excited state density for this state as the 1-particle RhoCI density.

 The electronic state is 1-A.
 Alpha  occ. eigenvalues --  -19.20749 -19.20343 -10.30755 -10.29148 -10.28626
 Alpha  occ. eigenvalues --  -10.28453 -10.28192 -10.27914 -10.27603 -10.27531
 Alpha  occ. eigenvalues --  -10.27477 -10.27366 -10.27108 -10.27070 -10.27038
 Alpha  occ. eigenvalues --  -10.26911 -10.26723 -10.26717 -10.26700 -10.26690
 Alpha  occ. eigenvalues --  -10.26575 -10.26373 -10.26296 -10.26055 -10.25914
 Alpha  occ. eigenvalues --  -10.25812 -10.25783 -10.25763 -10.25607 -10.25562
 Alpha  occ. eigenvalues --  -10.25527 -10.25489 -10.25469 -10.24878 -10.24821
 Alpha  occ. eigenvalues --  -10.24693 -10.24661 -10.24571 -10.24153 -10.24131
 Alpha  occ. eigenvalues --  -10.22516 -10.22474  -1.10840  -1.07728  -0.94602
 Alpha  occ. eigenvalues --   -0.93015  -0.92089  -0.91617  -0.89904  -0.89231
 Alpha  occ. eigenvalues --   -0.88346  -0.87173  -0.86878  -0.85750  -0.84584
 Alpha  occ. eigenvalues --   -0.82852  -0.82338  -0.80890  -0.80500  -0.78977
 Alpha  occ. eigenvalues --   -0.76733  -0.76522  -0.76468  -0.76302  -0.75951
 Alpha  occ. eigenvalues --   -0.75461  -0.75443  -0.74311  -0.72428  -0.70529
 Alpha  occ. eigenvalues --   -0.68734  -0.67869  -0.66899  -0.64980  -0.63582
 Alpha  occ. eigenvalues --   -0.62753  -0.62595  -0.62281  -0.60117  -0.59869
 Alpha  occ. eigenvalues --   -0.59235  -0.59084  -0.58802  -0.57845  -0.56181
 Alpha  occ. eigenvalues --   -0.56121  -0.55167  -0.54992  -0.54343  -0.54328
 Alpha  occ. eigenvalues --   -0.53287  -0.53226  -0.52465  -0.52003  -0.51683
 Alpha  occ. eigenvalues --   -0.50765  -0.50058  -0.49520  -0.49211  -0.48961
 Alpha  occ. eigenvalues --   -0.48898  -0.48577  -0.48293  -0.47928  -0.47885
 Alpha  occ. eigenvalues --   -0.47595  -0.47528  -0.47310  -0.46695  -0.46651
 Alpha  occ. eigenvalues --   -0.46171  -0.45743  -0.45449  -0.45168  -0.44571
 Alpha  occ. eigenvalues --   -0.44496  -0.44156  -0.43894  -0.43822  -0.43505
 Alpha  occ. eigenvalues --   -0.43461  -0.43120  -0.42621  -0.42301  -0.42218
 Alpha  occ. eigenvalues --   -0.42096  -0.41537  -0.41267  -0.41134  -0.40748
 Alpha  occ. eigenvalues --   -0.40357  -0.40069  -0.39709  -0.39488  -0.39331
 Alpha  occ. eigenvalues --   -0.38992  -0.38443  -0.38224  -0.38122  -0.37671
 Alpha  occ. eigenvalues --   -0.37311  -0.37167  -0.36713  -0.36202  -0.35550
 Alpha  occ. eigenvalues --   -0.35324  -0.34982  -0.33945  -0.32022  -0.31626
 Alpha  occ. eigenvalues --   -0.31225  -0.29403  -0.27975  -0.27509  -0.24011
 Alpha  occ. eigenvalues --   -0.17301
 Alpha virt. eigenvalues --   -0.07434  -0.00599   0.03543   0.05119   0.06994
 Alpha virt. eigenvalues --    0.09093   0.10301   0.11611   0.11934   0.12108
 Alpha virt. eigenvalues --    0.12261   0.12641   0.13412   0.13539   0.14019

 Mulliken charges:
               1
     1  O   -0.586075
     2  O   -0.534528
     3  C    0.026699
     4  C   -0.158590
     5  C   -0.202322
     6  C    0.197518
     7  C    0.140080
     8  C   -0.044244
     9  C   -0.313786
    10  C   -0.302646
    11  C   -0.195000
    12  C   -0.173639
    13  C    0.140627
    14  C    0.111650
    15  C   -0.071802
    16  C   -0.214683
    17  C    0.040786
    18  C   -0.265115
    19  C   -0.290057
    20  C   -0.361725
    21  C   -0.074371
    22  C   -0.118386
    23  C   -0.336659
    24  C    0.090855
    25  C   -0.095021
    26  C   -0.363950
    27  C    0.018172
    28  C   -0.132688
    29  C   -0.354837
    30  C   -0.065039
    31  C   -0.099734
    32  C   -0.115920
    33  C   -0.132424
    34  C    0.077000
    35  C   -0.062430
    36  C    0.093779
    37  C   -0.357537
    38  C   -0.053658
    39  C   -0.121986
    40  C   -0.355726
    41  C   -0.108501
    42  C   -0.079973
    43  H    0.081903
    44  H    0.128343
    45  H    0.107962
    46  H    0.090647
    47  H    0.097773
    48  H    0.087099
    49  H    0.104062
    50  H    0.118774
    51  H    0.094837
    52  H    0.109009
    53  H    0.102718
    54  H    0.089324
    55  H    0.054457
    56  H    0.100057
    57  H    0.100264
    58  H    0.094744
    59  H    0.101161
    60  H    0.067189
    61  H    0.118107
    62  H    0.100618
    63  H    0.109912
    64  H    0.100664
    65  H    0.075590
    66  H    0.100844
    67  H    0.140559
    68  H    0.078261
    69  H    0.310828
    70  H    0.076005
    71  H    0.074002
    72  H    0.068740
    73  H    0.128562
    74  H    0.110816
    75  H    0.286528
    76  H    0.074897
    77  H    0.111695
    78  H    0.117256
    79  H    0.109594
    80  H    0.085591
    81  H    0.114188
    82  H    0.131452
    83  H    0.112049
    84  H    0.081267
    85  H    0.080235
    86  H    0.084114
    87  H    0.079756
    88  H    0.047246
    89  H    0.113136
    90  H    0.126423
    91  H    0.104433
    92  H    0.047556
    93  H    0.074434
    94  H    0.102103
    95  H    0.104347
    96  H    0.106487
    97  H    0.096738
    98  H    0.090532
 Sum of Mulliken charges =  -0.00000

 Dipole moment (field-independent basis, Debye):
    X=              0.5321    Y=              0.4269    Z=             -0.4910  Tot=              0.8405
 Quadrupole moment (field-independent basis, Debye-Ang):
   XX=           -272.9217   YY=           -246.9139   ZZ=           -260.8684
   XY=            -11.2025   XZ=             37.1309   YZ=              0.5740

 Normal termination of Gaussian 16 at Sun Jul 14 02:01:49 2019.
