 Gaussian 16, Revision A.03,
 Gaussian 16:  ES64L-G16RevA.03 25-Dec-2016

 -------------------------------------
 # td=(NStates=1) CAM-B3LYP/6-31G(d,p)
 -------------------------------------

 --
 TD
 --
 Symbolic Z-matrix:
 Charge =  0 Multiplicity = 1

                         Standard orientation:
 ---------------------------------------------------------------------
 Center     Atomic      Atomic             Coordinates (Angstroms)
 Number     Number       Type             X           Y           Z
 ---------------------------------------------------------------------
      1          8           0      -14.107561   -1.936562    0.489830
      2          8           0       14.723582    1.141622   -0.039266
      3          6           0      -11.888204    0.133289    1.255758
      4          6           0      -11.025566    0.415148   -0.089705
      5          6           0      -11.936473   -1.373462    1.511002
      6          6           0      -12.675731   -2.097980    0.216222
      7          6           0      -11.562953   -0.428850   -1.245500
      8          6           0       11.059553    0.983233    1.021393
      9          6           0      -11.006889    0.711210    2.344535
     10          6           0      -13.136595    0.928375    1.200345
     11          6           0       12.520494    1.602184    0.790292
     12          6           0      -12.311734   -1.592904   -1.035753
     13          6           0       13.524949    0.546484    0.247578
     14          6           0       10.601071    0.005807    0.015908
     15          6           0       -9.589919    0.109138    0.010710
     16          6           0       12.908237   -0.070534   -0.945584
     17          6           0       11.532039   -0.516790   -0.898572
     18          6           0       10.104266    2.182840    1.044979
     19          6           0       11.132681    0.393184    2.475664
     20          6           0      -11.391875    0.171006   -2.585912
     21          6           0       -8.592175    0.923185   -0.177075
     22          6           0        9.257872   -0.497592    0.098389
     23          6           0       11.222581   -1.359899   -2.139047
     24          6           0       -7.162568    0.534884   -0.153279
     25          6           0        8.774668   -1.692500   -0.119726
     26          6           0       -6.837085   -0.878858    0.007102
     27          6           0        7.452396   -2.124228   -0.022233
     28          6           0       -6.193526    1.534268   -0.238626
     29          6           0        7.223588   -3.657784    0.041271
     30          6           0        6.380942   -1.334422   -0.035978
     31          6           0       -4.784659    1.291564   -0.333626
     32          6           0        5.066900   -1.539524    0.121194
     33          6           0       -3.948058    2.491412   -0.532473
     34          6           0       -2.529049    2.383661   -0.675959
     35          6           0        4.099465   -0.586492   -0.159151
     36          6           0        2.695368   -0.853860   -0.021414
     37          6           0       -1.965778    3.762109   -1.089208
     38          6           0       -1.777908    1.327155   -0.558346
     39          6           0        1.737710    0.164402   -0.241470
     40          6           0        2.291705   -2.283248    0.338064
     41          6           0       -0.361199    1.271472   -0.552491
     42          6           0        0.396620    0.066865   -0.180797
     43          1           0      -11.044252    1.527180   -0.319920
     44          1           0      -12.614303   -1.499701    2.286052
     45          1           0      -10.817375   -1.916863    1.580755
     46          1           0      -12.267474   -3.222138    0.490460
     47          1           0      -10.082108    0.113075    2.339996
     48          1           0      -10.492038    1.716334    2.249953
     49          1           0      -11.656110    0.602111    3.399772
     50          1           0      -13.860129    0.356472    0.468393
     51          1           0      -13.706257    0.811910    2.252041
     52          1           0      -12.944339    1.853801    1.034571
     53          1           0       12.508893    2.372304    0.037545
     54          1           0       12.779127    1.984388    1.670443
     55          1           0      -12.759340   -2.091028   -2.067870
     56          1           0       13.921064    0.020811    1.088630
     57          1           0       -9.440243   -1.007329    0.206522
     58          1           0       13.465793   -0.914586   -1.281818
     59          1           0       12.983792    0.661671   -1.790579
     60          1           0        9.185321    1.923380    1.100997
     61          1           0       10.185399    2.637032    0.047840
     62          1           0       10.489666    2.870983    1.716557
     63          1           0       11.848990   -0.431378    2.536833
     64          1           0       10.201167   -0.080574    2.741956
     65          1           0       11.207383    1.074252    3.200719
     66          1           0      -10.407459    0.556024   -2.587761
     67          1           0      -11.828054    0.990733   -2.633272
     68          1           0      -11.894193   -0.326340   -3.352886
     69          1           0      -14.592519   -2.524697   -0.117709
     70          1           0        8.457264    0.245583    0.497390
     71          1           0       -8.690651    2.150090   -0.166148
     72          1           0       11.566385   -2.447239   -2.038378
     73          1           0       10.057313   -1.429169   -2.194194
     74          1           0       11.835146   -0.987132   -3.093863
     75          1           0       15.188703    1.525600    0.714205
     76          1           0        9.463400   -2.362960   -0.294894
     77          1           0       -5.698685   -0.911312    0.059141
     78          1           0       -7.058646   -1.315173    1.027955
     79          1           0       -6.995337   -1.475296   -0.867616
     80          1           0       -6.554518    2.718524   -0.526890
     81          1           0        6.305933   -3.942616    0.849011
     82          1           0        6.726202   -4.037906   -1.135636
     83          1           0        8.219961   -4.182724    0.350625
     84          1           0        6.534526   -0.267813   -0.182485
     85          1           0       -4.444650    0.336257   -0.477173
     86          1           0        4.554577   -2.493933    0.331869
     87          1           0       -4.615013    3.409977   -0.474774
     88          1           0        4.552612    0.353169   -0.158209
     89          1           0       -1.266062    3.653652   -1.964627
     90          1           0       -1.243535    4.040932   -0.329357
     91          1           0       -2.620605    4.477212   -1.527281
     92          1           0       -2.376714    0.424336   -0.371964
     93          1           0        2.291381    1.146784   -0.545856
     94          1           0        3.171694   -2.750110    1.086210
     95          1           0        1.300812   -2.415716    0.940102
     96          1           0        2.275458   -2.890369   -0.653797
     97          1           0        0.069679    2.271301   -0.912671
     98          1           0       -0.136148   -0.805954   -0.094305
 ---------------------------------------------------------------------

 SCF Done:  E(RCAM-B3LYP) =  -1706.86994179     A.U. after   15 cycles

 Excitation energies and oscillator strengths:

 Excited State   1:      Singlet-A      1.9775 eV  626.96 nm  f=3.1377  <S**2>=0.000
     155 ->158         0.14150
     156 ->157         0.69540
 This state for optimization and/or second-order correction.
 Total Energy, E(TD-HF/TD-DFT) =  -1706.79726883
 Copying the excited state density for this state as the 1-particle RhoCI density.

 The electronic state is 1-A.
 Alpha  occ. eigenvalues --  -19.21664 -19.19938 -10.31810 -10.29375 -10.29331
 Alpha  occ. eigenvalues --  -10.28231 -10.28039 -10.28023 -10.27828 -10.27663
 Alpha  occ. eigenvalues --  -10.27614 -10.27561 -10.27098 -10.27001 -10.26946
 Alpha  occ. eigenvalues --  -10.26895 -10.26886 -10.26765 -10.26661 -10.26627
 Alpha  occ. eigenvalues --  -10.26572 -10.26499 -10.26327 -10.26256 -10.26174
 Alpha  occ. eigenvalues --  -10.26065 -10.26036 -10.25830 -10.25647 -10.25415
 Alpha  occ. eigenvalues --  -10.25164 -10.25082 -10.24848 -10.24767 -10.24619
 Alpha  occ. eigenvalues --  -10.24089 -10.23616 -10.23387 -10.23055 -10.22916
 Alpha  occ. eigenvalues --  -10.22612 -10.22098  -1.10621  -1.08341  -0.93835
 Alpha  occ. eigenvalues --   -0.93772  -0.92308  -0.91969  -0.90758  -0.90146
 Alpha  occ. eigenvalues --   -0.87654  -0.87497  -0.87462  -0.85868  -0.84657
 Alpha  occ. eigenvalues --   -0.83087  -0.82207  -0.81399  -0.79692  -0.78307
 Alpha  occ. eigenvalues --   -0.77235  -0.76984  -0.76154  -0.75899  -0.75505
 Alpha  occ. eigenvalues --   -0.75394  -0.74402  -0.73881  -0.72646  -0.70307
 Alpha  occ. eigenvalues --   -0.69307  -0.67811  -0.66850  -0.65511  -0.64112
 Alpha  occ. eigenvalues --   -0.63250  -0.62205  -0.61699  -0.60758  -0.60269
 Alpha  occ. eigenvalues --   -0.59187  -0.59074  -0.57886  -0.57541  -0.56411
 Alpha  occ. eigenvalues --   -0.56098  -0.55786  -0.55049  -0.54618  -0.54040
 Alpha  occ. eigenvalues --   -0.53367  -0.53038  -0.52460  -0.52282  -0.50673
 Alpha  occ. eigenvalues --   -0.50469  -0.50109  -0.49828  -0.49808  -0.49520
 Alpha  occ. eigenvalues --   -0.49126  -0.48719  -0.48611  -0.48348  -0.48189
 Alpha  occ. eigenvalues --   -0.48074  -0.47707  -0.47447  -0.47060  -0.46710
 Alpha  occ. eigenvalues --   -0.45804  -0.45692  -0.45220  -0.44616  -0.44243
 Alpha  occ. eigenvalues --   -0.44028  -0.43921  -0.43630  -0.43329  -0.43172
 Alpha  occ. eigenvalues --   -0.43021  -0.42905  -0.42189  -0.42132  -0.41957
 Alpha  occ. eigenvalues --   -0.41894  -0.41728  -0.41520  -0.40919  -0.40468
 Alpha  occ. eigenvalues --   -0.40089  -0.39829  -0.39578  -0.39499  -0.39177
 Alpha  occ. eigenvalues --   -0.38619  -0.38501  -0.38312  -0.38294  -0.37754
 Alpha  occ. eigenvalues --   -0.37430  -0.37047  -0.36471  -0.36120  -0.35314
 Alpha  occ. eigenvalues --   -0.35236  -0.34752  -0.33923  -0.32568  -0.31529
 Alpha  occ. eigenvalues --   -0.30072  -0.29085  -0.28269  -0.26375  -0.23539
 Alpha  occ. eigenvalues --   -0.18750
 Alpha virt. eigenvalues --   -0.06349  -0.01195   0.02522   0.04899   0.06691
 Alpha virt. eigenvalues --    0.08394   0.10874   0.11321   0.11548   0.12094
 Alpha virt. eigenvalues --    0.12429   0.13025   0.13488   0.13813   0.13998

 Mulliken charges:
               1
     1  O   -0.544871
     2  O   -0.573279
     3  C    0.028070
     4  C   -0.162276
     5  C   -0.167275
     6  C    0.094733
     7  C    0.108811
     8  C   -0.054805
     9  C   -0.281151
    10  C   -0.271482
    11  C   -0.186083
    12  C   -0.103686
    13  C    0.187918
    14  C    0.093913
    15  C   -0.081136
    16  C   -0.226567
    17  C    0.047952
    18  C   -0.289122
    19  C   -0.309443
    20  C   -0.340385
    21  C   -0.087417
    22  C   -0.104809
    23  C   -0.366600
    24  C    0.105217
    25  C   -0.090287
    26  C   -0.383971
    27  C    0.105505
    28  C   -0.126576
    29  C   -0.337288
    30  C   -0.119507
    31  C   -0.075045
    32  C   -0.063542
    33  C   -0.145026
    34  C    0.111494
    35  C   -0.112543
    36  C    0.086130
    37  C   -0.392954
    38  C   -0.100590
    39  C   -0.094605
    40  C   -0.370554
    41  C   -0.104997
    42  C   -0.086324
    43  H    0.083475
    44  H    0.125250
    45  H    0.078987
    46  H    0.061558
    47  H    0.098420
    48  H    0.090118
    49  H    0.062825
    50  H    0.119125
    51  H    0.072342
    52  H    0.105694
    53  H    0.094383
    54  H    0.079611
    55  H    0.057566
    56  H    0.070349
    57  H    0.093233
    58  H    0.112612
    59  H    0.126601
    60  H    0.105412
    61  H    0.096028
    62  H    0.100414
    63  H    0.100898
    64  H    0.099656
    65  H    0.106223
    66  H    0.116043
    67  H    0.135320
    68  H    0.108884
    69  H    0.306111
    70  H    0.071438
    71  H    0.067433
    72  H    0.110458
    73  H    0.115500
    74  H    0.101614
    75  H    0.305632
    76  H    0.069017
    77  H    0.090403
    78  H    0.125983
    79  H    0.137762
    80  H    0.067914
    81  H    0.094725
    82  H    0.082689
    83  H    0.104482
    84  H    0.064730
    85  H    0.102799
    86  H    0.064955
    87  H    0.099773
    88  H    0.079882
    89  H    0.108937
    90  H    0.129388
    91  H    0.120300
    92  H    0.064992
    93  H    0.080375
    94  H    0.098561
    95  H    0.108195
    96  H    0.125795
    97  H    0.087073
    98  H    0.096506
 Sum of Mulliken charges =  -0.00000

 Dipole moment (field-independent basis, Debye):
    X=              0.0183    Y=             -0.4677    Z=             -0.4254  Tot=              0.6325
 Quadrupole moment (field-independent basis, Debye-Ang):
   XX=           -258.4845   YY=           -245.2677   ZZ=           -262.8998
   XY=             10.2292   XZ=             39.4830   YZ=              0.5694

 Normal termination of Gaussian 16 at Mon Jul 15 18:38:15 2019.
