 Gaussian 16, Revision A.03,
 Gaussian 16:  ES64L-G16RevA.03 25-Dec-2016

 -------------------------------------
 # td=(NStates=1) CAM-B3LYP/6-31G(d,p)
 -------------------------------------

 --
 TD
 --
 Symbolic Z-matrix:
 Charge =  0 Multiplicity = 1

                         Standard orientation:
 ---------------------------------------------------------------------
 Center     Atomic      Atomic             Coordinates (Angstroms)
 Number     Number       Type             X           Y           Z
 ---------------------------------------------------------------------
      1          8           0      -14.020529   -1.993355    0.511767
      2          8           0       14.674702    0.883952    0.197930
      3          6           0      -11.771241    0.005114    1.288529
      4          6           0      -10.971919    0.298348   -0.028996
      5          6           0      -11.863980   -1.517886    1.379197
      6          6           0      -12.674066   -2.223876    0.216120
      7          6           0      -11.582111   -0.439763   -1.165447
      8          6           0       11.036254    0.958293    1.083789
      9          6           0      -11.053542    0.543587    2.586032
     10          6           0      -13.140329    0.647989    1.250966
     11          6           0       12.499039    1.478369    0.749976
     12          6           0      -12.234299   -1.522840   -1.085467
     13          6           0       13.400920    0.429157    0.429091
     14          6           0       10.619091   -0.070135   -0.009990
     15          6           0       -9.487780    0.006649   -0.084134
     16          6           0       12.929298   -0.185735   -0.927994
     17          6           0       11.447877   -0.483527   -0.940429
     18          6           0       10.115825    2.092250    1.084437
     19          6           0       11.038804    0.317600    2.534968
     20          6           0      -11.236402    0.177381   -2.471988
     21          6           0       -8.460123    0.950997   -0.168445
     22          6           0        9.272875   -0.582025    0.237592
     23          6           0       11.039656   -1.344423   -2.111805
     24          6           0       -7.050275    0.580479   -0.147817
     25          6           0        8.736553   -1.848147   -0.120925
     26          6           0       -6.640925   -0.961591    0.147643
     27          6           0        7.365022   -2.255569   -0.066865
     28          6           0       -6.184754    1.545985   -0.417683
     29          6           0        7.026262   -3.686887    0.104335
     30          6           0        6.420523   -1.304910   -0.276438
     31          6           0       -4.745451    1.574235   -0.328084
     32          6           0        4.989546   -1.391810   -0.290107
     33          6           0       -4.027362    2.634540   -0.652327
     34          6           0       -2.580134    2.641365   -0.710682
     35          6           0        4.038279   -0.438221   -0.315540
     36          6           0        2.660180   -0.736369   -0.236737
     37          6           0       -1.930978    4.075734   -0.919859
     38          6           0       -1.712528    1.594081   -0.417202
     39          6           0        1.779073    0.328321   -0.364124
     40          6           0        2.198866   -2.161819    0.016611
     41          6           0       -0.368175    1.517248   -0.415529
     42          6           0        0.395814    0.363767   -0.372592
     43          1           0      -11.142875    1.336984   -0.264843
     44          1           0      -12.548631   -1.995413    2.339310
     45          1           0      -10.852056   -1.809764    1.194207
     46          1           0      -12.337071   -3.231766    0.216429
     47          1           0      -10.014968    0.043475    2.519701
     48          1           0      -10.901815    1.598984    2.548467
     49          1           0      -11.771673    0.126410    3.323256
     50          1           0      -13.713388    0.539636    0.364945
     51          1           0      -13.815939    0.417243    2.108187
     52          1           0      -12.899449    1.795622    1.228975
     53          1           0       12.663115    2.246797    0.075528
     54          1           0       12.853155    2.083963    1.631264
     55          1           0      -12.741673   -1.995566   -1.851245
     56          1           0       13.579440   -0.455896    1.304575
     57          1           0       -9.133801   -1.140622    0.072181
     58          1           0       13.373121   -1.124941   -1.132295
     59          1           0       13.189641    0.721730   -1.726945
     60          1           0        9.019542    1.851148    1.542238
     61          1           0        9.863991    2.558893    0.091169
     62          1           0       10.542780    2.960599    1.725053
     63          1           0       11.559193   -0.826911    2.601037
     64          1           0        9.947188    0.153154    2.732127
     65          1           0       11.510276    1.087089    3.109529
     66          1           0      -10.188295    0.755795   -2.561624
     67          1           0      -11.883645    1.036129   -2.631633
     68          1           0      -11.284802   -0.614539   -3.320950
     69          1           0      -14.628670   -2.839002   -0.046539
     70          1           0        8.583320    0.052332    0.585812
     71          1           0       -8.625707    2.055163   -0.121584
     72          1           0       11.481505   -2.375740   -2.026932
     73          1           0        9.989491   -1.363532   -2.240217
     74          1           0       11.455387   -0.874910   -3.010130
     75          1           0       15.151802    1.311006    0.792476
     76          1           0        9.449267   -2.552764   -0.314878
     77          1           0       -5.468917   -1.074131    0.087800
     78          1           0       -7.041069   -1.220722    1.088258
     79          1           0       -7.145284   -1.814132   -0.470333
     80          1           0       -6.556340    2.593258   -0.764258
     81          1           0        6.254635   -3.866037    0.989961
     82          1           0        6.509710   -4.322808   -0.721754
     83          1           0        7.968460   -4.117157    0.537715
     84          1           0        6.954563   -0.254683   -0.461817
     85          1           0       -4.193334    0.644448   -0.059437
     86          1           0        4.571788   -2.383073   -0.142085
     87          1           0       -4.577600    3.595584   -0.817804
     88          1           0        4.355393    0.583842   -0.169521
     89          1           0       -1.436668    4.032563   -2.003961
     90          1           0       -0.799566    4.062612   -0.241877
     91          1           0       -2.580604    4.840658   -0.666259
     92          1           0       -2.185412    0.617075   -0.153060
     93          1           0        2.304058    1.322851   -0.522074
     94          1           0        2.442827   -2.255334    1.107014
     95          1           0        1.091614   -2.267549    0.166956
     96          1           0        2.754559   -2.798609   -0.657223
     97          1           0        0.171115    2.412627   -0.623887
     98          1           0       -0.115349   -0.622581   -0.409067
 ---------------------------------------------------------------------

 SCF Done:  E(RCAM-B3LYP) =  -1706.98504145     A.U. after   15 cycles

 Excitation energies and oscillator strengths:

 Excited State   1:      Singlet-A      2.2608 eV  548.40 nm  f=3.0612  <S**2>=0.000
     155 ->158        -0.15780
     156 ->157         0.68852
 This state for optimization and/or second-order correction.
 Total Energy, E(TD-HF/TD-DFT) =  -1706.90195753
 Copying the excited state density for this state as the 1-particle RhoCI density.

 The electronic state is 1-A.
 Alpha  occ. eigenvalues --  -19.23353 -19.19453 -10.31118 -10.29856 -10.28004
 Alpha  occ. eigenvalues --  -10.27982 -10.27963 -10.27845 -10.27695 -10.27445
 Alpha  occ. eigenvalues --  -10.27338 -10.27062 -10.27021 -10.26741 -10.26569
 Alpha  occ. eigenvalues --  -10.26482 -10.26427 -10.26420 -10.26247 -10.26235
 Alpha  occ. eigenvalues --  -10.26206 -10.26185 -10.26141 -10.26085 -10.26021
 Alpha  occ. eigenvalues --  -10.25896 -10.25809 -10.25707 -10.25677 -10.25649
 Alpha  occ. eigenvalues --  -10.25588 -10.25499 -10.25488 -10.25290 -10.25180
 Alpha  occ. eigenvalues --  -10.25056 -10.25033 -10.24365 -10.24150 -10.24079
 Alpha  occ. eigenvalues --  -10.23312 -10.22806  -1.11797  -1.07966  -0.93728
 Alpha  occ. eigenvalues --   -0.93703  -0.92410  -0.91693  -0.90660  -0.89799
 Alpha  occ. eigenvalues --   -0.87520  -0.87011  -0.86691  -0.85475  -0.84381
 Alpha  occ. eigenvalues --   -0.82916  -0.81586  -0.80272  -0.79506  -0.78305
 Alpha  occ. eigenvalues --   -0.76324  -0.76209  -0.76124  -0.75295  -0.75167
 Alpha  occ. eigenvalues --   -0.74657  -0.74638  -0.73820  -0.73057  -0.70510
 Alpha  occ. eigenvalues --   -0.69476  -0.67721  -0.66800  -0.66057  -0.63454
 Alpha  occ. eigenvalues --   -0.62749  -0.62270  -0.61615  -0.60688  -0.59684
 Alpha  occ. eigenvalues --   -0.59264  -0.58384  -0.57408  -0.57258  -0.56455
 Alpha  occ. eigenvalues --   -0.55781  -0.55288  -0.54885  -0.54315  -0.53794
 Alpha  occ. eigenvalues --   -0.53166  -0.52686  -0.52522  -0.52120  -0.51331
 Alpha  occ. eigenvalues --   -0.50646  -0.50144  -0.49785  -0.49293  -0.49010
 Alpha  occ. eigenvalues --   -0.48492  -0.48102  -0.47847  -0.47377  -0.47255
 Alpha  occ. eigenvalues --   -0.47069  -0.46833  -0.46322  -0.46087  -0.46013
 Alpha  occ. eigenvalues --   -0.45703  -0.45461  -0.45334  -0.44954  -0.44677
 Alpha  occ. eigenvalues --   -0.44373  -0.44051  -0.43710  -0.43619  -0.43453
 Alpha  occ. eigenvalues --   -0.43266  -0.42995  -0.42507  -0.42167  -0.41939
 Alpha  occ. eigenvalues --   -0.41609  -0.41494  -0.41163  -0.40979  -0.40271
 Alpha  occ. eigenvalues --   -0.39928  -0.39757  -0.39468  -0.39389  -0.39027
 Alpha  occ. eigenvalues --   -0.38569  -0.38425  -0.38040  -0.37907  -0.37684
 Alpha  occ. eigenvalues --   -0.37495  -0.37098  -0.36026  -0.35837  -0.35087
 Alpha  occ. eigenvalues --   -0.34531  -0.34026  -0.33778  -0.32149  -0.31796
 Alpha  occ. eigenvalues --   -0.31452  -0.29897  -0.29209  -0.26657  -0.23892
 Alpha  occ. eigenvalues --   -0.19699
 Alpha virt. eigenvalues --   -0.05595  -0.00914   0.02474   0.06019   0.06396
 Alpha virt. eigenvalues --    0.08611   0.10417   0.11456   0.11741   0.12035
 Alpha virt. eigenvalues --    0.12470   0.13122   0.13469   0.13757   0.13950

 Mulliken charges:
               1
     1  O   -0.523059
     2  O   -0.545511
     3  C    0.016106
     4  C   -0.154932
     5  C   -0.172780
     6  C    0.120719
     7  C    0.163013
     8  C   -0.021330
     9  C   -0.278030
    10  C   -0.282848
    11  C   -0.188908
    12  C   -0.128964
    13  C    0.198645
    14  C    0.105620
    15  C   -0.082650
    16  C   -0.196257
    17  C    0.016581
    18  C   -0.300735
    19  C   -0.274592
    20  C   -0.365516
    21  C   -0.105572
    22  C   -0.106053
    23  C   -0.363376
    24  C    0.119898
    25  C   -0.129886
    26  C   -0.370417
    27  C    0.121313
    28  C   -0.146583
    29  C   -0.378805
    30  C   -0.119339
    31  C   -0.041828
    32  C   -0.110790
    33  C   -0.122503
    34  C    0.074325
    35  C   -0.082131
    36  C    0.094422
    37  C   -0.350730
    38  C   -0.102476
    39  C   -0.126241
    40  C   -0.374264
    41  C   -0.069415
    42  C   -0.091718
    43  H    0.091949
    44  H    0.070024
    45  H    0.086313
    46  H    0.088595
    47  H    0.086891
    48  H    0.101479
    49  H    0.104498
    50  H    0.120948
    51  H    0.103084
    52  H    0.058148
    53  H    0.108179
    54  H    0.063448
    55  H    0.060690
    56  H    0.039327
    57  H    0.078919
    58  H    0.113039
    59  H    0.094046
    60  H    0.081720
    61  H    0.111688
    62  H    0.087160
    63  H    0.084577
    64  H    0.106055
    65  H    0.107985
    66  H    0.102755
    67  H    0.117684
    68  H    0.100308
    69  H    0.293175
    70  H    0.071800
    71  H    0.091892
    72  H    0.105571
    73  H    0.128360
    74  H    0.107554
    75  H    0.283514
    76  H    0.082744
    77  H    0.102041
    78  H    0.135247
    79  H    0.115152
    80  H    0.074126
    81  H    0.105359
    82  H    0.121682
    83  H    0.109335
    84  H    0.069641
    85  H    0.082766
    86  H    0.070526
    87  H    0.084812
    88  H    0.088727
    89  H    0.118445
    90  H    0.077739
    91  H    0.121375
    92  H    0.065858
    93  H    0.072216
    94  H    0.131107
    95  H    0.111741
    96  H    0.133326
    97  H    0.073140
    98  H    0.079118
 Sum of Mulliken charges =  -0.00000

 Dipole moment (field-independent basis, Debye):
    X=             -0.2317    Y=             -1.2310    Z=              0.0406  Tot=              1.2533
 Quadrupole moment (field-independent basis, Debye-Ang):
   XX=           -252.8077   YY=           -237.7944   ZZ=           -268.5139
   XY=             24.3405   XZ=             29.1182   YZ=              1.4968

 Normal termination of Gaussian 16 at Mon Jul 15 03:38:24 2019.
