 Gaussian 16, Revision A.03,
 Gaussian 16:  ES64L-G16RevA.03 25-Dec-2016

 -------------------------------------
 # td=(NStates=1) CAM-B3LYP/6-31G(d,p)
 -------------------------------------

 --
 TD
 --
 Symbolic Z-matrix:
 Charge =  0 Multiplicity = 1

                         Standard orientation:
 ---------------------------------------------------------------------
 Center     Atomic      Atomic             Coordinates (Angstroms)
 Number     Number       Type             X           Y           Z
 ---------------------------------------------------------------------
      1          8           0      -14.095447   -2.061565    0.532676
      2          8           0       14.691100    0.805381    0.367333
      3          6           0      -11.745155   -0.206977    1.416516
      4          6           0      -10.969661    0.338707    0.149585
      5          6           0      -11.918936   -1.804595    1.457157
      6          6           0      -12.653916   -2.222430    0.152619
      7          6           0      -11.593416   -0.383598   -1.094308
      8          6           0       11.056990    0.894629    1.249164
      9          6           0      -10.936457    0.279099    2.633238
     10          6           0      -13.012809    0.560864    1.451712
     11          6           0       12.495270    1.380894    0.995894
     12          6           0      -12.255303   -1.473823   -1.002599
     13          6           0       13.412018    0.321235    0.411168
     14          6           0       10.626111    0.023932    0.038313
     15          6           0       -9.459104    0.049314    0.139509
     16          6           0       12.996780   -0.149346   -0.947470
     17          6           0       11.488104   -0.403842   -0.919630
     18          6           0       10.116422    2.062975    1.377048
     19          6           0       10.907738    0.076884    2.540918
     20          6           0      -11.328234    0.357230   -2.443423
     21          6           0       -8.490822    1.015709   -0.217802
     22          6           0        9.257764   -0.365722    0.106113
     23          6           0       11.160964   -1.265538   -2.178819
     24          6           0       -7.108047    0.627448   -0.352646
     25          6           0        8.794689   -1.618891   -0.257023
     26          6           0       -6.626868   -0.753928   -0.040095
     27          6           0        7.409584   -2.121251   -0.210594
     28          6           0       -6.195995    1.568400   -0.501645
     29          6           0        7.125456   -3.645016   -0.097007
     30          6           0        6.288961   -1.273158   -0.145313
     31          6           0       -4.710691    1.592673   -0.461905
     32          6           0        4.922731   -1.537087   -0.158996
     33          6           0       -3.947329    2.760350   -0.631259
     34          6           0       -2.538556    2.771778   -0.775539
     35          6           0        4.002960   -0.555162   -0.233306
     36          6           0        2.566668   -0.729210   -0.286698
     37          6           0       -1.831454    4.104480   -0.791517
     38          6           0       -1.729952    1.611106   -0.680567
     39          6           0        1.792462    0.299973   -0.443996
     40          6           0        2.084085   -2.217474   -0.209237
     41          6           0       -0.371376    1.541503   -0.692128
     42          6           0        0.371620    0.392134   -0.538075
     43          1           0      -11.153825    1.364098   -0.120010
     44          1           0      -12.500521   -1.922838    2.305909
     45          1           0      -10.904992   -1.976842    1.809274
     46          1           0      -12.625426   -3.363232   -0.079168
     47          1           0       -9.933849   -0.238048    2.734671
     48          1           0      -10.714940    1.348166    2.669906
     49          1           0      -11.637292    0.039246    3.423428
     50          1           0      -13.670066    0.408655    0.648305
     51          1           0      -13.564330    0.630987    2.368250
     52          1           0      -13.232039    1.813996    1.640458
     53          1           0       12.592481    2.125046    0.280010
     54          1           0       12.941556    1.676919    2.055003
     55          1           0      -12.722858   -1.869417   -1.913633
     56          1           0       13.449019   -0.527464    1.099224
     57          1           0       -9.237278   -1.001817    0.424620
     58          1           0       13.438355   -1.095601   -1.279782
     59          1           0       13.141443    0.623760   -1.609277
     60          1           0        9.074361    1.824569    1.634122
     61          1           0       10.187338    2.479409    0.621501
     62          1           0       10.593693    2.739466    2.162184
     63          1           0       11.598972   -0.765950    2.612990
     64          1           0        9.851166   -0.234218    2.701771
     65          1           0       11.188085    0.651961    3.583428
     66          1           0      -10.319801    0.758482   -2.373175
     67          1           0      -11.948424    1.313228   -2.546743
     68          1           0      -11.400264   -0.535665   -3.256102
     69          1           0      -14.440731   -2.844990   -0.162399
     70          1           0        8.365386    0.293833    0.625169
     71          1           0       -8.910714    1.870118   -0.656784
     72          1           0       11.286242   -2.477985   -1.945407
     73          1           0       10.225124   -1.278791   -2.428453
     74          1           0       11.961213   -1.001066   -3.081020
     75          1           0       14.944290    1.145327    1.254725
     76          1           0        9.585187   -2.303316   -0.614664
     77          1           0       -5.571113   -0.966744   -0.112245
     78          1           0       -7.008648   -1.066955    0.813739
     79          1           0       -7.133958   -1.328799   -0.745950
     80          1           0       -6.671171    2.528418   -0.735001
     81          1           0        6.888142   -3.711245    0.772223
     82          1           0        6.384940   -3.950736   -1.009382
     83          1           0        8.075456   -4.237056   -0.169383
     84          1           0        6.489347   -0.234711   -0.172562
     85          1           0       -4.165578    0.850369   -0.625910
     86          1           0        4.621012   -2.649505   -0.279610
     87          1           0       -4.377833    3.713514   -0.873121
     88          1           0        4.354789    0.604725   -0.228774
     89          1           0       -1.230097    4.202387   -1.743530
     90          1           0       -1.213205    4.092192   -0.005042
     91          1           0       -2.504886    5.041706   -0.850298
     92          1           0       -2.144556    0.478829   -0.689700
     93          1           0        2.203230    1.373830   -0.421232
     94          1           0        2.386192   -2.825623    0.557739
     95          1           0        0.978682   -1.943457   -0.173837
     96          1           0        2.440983   -2.780832   -1.018250
     97          1           0        0.402306    2.346479   -0.671653
     98          1           0       -0.195610   -0.582922   -0.250774
 ---------------------------------------------------------------------

 SCF Done:  E(RCAM-B3LYP) =  -1706.86030471     A.U. after   15 cycles

 Excitation energies and oscillator strengths:

 Excited State   1:      Singlet-A      2.2829 eV  543.10 nm  f=2.9723  <S**2>=0.000
     155 ->158        -0.16865
     156 ->157         0.68481
 This state for optimization and/or second-order correction.
 Total Energy, E(TD-HF/TD-DFT) =  -1706.77640916
 Copying the excited state density for this state as the 1-particle RhoCI density.

 The electronic state is 1-A.
 Alpha  occ. eigenvalues --  -19.22355 -19.20621 -10.32220 -10.29279 -10.27812
 Alpha  occ. eigenvalues --  -10.27695 -10.27432 -10.27310 -10.27166 -10.27166
 Alpha  occ. eigenvalues --  -10.27073 -10.27057 -10.27004 -10.26986 -10.26968
 Alpha  occ. eigenvalues --  -10.26903 -10.26872 -10.26678 -10.26620 -10.26509
 Alpha  occ. eigenvalues --  -10.26468 -10.26406 -10.26384 -10.26368 -10.26298
 Alpha  occ. eigenvalues --  -10.26172 -10.26094 -10.25674 -10.25554 -10.25511
 Alpha  occ. eigenvalues --  -10.25452 -10.25419 -10.25218 -10.25175 -10.25029
 Alpha  occ. eigenvalues --  -10.24957 -10.24663 -10.24097 -10.24038 -10.23635
 Alpha  occ. eigenvalues --  -10.23382 -10.22315  -1.10653  -1.06339  -0.93899
 Alpha  occ. eigenvalues --   -0.93371  -0.92455  -0.91755  -0.90874  -0.89716
 Alpha  occ. eigenvalues --   -0.87587  -0.87224  -0.87178  -0.85602  -0.84551
 Alpha  occ. eigenvalues --   -0.83411  -0.82361  -0.80357  -0.80061  -0.78737
 Alpha  occ. eigenvalues --   -0.77941  -0.77386  -0.76353  -0.76193  -0.75983
 Alpha  occ. eigenvalues --   -0.75726  -0.75245  -0.74967  -0.73320  -0.70739
 Alpha  occ. eigenvalues --   -0.69052  -0.68601  -0.66573  -0.65101  -0.64322
 Alpha  occ. eigenvalues --   -0.63827  -0.62072  -0.61671  -0.61219  -0.60242
 Alpha  occ. eigenvalues --   -0.59644  -0.59016  -0.58284  -0.57325  -0.56118
 Alpha  occ. eigenvalues --   -0.55862  -0.55040  -0.54726  -0.54517  -0.54048
 Alpha  occ. eigenvalues --   -0.53368  -0.53009  -0.52323  -0.52226  -0.51275
 Alpha  occ. eigenvalues --   -0.51245  -0.50841  -0.50027  -0.49911  -0.49760
 Alpha  occ. eigenvalues --   -0.49497  -0.49104  -0.48640  -0.48386  -0.48216
 Alpha  occ. eigenvalues --   -0.48012  -0.47577  -0.46771  -0.46529  -0.46178
 Alpha  occ. eigenvalues --   -0.45785  -0.45470  -0.45123  -0.44803  -0.44763
 Alpha  occ. eigenvalues --   -0.44502  -0.44411  -0.44278  -0.44166  -0.43698
 Alpha  occ. eigenvalues --   -0.43697  -0.43187  -0.42750  -0.42457  -0.42274
 Alpha  occ. eigenvalues --   -0.42020  -0.41814  -0.41574  -0.41512  -0.41173
 Alpha  occ. eigenvalues --   -0.40604  -0.40271  -0.39857  -0.39639  -0.39302
 Alpha  occ. eigenvalues --   -0.39139  -0.38773  -0.38580  -0.37980  -0.37576
 Alpha  occ. eigenvalues --   -0.37073  -0.36794  -0.36692  -0.36238  -0.35610
 Alpha  occ. eigenvalues --   -0.34677  -0.33953  -0.33565  -0.32722  -0.31992
 Alpha  occ. eigenvalues --   -0.31406  -0.30401  -0.29102  -0.26998  -0.23447
 Alpha  occ. eigenvalues --   -0.19922
 Alpha virt. eigenvalues --   -0.05514  -0.01205   0.02721   0.05339   0.06516
 Alpha virt. eigenvalues --    0.08616   0.10359   0.11155   0.11602   0.11955
 Alpha virt. eigenvalues --    0.12582   0.12929   0.13426   0.13616   0.13913

 Mulliken charges:
               1
     1  O   -0.533414
     2  O   -0.558354
     3  C   -0.017816
     4  C   -0.123129
     5  C   -0.164105
     6  C    0.066656
     7  C    0.105755
     8  C   -0.024552
     9  C   -0.308429
    10  C   -0.286242
    11  C   -0.200140
    12  C   -0.064856
    13  C    0.174203
    14  C    0.083466
    15  C   -0.086940
    16  C   -0.209702
    17  C    0.021446
    18  C   -0.248492
    19  C   -0.291110
    20  C   -0.356020
    21  C   -0.110287
    22  C   -0.114272
    23  C   -0.342954
    24  C    0.110201
    25  C   -0.118546
    26  C   -0.367431
    27  C    0.027248
    28  C   -0.137313
    29  C   -0.340313
    30  C   -0.104886
    31  C   -0.035818
    32  C   -0.076504
    33  C   -0.115347
    34  C    0.067581
    35  C   -0.111803
    36  C    0.104665
    37  C   -0.368027
    38  C   -0.133058
    39  C   -0.129629
    40  C   -0.354136
    41  C   -0.063130
    42  C   -0.103905
    43  H    0.097558
    44  H    0.128616
    45  H    0.103174
    46  H    0.074964
    47  H    0.086685
    48  H    0.112600
    49  H    0.096999
    50  H    0.131858
    51  H    0.101450
    52  H    0.033925
    53  H    0.107896
    54  H    0.062227
    55  H    0.062746
    56  H    0.065592
    57  H    0.091310
    58  H    0.121775
    59  H    0.127918
    60  H    0.098054
    61  H    0.098942
    62  H    0.083132
    63  H    0.102497
    64  H    0.111531
    65  H    0.066500
    66  H    0.118826
    67  H    0.118823
    68  H    0.099546
    69  H    0.299714
    70  H    0.080157
    71  H    0.092585
    72  H    0.084671
    73  H    0.134667
    74  H    0.090055
    75  H    0.302987
    76  H    0.080477
    77  H    0.112910
    78  H    0.128763
    79  H    0.120865
    80  H    0.064726
    81  H    0.145854
    82  H    0.105979
    83  H    0.097362
    84  H    0.071120
    85  H    0.066694
    86  H    0.076640
    87  H    0.081245
    88  H    0.070792
    89  H    0.119053
    90  H    0.144785
    91  H    0.101146
    92  H    0.083041
    93  H    0.074936
    94  H    0.129479
    95  H    0.094270
    96  H    0.127939
    97  H    0.078327
    98  H    0.073052
 Sum of Mulliken charges =  -0.00000

 Dipole moment (field-independent basis, Debye):
    X=             -0.3199    Y=             -1.1624    Z=             -0.2306  Tot=              1.2274
 Quadrupole moment (field-independent basis, Debye-Ang):
   XX=           -277.8407   YY=           -240.0671   ZZ=           -262.1701
   XY=              9.7699   XZ=             30.5872   YZ=              2.7209

 Normal termination of Gaussian 16 at Mon Jul 15 14:06:11 2019.
