 Gaussian 16, Revision A.03,
 Gaussian 16:  ES64L-G16RevA.03 25-Dec-2016

 -------------------------------------
 # td=(NStates=1) CAM-B3LYP/6-31G(d,p)
 -------------------------------------

 --
 TD
 --
 Symbolic Z-matrix:
 Charge =  0 Multiplicity = 1

                         Standard orientation:
 ---------------------------------------------------------------------
 Center     Atomic      Atomic             Coordinates (Angstroms)
 Number     Number       Type             X           Y           Z
 ---------------------------------------------------------------------
      1          8           0      -14.076373   -1.968175    0.345877
      2          8           0       14.773061    0.789852    0.362659
      3          6           0      -11.662811   -0.073769    1.423418
      4          6           0      -10.861885    0.338712    0.137426
      5          6           0      -11.854687   -1.650136    1.432353
      6          6           0      -12.619754   -2.089191    0.163867
      7          6           0      -11.552792   -0.220581   -1.126000
      8          6           0       11.001063    0.981600    1.143951
      9          6           0      -10.868218    0.244473    2.668130
     10          6           0      -13.008173    0.720845    1.455002
     11          6           0       12.420576    1.533959    0.863755
     12          6           0      -12.239172   -1.360565   -1.079550
     13          6           0       13.381388    0.323629    0.477907
     14          6           0       10.567305    0.075651   -0.030842
     15          6           0       -9.417438   -0.080158    0.198380
     16          6           0       12.934110   -0.159581   -0.885086
     17          6           0       11.520774   -0.453873   -0.873860
     18          6           0       10.057313    2.205710    1.228875
     19          6           0       10.942208    0.288696    2.534046
     20          6           0      -11.153856    0.433885   -2.484238
     21          6           0       -8.449260    0.814346   -0.072570
     22          6           0        9.185320   -0.329888   -0.034196
     23          6           0       11.154313   -1.340265   -2.036393
     24          6           0       -7.082032    0.443897   -0.191793
     25          6           0        8.743029   -1.727521   -0.086837
     26          6           0       -6.611440   -0.908702    0.013972
     27          6           0        7.331104   -2.124375   -0.061983
     28          6           0       -6.197355    1.500554   -0.501953
     29          6           0        7.201301   -3.676360    0.313876
     30          6           0        6.255427   -1.267042   -0.370837
     31          6           0       -4.809093    1.478105   -0.499203
     32          6           0        4.972164   -1.530793   -0.347964
     33          6           0       -3.950132    2.569606   -0.664376
     34          6           0       -2.639183    2.687263   -0.673078
     35          6           0        3.925692   -0.568398   -0.481142
     36          6           0        2.554806   -0.837064   -0.442831
     37          6           0       -1.892140    3.995710   -0.815403
     38          6           0       -1.784348    1.487524   -0.372732
     39          6           0        1.698570    0.225760   -0.603984
     40          6           0        1.984065   -2.265918   -0.259852
     41          6           0       -0.359285    1.545191   -0.664102
     42          6           0        0.327351    0.366419   -0.521304
     43          1           0      -10.835270    1.349556    0.274382
     44          1           0      -12.570444   -1.687628    2.247859
     45          1           0      -10.855059   -2.260893    1.691455
     46          1           0      -12.379317   -3.275988    0.033829
     47          1           0       -9.949465   -0.090960    2.525350
     48          1           0      -10.586447    1.408867    2.656847
     49          1           0      -11.325476    0.139667    3.581703
     50          1           0      -13.740928    0.698866    0.622083
     51          1           0      -13.452811    0.499160    2.634189
     52          1           0      -12.647286    1.899095    1.592624
     53          1           0       12.540237    2.241313    0.072117
     54          1           0       12.784501    1.825202    1.696496
     55          1           0      -12.772884   -2.127570   -1.843289
     56          1           0       13.421288   -0.365541    1.198382
     57          1           0       -9.061448   -1.157574    0.313612
     58          1           0       13.422298   -1.080426   -1.183580
     59          1           0       13.050347    0.785988   -1.461526
     60          1           0        9.128734    1.904461    1.764434
     61          1           0       10.003696    2.597112    0.107481
     62          1           0       10.543546    3.016754    1.810511
     63          1           0       11.710531   -0.648188    2.516365
     64          1           0       10.082294   -0.262613    2.644153
     65          1           0       11.004292    0.990142    3.500106
     66          1           0      -10.007347    0.773520   -2.529041
     67          1           0      -11.640703    1.371151   -2.463790
     68          1           0      -11.518714   -0.134849   -3.358989
     69          1           0      -14.527370   -2.318609   -0.459369
     70          1           0        8.261927    0.406867    0.066433
     71          1           0       -8.708182    1.888692   -0.197680
     72          1           0       11.451635   -2.326267   -1.649946
     73          1           0       10.310173   -1.324610   -2.285638
     74          1           0       11.443088   -0.867336   -2.817037
     75          1           0       15.008790    1.325520    1.267585
     76          1           0        9.535397   -2.383390   -0.032748
     77          1           0       -5.574589   -1.032652   -0.469229
     78          1           0       -6.449287   -1.203110    1.107489
     79          1           0       -7.477290   -1.465824   -0.401715
     80          1           0       -6.394942    2.508456   -0.630922
     81          1           0        6.562167   -3.653375    1.283755
     82          1           0        6.500730   -4.429059   -0.541191
     83          1           0        8.220164   -4.200453    0.360033
     84          1           0        6.448691   -0.258462   -0.591181
     85          1           0       -4.179208    0.537790   -0.607176
     86          1           0        4.477747   -2.512474   -0.025660
     87          1           0       -4.593075    3.447043   -0.932078
     88          1           0        4.339887    0.458704   -0.507863
     89          1           0       -1.153023    4.093971   -1.723230
     90          1           0       -1.106227    4.331744    0.107236
     91          1           0       -2.661388    4.654550   -0.994252
     92          1           0       -2.219768    0.532317    0.086963
     93          1           0        2.342665    1.150923   -0.659317
     94          1           0        2.149503   -2.579988    0.811497
     95          1           0        0.863865   -2.465790   -0.787725
     96          1           0        2.470387   -2.816452   -0.931386
     97          1           0        0.118422    2.507793   -1.153238
     98          1           0       -0.251501   -0.572702   -0.241552
 ---------------------------------------------------------------------

 SCF Done:  E(RCAM-B3LYP) =  -1706.82189444     A.U. after   18 cycles

 Excitation energies and oscillator strengths:

 Excited State   1:      Singlet-A      1.6216 eV  764.59 nm  f=2.9128  <S**2>=0.000
     155 ->158         0.13345
     156 ->157         0.70532
     156 <-157        -0.14077
 This state for optimization and/or second-order correction.
 Total Energy, E(TD-HF/TD-DFT) =  -1706.76230220
 Copying the excited state density for this state as the 1-particle RhoCI density.

 The electronic state is 1-A.
 Alpha  occ. eigenvalues --  -19.21148 -19.21011 -10.31504 -10.29447 -10.29191
 Alpha  occ. eigenvalues --  -10.28914 -10.27933 -10.27852 -10.27808 -10.27608
 Alpha  occ. eigenvalues --  -10.27598 -10.27410 -10.27395 -10.27206 -10.27187
 Alpha  occ. eigenvalues --  -10.26824 -10.26814 -10.26788 -10.26763 -10.26738
 Alpha  occ. eigenvalues --  -10.26608 -10.26540 -10.26388 -10.26334 -10.26208
 Alpha  occ. eigenvalues --  -10.26179 -10.26125 -10.26097 -10.26072 -10.26039
 Alpha  occ. eigenvalues --  -10.25988 -10.25831 -10.25782 -10.25682 -10.25655
 Alpha  occ. eigenvalues --  -10.25639 -10.25511 -10.25354 -10.25276 -10.23686
 Alpha  occ. eigenvalues --  -10.22879 -10.21581  -1.07377  -1.05775  -0.93994
 Alpha  occ. eigenvalues --   -0.93457  -0.92207  -0.91888  -0.90583  -0.89700
 Alpha  occ. eigenvalues --   -0.88440  -0.87102  -0.86173  -0.85557  -0.84762
 Alpha  occ. eigenvalues --   -0.83037  -0.82460  -0.80432  -0.80051  -0.78121
 Alpha  occ. eigenvalues --   -0.77386  -0.76689  -0.76239  -0.76084  -0.75370
 Alpha  occ. eigenvalues --   -0.75016  -0.74795  -0.74023  -0.72059  -0.70048
 Alpha  occ. eigenvalues --   -0.69098  -0.67467  -0.66473  -0.65015  -0.63655
 Alpha  occ. eigenvalues --   -0.63012  -0.61989  -0.61723  -0.60544  -0.59990
 Alpha  occ. eigenvalues --   -0.59654  -0.59467  -0.58444  -0.57045  -0.55891
 Alpha  occ. eigenvalues --   -0.55449  -0.54386  -0.54015  -0.53892  -0.53523
 Alpha  occ. eigenvalues --   -0.53225  -0.52875  -0.52463  -0.52050  -0.51662
 Alpha  occ. eigenvalues --   -0.51166  -0.50796  -0.50660  -0.50212  -0.49233
 Alpha  occ. eigenvalues --   -0.48757  -0.48510  -0.48210  -0.47748  -0.47690
 Alpha  occ. eigenvalues --   -0.47079  -0.46622  -0.46397  -0.46009  -0.45812
 Alpha  occ. eigenvalues --   -0.45600  -0.45285  -0.45123  -0.44877  -0.44346
 Alpha  occ. eigenvalues --   -0.44203  -0.43797  -0.43727  -0.43696  -0.43435
 Alpha  occ. eigenvalues --   -0.43222  -0.43017  -0.42863  -0.42694  -0.42274
 Alpha  occ. eigenvalues --   -0.41714  -0.41555  -0.41393  -0.41049  -0.40685
 Alpha  occ. eigenvalues --   -0.40438  -0.40191  -0.40138  -0.39696  -0.39319
 Alpha  occ. eigenvalues --   -0.38954  -0.38744  -0.38296  -0.38002  -0.37845
 Alpha  occ. eigenvalues --   -0.37249  -0.36670  -0.36553  -0.35810  -0.35628
 Alpha  occ. eigenvalues --   -0.34809  -0.34332  -0.33475  -0.31830  -0.31532
 Alpha  occ. eigenvalues --   -0.31256  -0.29858  -0.28983  -0.27253  -0.22637
 Alpha  occ. eigenvalues --   -0.17698
 Alpha virt. eigenvalues --   -0.07476  -0.02156   0.02828   0.05187   0.06676
 Alpha virt. eigenvalues --    0.08233   0.10242   0.10754   0.10891   0.11742
 Alpha virt. eigenvalues --    0.12434   0.12590   0.12769   0.13369   0.13430

 Mulliken charges:
               1
     1  O   -0.556821
     2  O   -0.590365
     3  C   -0.004372
     4  C   -0.115837
     5  C   -0.177143
     6  C    0.134183
     7  C    0.088574
     8  C   -0.004838
     9  C   -0.288300
    10  C   -0.266415
    11  C   -0.174646
    12  C   -0.089878
    13  C    0.158613
    14  C    0.066374
    15  C   -0.118448
    16  C   -0.199819
    17  C   -0.017720
    18  C   -0.299024
    19  C   -0.309098
    20  C   -0.357185
    21  C   -0.057391
    22  C   -0.136296
    23  C   -0.285091
    24  C    0.101912
    25  C   -0.106192
    26  C   -0.368648
    27  C    0.072011
    28  C   -0.117971
    29  C   -0.339695
    30  C   -0.105129
    31  C   -0.070950
    32  C   -0.066805
    33  C   -0.130961
    34  C    0.091665
    35  C   -0.139167
    36  C    0.106768
    37  C   -0.353057
    38  C   -0.135733
    39  C   -0.122586
    40  C   -0.369307
    41  C   -0.067618
    42  C   -0.089146
    43  H    0.093393
    44  H    0.117633
    45  H    0.089724
    46  H    0.053845
    47  H    0.115448
    48  H    0.059640
    49  H    0.111009
    50  H    0.130195
    51  H    0.066451
    52  H    0.060710
    53  H    0.104003
    54  H    0.077157
    55  H    0.071201
    56  H    0.090572
    57  H    0.085434
    58  H    0.112674
    59  H    0.131412
    60  H    0.104193
    61  H    0.088444
    62  H    0.097617
    63  H    0.074439
    64  H    0.125576
    65  H    0.092103
    66  H    0.108278
    67  H    0.123616
    68  H    0.114470
    69  H    0.304472
    70  H    0.089034
    71  H    0.086180
    72  H    0.115239
    73  H    0.103307
    74  H    0.108818
    75  H    0.298673
    76  H    0.080976
    77  H    0.113961
    78  H    0.121797
    79  H    0.114066
    80  H    0.071634
    81  H    0.124057
    82  H    0.071237
    83  H    0.116149
    84  H    0.078119
    85  H    0.065209
    86  H    0.072968
    87  H    0.062561
    88  H    0.081229
    89  H    0.106359
    90  H    0.104980
    91  H    0.114212
    92  H    0.097413
    93  H    0.067126
    94  H    0.128316
    95  H    0.089149
    96  H    0.142685
    97  H    0.097897
    98  H    0.084497
 Sum of Mulliken charges =  -0.00000

 Dipole moment (field-independent basis, Debye):
    X=              1.4818    Y=             -0.5033    Z=             -0.0042  Tot=              1.5650
 Quadrupole moment (field-independent basis, Debye-Ang):
   XX=           -292.6315   YY=           -245.8748   ZZ=           -260.4812
   XY=              6.1899   XZ=             36.5552   YZ=              0.9544

 Normal termination of Gaussian 16 at Sat Jul 13 14:53:27 2019.
