 Gaussian 16, Revision A.03,
 Gaussian 16:  ES64L-G16RevA.03 25-Dec-2016

 -------------------------------------
 # td=(NStates=1) CAM-B3LYP/6-31G(d,p)
 -------------------------------------

 --
 TD
 --
 Symbolic Z-matrix:
 Charge =  0 Multiplicity = 1

                         Standard orientation:
 ---------------------------------------------------------------------
 Center     Atomic      Atomic             Coordinates (Angstroms)
 Number     Number       Type             X           Y           Z
 ---------------------------------------------------------------------
      1          8           0      -14.134200   -1.980332    0.619134
      2          8           0       14.789077    0.969294    0.248391
      3          6           0      -11.821465    0.184648    1.314737
      4          6           0      -10.969868    0.347101   -0.074968
      5          6           0      -11.998088   -1.363556    1.523665
      6          6           0      -12.759892   -2.047676    0.377692
      7          6           0      -11.711325   -0.428298   -1.240470
      8          6           0       11.149214    1.002622    1.149737
      9          6           0      -11.067313    0.749139    2.534275
     10          6           0      -13.199906    0.795902    1.128523
     11          6           0       12.551122    1.528678    0.738389
     12          6           0      -12.405225   -1.476730   -0.988619
     13          6           0       13.500110    0.458393    0.434206
     14          6           0       10.696008   -0.007697   -0.002426
     15          6           0       -9.485091    0.020110    0.001015
     16          6           0       13.063080   -0.106379   -0.958110
     17          6           0       11.596797   -0.536685   -0.882341
     18          6           0       10.147603    2.167584    1.042029
     19          6           0       11.056212    0.321675    2.517752
     20          6           0      -11.180670   -0.070002   -2.649295
     21          6           0       -8.546926    0.976804   -0.080690
     22          6           0        9.338613   -0.380019    0.144581
     23          6           0       11.189158   -1.365300   -2.093543
     24          6           0       -7.109609    0.409351   -0.100517
     25          6           0        8.836814   -1.636883   -0.103771
     26          6           0       -6.845853   -0.930013    0.125599
     27          6           0        7.448173   -2.143035   -0.078643
     28          6           0       -6.147523    1.426965   -0.420176
     29          6           0        7.113603   -3.573287    0.159403
     30          6           0        6.337019   -1.322542   -0.125826
     31          6           0       -4.739519    1.364947   -0.437154
     32          6           0        5.072929   -1.520974   -0.046488
     33          6           0       -3.990275    2.531612   -0.698188
     34          6           0       -2.575454    2.529608   -0.770197
     35          6           0        4.078398   -0.612840   -0.284496
     36          6           0        2.710691   -0.827171   -0.205523
     37          6           0       -2.018387    3.887740   -0.929365
     38          6           0       -1.791220    1.490641   -0.552769
     39          6           0        1.799098    0.285895   -0.421087
     40          6           0        2.246240   -2.235933    0.189376
     41          6           0       -0.437126    1.375483   -0.613189
     42          6           0        0.385418    0.241427   -0.370046
     43          1           0      -11.129765    1.483261   -0.456440
     44          1           0      -12.530997   -1.533320    2.452069
     45          1           0      -10.920487   -1.871800    1.571870
     46          1           0      -12.377788   -2.965750    0.392058
     47          1           0      -10.197137    0.360682    2.392036
     48          1           0      -10.988983    1.884307    2.262079
     49          1           0      -11.696231    0.514128    3.516859
     50          1           0      -13.674400    0.136383    0.441431
     51          1           0      -13.838154    0.620933    2.316942
     52          1           0      -13.133898    1.771989    0.820154
     53          1           0       12.382186    2.172448   -0.084946
     54          1           0       13.032476    2.204420    1.499099
     55          1           0      -12.988840   -2.033187   -1.760366
     56          1           0       13.512502   -0.462685    1.094346
     57          1           0       -9.426116   -1.038951    0.245512
     58          1           0       13.589576   -0.970950   -1.439842
     59          1           0       13.037954    0.845482   -1.729289
     60          1           0        8.923691    2.053060    1.081471
     61          1           0       10.305343    2.593160   -0.003773
     62          1           0       10.304952    2.942723    1.810198
     63          1           0       11.987738   -0.632250    2.410802
     64          1           0       10.198933   -0.229292    2.724399
     65          1           0       11.213084    1.010420    3.199248
     66          1           0      -10.223491   -0.490136   -2.865012
     67          1           0      -11.443147    1.135601   -2.812923
     68          1           0      -11.803442   -0.741287   -3.340725
     69          1           0      -14.452567   -2.381878   -0.265897
     70          1           0        8.542052    0.450336    0.172299
     71          1           0       -8.598332    2.086102   -0.071226
     72          1           0       11.660107   -2.368960   -2.165956
     73          1           0       10.051348   -1.478062   -2.299746
     74          1           0       11.640509   -0.990217   -3.032667
     75          1           0       15.249971    0.760394    1.350227
     76          1           0        9.541144   -2.473119   -0.301414
     77          1           0       -5.772033   -1.138846    0.317812
     78          1           0       -7.355471   -1.446321    0.994387
     79          1           0       -7.081074   -1.423304   -0.833195
     80          1           0       -6.527200    2.306404   -0.750426
     81          1           0        6.461780   -3.659310    1.102622
     82          1           0        6.482496   -3.971580   -0.725354
     83          1           0        7.964375   -4.249526    0.416750
     84          1           0        6.439194   -0.318544   -0.429224
     85          1           0       -4.248582    0.401240   -0.342259
     86          1           0        4.706358   -2.593455    0.223105
     87          1           0       -4.644137    3.494173   -0.670351
     88          1           0        4.206083    0.409661   -0.565425
     89          1           0       -1.312087    3.938870   -1.801173
     90          1           0       -1.153546    4.157872   -0.203250
     91          1           0       -2.724351    4.804964   -0.987990
     92          1           0       -2.210467    0.619885   -0.189069
     93          1           0        2.289763    1.295649   -0.580106
     94          1           0        2.849756   -2.476104    1.101847
     95          1           0        1.203438   -2.282981    0.419785
     96          1           0        2.386152   -2.818828   -0.687407
     97          1           0        0.123510    2.208611   -1.049413
     98          1           0       -0.166166   -0.602039   -0.343240
 ---------------------------------------------------------------------

 SCF Done:  E(RCAM-B3LYP) =  -1706.92031635     A.U. after   16 cycles

 Excitation energies and oscillator strengths:

 Excited State   1:      Singlet-A      1.8465 eV  671.45 nm  f=3.1469  <S**2>=0.000
     155 ->158         0.13605
     156 ->157         0.69950
     156 <-157        -0.11619
 This state for optimization and/or second-order correction.
 Total Energy, E(TD-HF/TD-DFT) =  -1706.85245854
 Copying the excited state density for this state as the 1-particle RhoCI density.

 The electronic state is 1-A.
 Alpha  occ. eigenvalues --  -19.22994 -19.22592 -10.30517 -10.29566 -10.28123
 Alpha  occ. eigenvalues --  -10.27817 -10.27723 -10.27664 -10.27432 -10.27391
 Alpha  occ. eigenvalues --  -10.27266 -10.27137 -10.26985 -10.26938 -10.26897
 Alpha  occ. eigenvalues --  -10.26840 -10.26825 -10.26694 -10.26585 -10.26469
 Alpha  occ. eigenvalues --  -10.26308 -10.26307 -10.26215 -10.26155 -10.26010
 Alpha  occ. eigenvalues --  -10.25964 -10.25920 -10.25723 -10.25552 -10.25516
 Alpha  occ. eigenvalues --  -10.25445 -10.25396 -10.25257 -10.25240 -10.25105
 Alpha  occ. eigenvalues --  -10.24990 -10.24882 -10.24566 -10.24058 -10.24022
 Alpha  occ. eigenvalues --  -10.23884 -10.23302  -1.10785  -1.07889  -0.93092
 Alpha  occ. eigenvalues --   -0.92979  -0.92649  -0.92274  -0.91078  -0.89555
 Alpha  occ. eigenvalues --   -0.87215  -0.86675  -0.86315  -0.85518  -0.84728
 Alpha  occ. eigenvalues --   -0.83334  -0.82351  -0.80891  -0.79624  -0.78803
 Alpha  occ. eigenvalues --   -0.76741  -0.76399  -0.76151  -0.75801  -0.75301
 Alpha  occ. eigenvalues --   -0.75214  -0.74454  -0.74114  -0.72345  -0.69730
 Alpha  occ. eigenvalues --   -0.68595  -0.67555  -0.65979  -0.64329  -0.63510
 Alpha  occ. eigenvalues --   -0.63158  -0.62744  -0.61745  -0.60863  -0.60416
 Alpha  occ. eigenvalues --   -0.60074  -0.58428  -0.58080  -0.57611  -0.56532
 Alpha  occ. eigenvalues --   -0.55261  -0.54763  -0.54428  -0.54317  -0.53806
 Alpha  occ. eigenvalues --   -0.53357  -0.53155  -0.52521  -0.52031  -0.51471
 Alpha  occ. eigenvalues --   -0.50790  -0.50423  -0.50220  -0.49920  -0.49664
 Alpha  occ. eigenvalues --   -0.49525  -0.48372  -0.48216  -0.47867  -0.47592
 Alpha  occ. eigenvalues --   -0.47471  -0.46971  -0.46782  -0.46684  -0.46327
 Alpha  occ. eigenvalues --   -0.46021  -0.45880  -0.45422  -0.45266  -0.44822
 Alpha  occ. eigenvalues --   -0.44748  -0.44071  -0.44016  -0.43419  -0.43402
 Alpha  occ. eigenvalues --   -0.43290  -0.42862  -0.42617  -0.42572  -0.41909
 Alpha  occ. eigenvalues --   -0.41836  -0.41491  -0.41055  -0.40792  -0.40541
 Alpha  occ. eigenvalues --   -0.40451  -0.39992  -0.39889  -0.39350  -0.39022
 Alpha  occ. eigenvalues --   -0.38580  -0.38498  -0.38297  -0.37744  -0.37522
 Alpha  occ. eigenvalues --   -0.37115  -0.36487  -0.36142  -0.35798  -0.35290
 Alpha  occ. eigenvalues --   -0.35012  -0.34102  -0.33200  -0.32479  -0.32010
 Alpha  occ. eigenvalues --   -0.31602  -0.30939  -0.28891  -0.26677  -0.23381
 Alpha  occ. eigenvalues --   -0.18226
 Alpha virt. eigenvalues --   -0.06780  -0.01354   0.03021   0.05707   0.05896
 Alpha virt. eigenvalues --    0.06998   0.08510   0.10328   0.11242   0.11944
 Alpha virt. eigenvalues --    0.12195   0.12392   0.13081   0.13284   0.13744

 Mulliken charges:
               1
     1  O   -0.521293
     2  O   -0.544199
     3  C    0.000245
     4  C   -0.141565
     5  C   -0.183588
     6  C    0.136821
     7  C    0.090357
     8  C   -0.007376
     9  C   -0.262875
    10  C   -0.252269
    11  C   -0.164610
    12  C   -0.138896
    13  C    0.172569
    14  C    0.046662
    15  C   -0.081789
    16  C   -0.217012
    17  C    0.057815
    18  C   -0.310949
    19  C   -0.262218
    20  C   -0.337655
    21  C   -0.084390
    22  C   -0.099319
    23  C   -0.378022
    24  C    0.112128
    25  C   -0.124524
    26  C   -0.396782
    27  C    0.074283
    28  C   -0.130117
    29  C   -0.380423
    30  C   -0.088355
    31  C   -0.053264
    32  C   -0.080778
    33  C   -0.158724
    34  C    0.158981
    35  C   -0.100453
    36  C    0.082893
    37  C   -0.401351
    38  C   -0.106202
    39  C   -0.142384
    40  C   -0.365462
    41  C   -0.092328
    42  C   -0.079669
    43  H    0.057826
    44  H    0.109454
    45  H    0.060475
    46  H    0.096743
    47  H    0.108849
    48  H    0.076853
    49  H    0.090488
    50  H    0.130761
    51  H    0.035136
    52  H    0.096211
    53  H    0.113129
    54  H    0.077487
    55  H    0.059118
    56  H    0.084292
    57  H    0.103217
    58  H    0.099959
    59  H    0.097688
    60  H    0.085442
    61  H    0.100570
    62  H    0.096250
    63  H    0.037337
    64  H    0.127151
    65  H    0.109765
    66  H    0.138946
    67  H    0.095334
    68  H    0.094624
    69  H    0.305244
    70  H    0.092179
    71  H    0.111155
    72  H    0.105363
    73  H    0.117847
    74  H    0.106316
    75  H    0.290089
    76  H    0.083187
    77  H    0.113795
    78  H    0.119071
    79  H    0.136614
    80  H    0.069554
    81  H    0.118616
    82  H    0.117083
    83  H    0.104507
    84  H    0.064318
    85  H    0.087560
    86  H    0.069361
    87  H    0.091450
    88  H    0.073478
    89  H    0.117566
    90  H    0.113891
    91  H    0.108752
    92  H    0.066035
    93  H    0.082339
    94  H    0.123161
    95  H    0.107557
    96  H    0.132940
    97  H    0.066622
    98  H    0.077332
 Sum of Mulliken charges =  -0.00000

 Dipole moment (field-independent basis, Debye):
    X=             -0.6257    Y=             -1.8743    Z=             -0.5491  Tot=              2.0508
 Quadrupole moment (field-independent basis, Debye-Ang):
   XX=           -282.7009   YY=           -245.2607   ZZ=           -262.8790
   XY=              4.4844   XZ=             41.7812   YZ=              1.9274

 Normal termination of Gaussian 16 at Sun Jul 14 00:24:09 2019.
