 Gaussian 16, Revision A.03,
 Gaussian 16:  ES64L-G16RevA.03 25-Dec-2016

 -------------------------------------
 # td=(NStates=1) CAM-B3LYP/6-31G(d,p)
 -------------------------------------

 --
 TD
 --
 Symbolic Z-matrix:
 Charge =  0 Multiplicity = 1

                         Standard orientation:
 ---------------------------------------------------------------------
 Center     Atomic      Atomic             Coordinates (Angstroms)
 Number     Number       Type             X           Y           Z
 ---------------------------------------------------------------------
      1          8           0      -14.159477   -2.133592    0.439553
      2          8           0       14.824905    1.075396   -0.109983
      3          6           0      -11.920368    0.276433    1.206812
      4          6           0      -11.088561    0.340134   -0.147782
      5          6           0      -12.185864   -1.272624    1.531704
      6          6           0      -12.761563   -2.195276    0.339332
      7          6           0      -11.565124   -0.565401   -1.251392
      8          6           0       11.109389    1.031292    0.894131
      9          6           0      -11.066376    0.846510    2.390059
     10          6           0      -13.185035    0.966810    0.956346
     11          6           0       12.547624    1.547409    0.522771
     12          6           0      -12.273971   -1.687399   -1.002441
     13          6           0       13.552314    0.449081    0.272692
     14          6           0       10.748902   -0.062212   -0.135108
     15          6           0       -9.583675    0.017808   -0.093836
     16          6           0       13.081828   -0.305037   -0.868283
     17          6           0       11.603238   -0.642223   -0.972767
     18          6           0       10.162455    2.257443    0.664826
     19          6           0       11.103109    0.464725    2.356366
     20          6           0      -11.187990   -0.240986   -2.702052
     21          6           0       -8.591075    0.851634   -0.390229
     22          6           0        9.303094   -0.432582    0.010245
     23          6           0       11.159260   -1.562307   -1.994013
     24          6           0       -7.154176    0.606445   -0.206296
     25          6           0        8.852682   -1.758085    0.115372
     26          6           0       -6.801072   -0.880186    0.080535
     27          6           0        7.461137   -2.215842    0.089824
     28          6           0       -6.183804    1.567115   -0.346091
     29          6           0        7.234432   -3.659331    0.350815
     30          6           0        6.438792   -1.284727   -0.083079
     31          6           0       -4.756797    1.600724   -0.253742
     32          6           0        4.992028   -1.504287    0.033149
     33          6           0       -3.942003    2.708250   -0.536736
     34          6           0       -2.541188    2.672777   -0.584836
     35          6           0        3.990546   -0.617115   -0.148469
     36          6           0        2.614616   -0.858792    0.094145
     37          6           0       -1.847056    3.935038   -0.729807
     38          6           0       -1.741184    1.475327   -0.473196
     39          6           0        1.766224    0.258048   -0.189806
     40          6           0        2.146913   -2.059498    0.579018
     41          6           0       -0.409816    1.375089   -0.485737
     42          6           0        0.368246    0.227805   -0.095815
     43          1           0      -11.336266    1.622527   -0.348053
     44          1           0      -12.827461   -1.676291    2.430183
     45          1           0      -11.191348   -1.834474    1.866523
     46          1           0      -12.387583   -3.224837    0.592670
     47          1           0      -10.124470    0.377624    2.452330
     48          1           0      -10.647855    1.864347    2.083181
     49          1           0      -11.702521    0.786488    3.277895
     50          1           0      -13.714142    0.506766   -0.044841
     51          1           0      -14.050034    0.860194    1.633659
     52          1           0      -12.968278    1.968102    0.787884
     53          1           0       12.322834    2.120674   -0.434725
     54          1           0       12.836209    2.287112    1.365327
     55          1           0      -12.787551   -2.268506   -1.818812
     56          1           0       13.478727   -0.138599    1.265369
     57          1           0       -9.401186   -1.109487    0.370162
     58          1           0       13.628409   -1.271551   -1.069072
     59          1           0       13.590480    0.253414   -1.893278
     60          1           0        9.173417    1.934865    1.305671
     61          1           0        9.787958    2.332944   -0.233213
     62          1           0       10.487702    2.919316    1.182600
     63          1           0       11.940430   -0.082965    2.508740
     64          1           0        9.993620   -0.029952    2.391680
     65          1           0       11.185431    1.352561    3.027175
     66          1           0       -9.988614   -0.226511   -2.782815
     67          1           0      -11.753134    0.668069   -3.118845
     68          1           0      -11.595345   -1.243479   -3.329630
     69          1           0      -14.479026   -2.626765   -0.491038
     70          1           0        8.781708    0.527611    0.144025
     71          1           0       -8.860640    1.965712   -0.785723
     72          1           0       11.189204   -2.604610   -1.618102
     73          1           0       10.115802   -1.495033   -2.187433
     74          1           0       11.830591   -1.551664   -2.749593
     75          1           0       15.294292    1.459800    0.607999
     76          1           0        9.478968   -2.696162   -0.046295
     77          1           0       -5.692493   -1.046826    0.287031
     78          1           0       -7.127701   -1.486424    1.069710
     79          1           0       -7.115237   -1.601986   -0.757422
     80          1           0       -6.654407    2.463462   -0.718659
     81          1           0        7.315248   -3.976585    1.558335
     82          1           0        6.053298   -3.689006   -0.138147
     83          1           0        7.899138   -4.443728   -0.314583
     84          1           0        6.817169   -0.160144   -0.247173
     85          1           0       -4.344576    0.559729   -0.075389
     86          1           0        4.646927   -2.422157    0.259556
     87          1           0       -4.707043    3.509510   -0.513141
     88          1           0        4.228299    0.292280   -0.463269
     89          1           0       -0.806652    3.984407   -1.260371
     90          1           0       -1.296206    4.300227    0.179508
     91          1           0       -2.589349    4.671911   -1.125824
     92          1           0       -2.245956    0.647352   -0.282966
     93          1           0        2.256294    1.276636   -0.693112
     94          1           0        2.676001   -2.462660    1.389590
     95          1           0        0.986216   -2.163454    0.551340
     96          1           0        2.159861   -3.114256   -0.174114
     97          1           0        0.475080    2.152750   -0.672075
     98          1           0       -0.258453   -0.584602    0.383238
 ---------------------------------------------------------------------

 SCF Done:  E(RCAM-B3LYP) =  -1706.82357775     A.U. after   15 cycles

 Excitation energies and oscillator strengths:

 Excited State   1:      Singlet-A      1.8784 eV  660.06 nm  f=2.8070  <S**2>=0.000
     155 ->158         0.12327
     156 ->157         0.70274
     156 <-157        -0.12055
 This state for optimization and/or second-order correction.
 Total Energy, E(TD-HF/TD-DFT) =  -1706.75454853
 Copying the excited state density for this state as the 1-particle RhoCI density.

 The electronic state is 1-A.
 Alpha  occ. eigenvalues --  -19.22552 -19.20981 -10.31172 -10.30969 -10.29480
 Alpha  occ. eigenvalues --  -10.29264 -10.28880 -10.28415 -10.28318 -10.28275
 Alpha  occ. eigenvalues --  -10.28143 -10.27971 -10.27775 -10.27721 -10.27669
 Alpha  occ. eigenvalues --  -10.27662 -10.27533 -10.27398 -10.27356 -10.27342
 Alpha  occ. eigenvalues --  -10.27274 -10.27258 -10.27140 -10.26977 -10.26965
 Alpha  occ. eigenvalues --  -10.26733 -10.26717 -10.26630 -10.26556 -10.26115
 Alpha  occ. eigenvalues --  -10.25917 -10.25763 -10.25424 -10.25272 -10.25140
 Alpha  occ. eigenvalues --  -10.25070 -10.24627 -10.24617 -10.24494 -10.23961
 Alpha  occ. eigenvalues --  -10.23301 -10.23218  -1.08572  -1.08424  -0.93655
 Alpha  occ. eigenvalues --   -0.92929  -0.92823  -0.92123  -0.90231  -0.89700
 Alpha  occ. eigenvalues --   -0.87510  -0.87413  -0.86556  -0.85453  -0.84821
 Alpha  occ. eigenvalues --   -0.83293  -0.81595  -0.80258  -0.79527  -0.79166
 Alpha  occ. eigenvalues --   -0.77764  -0.76234  -0.76047  -0.75908  -0.75326
 Alpha  occ. eigenvalues --   -0.74870  -0.74712  -0.73644  -0.72417  -0.70328
 Alpha  occ. eigenvalues --   -0.69116  -0.66819  -0.65879  -0.64960  -0.63355
 Alpha  occ. eigenvalues --   -0.62899  -0.62425  -0.61938  -0.60965  -0.60414
 Alpha  occ. eigenvalues --   -0.59064  -0.58668  -0.57902  -0.56747  -0.56382
 Alpha  occ. eigenvalues --   -0.55876  -0.54927  -0.54548  -0.54362  -0.53814
 Alpha  occ. eigenvalues --   -0.53460  -0.53218  -0.52863  -0.52395  -0.51869
 Alpha  occ. eigenvalues --   -0.51072  -0.50830  -0.50419  -0.49963  -0.49023
 Alpha  occ. eigenvalues --   -0.48964  -0.48617  -0.47642  -0.47493  -0.47164
 Alpha  occ. eigenvalues --   -0.46981  -0.46872  -0.46651  -0.46539  -0.46298
 Alpha  occ. eigenvalues --   -0.45868  -0.45429  -0.45165  -0.44858  -0.44719
 Alpha  occ. eigenvalues --   -0.44328  -0.44164  -0.43468  -0.43463  -0.43285
 Alpha  occ. eigenvalues --   -0.42754  -0.42567  -0.42266  -0.41822  -0.41546
 Alpha  occ. eigenvalues --   -0.41424  -0.40883  -0.40585  -0.40478  -0.40240
 Alpha  occ. eigenvalues --   -0.39854  -0.39656  -0.39427  -0.38729  -0.38583
 Alpha  occ. eigenvalues --   -0.38468  -0.38289  -0.38129  -0.38019  -0.38007
 Alpha  occ. eigenvalues --   -0.37222  -0.37159  -0.36312  -0.35833  -0.35567
 Alpha  occ. eigenvalues --   -0.35025  -0.34181  -0.33709  -0.32180  -0.31770
 Alpha  occ. eigenvalues --   -0.31642  -0.29803  -0.28693  -0.26949  -0.24115
 Alpha  occ. eigenvalues --   -0.18841
 Alpha virt. eigenvalues --   -0.07120  -0.01207   0.02031   0.04850   0.06556
 Alpha virt. eigenvalues --    0.08213   0.09894   0.10638   0.10886   0.11423
 Alpha virt. eigenvalues --    0.11801   0.12130   0.12448   0.12711   0.13125

 Mulliken charges:
               1
     1  O   -0.528501
     2  O   -0.566648
     3  C    0.037900
     4  C   -0.127705
     5  C   -0.195757
     6  C    0.142712
     7  C    0.120931
     8  C   -0.054704
     9  C   -0.301091
    10  C   -0.290712
    11  C   -0.181376
    12  C   -0.124338
    13  C    0.184573
    14  C    0.026931
    15  C   -0.092147
    16  C   -0.233713
    17  C    0.102000
    18  C   -0.262888
    19  C   -0.279820
    20  C   -0.336341
    21  C   -0.097635
    22  C   -0.126177
    23  C   -0.372296
    24  C    0.124086
    25  C   -0.100898
    26  C   -0.378764
    27  C    0.094069
    28  C   -0.141807
    29  C   -0.343198
    30  C   -0.101743
    31  C   -0.060510
    32  C   -0.098169
    33  C   -0.135745
    34  C    0.124872
    35  C   -0.078284
    36  C    0.173110
    37  C   -0.390765
    38  C   -0.100765
    39  C   -0.145285
    40  C   -0.405026
    41  C   -0.065067
    42  C   -0.094238
    43  H    0.056609
    44  H    0.099019
    45  H    0.064208
    46  H    0.077198
    47  H    0.117561
    48  H    0.086315
    49  H    0.110634
    50  H    0.095525
    51  H    0.111922
    52  H    0.099342
    53  H    0.096737
    54  H    0.062722
    55  H    0.059744
    56  H    0.077818
    57  H    0.101233
    58  H    0.101813
    59  H    0.096373
    60  H    0.063873
    61  H    0.126284
    62  H    0.096767
    63  H    0.108546
    64  H    0.100441
    65  H    0.089822
    66  H    0.116332
    67  H    0.117474
    68  H    0.081034
    69  H    0.296940
    70  H    0.091030
    71  H    0.078957
    72  H    0.107139
    73  H    0.132518
    74  H    0.111348
    75  H    0.302358
    76  H    0.082512
    77  H    0.099065
    78  H    0.097835
    79  H    0.120818
    80  H    0.071461
    81  H    0.109079
    82  H    0.087434
    83  H    0.099726
    84  H    0.076359
    85  H    0.079749
    86  H    0.067633
    87  H    0.103123
    88  H    0.059166
    89  H    0.110126
    90  H    0.126467
    91  H    0.110384
    92  H    0.068648
    93  H    0.085500
    94  H    0.139759
    95  H    0.112532
    96  H    0.075172
    97  H    0.070649
    98  H    0.092098
 Sum of Mulliken charges =  -0.00000

 Dipole moment (field-independent basis, Debye):
    X=              0.0266    Y=             -0.6838    Z=              0.4587  Tot=              0.8238
 Quadrupole moment (field-independent basis, Debye-Ang):
   XX=           -274.6342   YY=           -245.0216   ZZ=           -266.3823
   XY=              7.1230   XZ=             35.2769   YZ=              2.3544

 Normal termination of Gaussian 16 at Tue Jul 16 08:00:12 2019.
