 Gaussian 16, Revision A.03,
 Gaussian 16:  ES64L-G16RevA.03 25-Dec-2016

 -------------------------------------
 # td=(NStates=1) CAM-B3LYP/6-31G(d,p)
 -------------------------------------

 --
 TD
 --
 Symbolic Z-matrix:
 Charge =  0 Multiplicity = 1

                         Standard orientation:
 ---------------------------------------------------------------------
 Center     Atomic      Atomic             Coordinates (Angstroms)
 Number     Number       Type             X           Y           Z
 ---------------------------------------------------------------------
      1          8           0      -14.114523   -1.912468    0.852358
      2          8           0       14.650629    1.138709    0.396810
      3          6           0      -11.826644    0.250237    1.200981
      4          6           0      -10.981563    0.359002   -0.159620
      5          6           0      -11.974912   -1.223827    1.596041
      6          6           0      -12.676436   -2.121500    0.581787
      7          6           0      -11.489085   -0.670405   -1.126586
      8          6           0       11.048793    0.969709    1.095464
      9          6           0      -10.986789    1.027304    2.329880
     10          6           0      -13.181748    0.921123    1.038719
     11          6           0       12.406186    1.526811    0.969244
     12          6           0      -12.218080   -1.768646   -0.895597
     13          6           0       13.426186    0.537981    0.636655
     14          6           0       10.637719    0.004778    0.064721
     15          6           0       -9.580087    0.055841    0.107738
     16          6           0       12.976077   -0.108677   -0.744687
     17          6           0       11.600660   -0.559993   -0.815549
     18          6           0       10.038834    2.170111    1.104175
     19          6           0       10.959859    0.305462    2.567484
     20          6           0      -10.992476   -0.384367   -2.586961
     21          6           0       -8.545575    0.880452   -0.164957
     22          6           0        9.238910   -0.441367   -0.023338
     23          6           0       11.424157   -1.455475   -2.067371
     24          6           0       -7.086283    0.548586    0.070007
     25          6           0        8.792813   -1.722918   -0.121336
     26          6           0       -6.706448   -0.864436    0.524946
     27          6           0        7.424958   -2.227699   -0.118427
     28          6           0       -6.094301    1.574394   -0.347993
     29          6           0        7.158250   -3.615341    0.025921
     30          6           0        6.380088   -1.218538   -0.263000
     31          6           0       -4.728228    1.459123   -0.400926
     32          6           0        5.004412   -1.503097   -0.212502
     33          6           0       -3.970022    2.543464   -0.742790
     34          6           0       -2.606043    2.655532   -0.870418
     35          6           0        3.922137   -0.714861   -0.494107
     36          6           0        2.586143   -0.862299   -0.311080
     37          6           0       -1.951582    3.940896   -1.365027
     38          6           0       -1.739124    1.468057   -0.642421
     39          6           0        1.787185    0.184727   -0.601719
     40          6           0        2.088386   -2.292343    0.107757
     41          6           0       -0.368128    1.446122   -0.750790
     42          6           0        0.355770    0.201214   -0.590206
     43          1           0      -11.133123    1.377068   -0.525964
     44          1           0      -12.538125   -1.525316    2.596384
     45          1           0      -11.045926   -1.698456    1.794320
     46          1           0      -12.490773   -3.371441    0.695803
     47          1           0      -10.167704    0.453288    2.568051
     48          1           0      -10.810921    2.043789    2.034656
     49          1           0      -11.584933    0.848567    3.365263
     50          1           0      -13.529017    0.479477   -0.018900
     51          1           0      -13.938221    0.658009    1.924275
     52          1           0      -13.199763    2.241338    1.077697
     53          1           0       12.551778    2.130792    0.100909
     54          1           0       12.716917    2.214510    1.898257
     55          1           0      -12.512139   -2.498081   -1.654796
     56          1           0       13.333120   -0.193345    1.360668
     57          1           0       -9.359029   -1.035411    0.477248
     58          1           0       13.898368   -0.840189   -0.828140
     59          1           0       13.173032    0.598328   -1.502402
     60          1           0        9.096558    1.877862    1.604688
     61          1           0        9.721525    2.562209    0.162859
     62          1           0       10.533748    3.074717    1.653816
     63          1           0       11.881820   -0.500527    2.925236
     64          1           0       10.074137   -0.297749    2.521699
     65          1           0       10.889871    1.109385    3.361295
     66          1           0       -9.975905   -0.551118   -2.736450
     67          1           0      -11.491688    0.589823   -3.055118
     68          1           0      -11.348192   -1.207396   -3.270639
     69          1           0      -14.575072   -2.452820    0.117317
     70          1           0        8.399149    0.202221    0.160934
     71          1           0       -8.693875    1.883945   -0.436085
     72          1           0       11.643161   -2.604588   -1.827713
     73          1           0       10.189944   -1.359443   -2.317479
     74          1           0       11.923589   -1.102441   -3.014496
     75          1           0       15.195338    1.321613    1.304941
     76          1           0        9.652103   -2.413941   -0.070877
     77          1           0       -5.571506   -0.882819    0.482070
     78          1           0       -7.230931   -1.208241    1.533878
     79          1           0       -7.140670   -1.464240   -0.277319
     80          1           0       -6.557443    2.497908   -0.933506
     81          1           0        6.823902   -3.846661    1.047949
     82          1           0        6.348018   -3.843955   -0.400374
     83          1           0        7.836561   -4.253753   -0.325317
     84          1           0        6.592663   -0.295522   -0.508669
     85          1           0       -4.335389    0.709755    0.096144
     86          1           0        4.764831   -2.656977    0.040750
     87          1           0       -4.474475    3.401812   -1.169234
     88          1           0        4.338085    0.335219   -0.901174
     89          1           0       -1.531076    3.877172   -2.353554
     90          1           0       -0.870978    4.289943   -0.847362
     91          1           0       -2.836564    4.745772   -1.331283
     92          1           0       -2.157461    0.520501   -0.429010
     93          1           0        2.301168    1.119640   -0.859062
     94          1           0        2.410009   -2.588146    1.241911
     95          1           0        0.943524   -2.295086   -0.140428
     96          1           0        2.488123   -3.234108   -0.660184
     97          1           0        0.183146    2.269068   -1.180004
     98          1           0       -0.415960   -0.672705   -0.191487
 ---------------------------------------------------------------------

 SCF Done:  E(RCAM-B3LYP) =  -1706.89502545     A.U. after   17 cycles

 Excitation energies and oscillator strengths:

 Excited State   1:      Singlet-A      1.7216 eV  720.19 nm  f=3.0208  <S**2>=0.000
     155 ->158         0.13454
     156 ->157         0.70374
     156 <-157        -0.13211
 This state for optimization and/or second-order correction.
 Total Energy, E(TD-HF/TD-DFT) =  -1706.83175952
 Copying the excited state density for this state as the 1-particle RhoCI density.

 The electronic state is 1-A.
 Alpha  occ. eigenvalues --  -19.22183 -19.21547 -10.32818 -10.29332 -10.29034
 Alpha  occ. eigenvalues --  -10.28585 -10.28463 -10.28204 -10.28096 -10.28064
 Alpha  occ. eigenvalues --  -10.27814 -10.27746 -10.27575 -10.27513 -10.27508
 Alpha  occ. eigenvalues --  -10.27505 -10.27470 -10.27100 -10.27022 -10.26884
 Alpha  occ. eigenvalues --  -10.26847 -10.26816 -10.26705 -10.26691 -10.26663
 Alpha  occ. eigenvalues --  -10.26442 -10.26246 -10.26231 -10.26217 -10.26088
 Alpha  occ. eigenvalues --  -10.26022 -10.25968 -10.25911 -10.25783 -10.25629
 Alpha  occ. eigenvalues --  -10.25315 -10.25146 -10.25124 -10.24657 -10.24262
 Alpha  occ. eigenvalues --  -10.23586 -10.22926  -1.09019  -1.06924  -0.93875
 Alpha  occ. eigenvalues --   -0.93632  -0.92263  -0.91785  -0.90885  -0.88939
 Alpha  occ. eigenvalues --   -0.87129  -0.86268  -0.85857  -0.85570  -0.84817
 Alpha  occ. eigenvalues --   -0.83481  -0.82157  -0.80865  -0.79622  -0.78169
 Alpha  occ. eigenvalues --   -0.76007  -0.75952  -0.75509  -0.74940  -0.74783
 Alpha  occ. eigenvalues --   -0.74576  -0.74115  -0.73947  -0.72239  -0.69931
 Alpha  occ. eigenvalues --   -0.69115  -0.66387  -0.66114  -0.65124  -0.63691
 Alpha  occ. eigenvalues --   -0.63202  -0.61987  -0.61800  -0.61012  -0.60790
 Alpha  occ. eigenvalues --   -0.59602  -0.59116  -0.58277  -0.57317  -0.55771
 Alpha  occ. eigenvalues --   -0.55612  -0.54999  -0.54585  -0.54299  -0.53615
 Alpha  occ. eigenvalues --   -0.52622  -0.52428  -0.52068  -0.51433  -0.50878
 Alpha  occ. eigenvalues --   -0.50436  -0.49896  -0.49498  -0.49003  -0.48816
 Alpha  occ. eigenvalues --   -0.48496  -0.48109  -0.47756  -0.47539  -0.47159
 Alpha  occ. eigenvalues --   -0.46933  -0.46895  -0.46495  -0.46258  -0.45913
 Alpha  occ. eigenvalues --   -0.45789  -0.45393  -0.44890  -0.44709  -0.44684
 Alpha  occ. eigenvalues --   -0.44359  -0.44259  -0.43685  -0.43587  -0.43480
 Alpha  occ. eigenvalues --   -0.42965  -0.42570  -0.42425  -0.42108  -0.41539
 Alpha  occ. eigenvalues --   -0.41288  -0.41013  -0.40745  -0.40407  -0.40281
 Alpha  occ. eigenvalues --   -0.40042  -0.39904  -0.39660  -0.39446  -0.39295
 Alpha  occ. eigenvalues --   -0.39245  -0.39043  -0.38978  -0.38415  -0.37944
 Alpha  occ. eigenvalues --   -0.37564  -0.37082  -0.36801  -0.36673  -0.35403
 Alpha  occ. eigenvalues --   -0.34711  -0.33887  -0.33193  -0.32111  -0.31534
 Alpha  occ. eigenvalues --   -0.31240  -0.30554  -0.28530  -0.26742  -0.23013
 Alpha  occ. eigenvalues --   -0.18090
 Alpha virt. eigenvalues --   -0.07322  -0.01781   0.02545   0.05155   0.06307
 Alpha virt. eigenvalues --    0.08347   0.10242   0.10670   0.11419   0.11727
 Alpha virt. eigenvalues --    0.12332   0.12824   0.13167   0.13369   0.13616

 Mulliken charges:
               1
     1  O   -0.538534
     2  O   -0.566895
     3  C    0.026321
     4  C   -0.140913
     5  C   -0.182876
     6  C    0.126949
     7  C    0.108020
     8  C   -0.006846
     9  C   -0.290507
    10  C   -0.252190
    11  C   -0.153492
    12  C   -0.138487
    13  C    0.160528
    14  C    0.061345
    15  C   -0.064765
    16  C   -0.242129
    17  C    0.062485
    18  C   -0.313419
    19  C   -0.296079
    20  C   -0.358609
    21  C   -0.082356
    22  C   -0.112888
    23  C   -0.347562
    24  C    0.054649
    25  C   -0.112837
    26  C   -0.360664
    27  C    0.080338
    28  C   -0.129481
    29  C   -0.363010
    30  C   -0.096036
    31  C   -0.034120
    32  C   -0.089311
    33  C   -0.121558
    34  C    0.097495
    35  C   -0.127525
    36  C    0.155183
    37  C   -0.371896
    38  C   -0.115441
    39  C   -0.132400
    40  C   -0.346506
    41  C   -0.064325
    42  C   -0.114627
    43  H    0.105960
    44  H    0.104051
    45  H    0.100109
    46  H    0.045696
    47  H    0.111691
    48  H    0.106900
    49  H    0.071519
    50  H    0.095101
    51  H    0.106541
    52  H    0.041338
    53  H    0.098036
    54  H    0.054755
    55  H    0.087789
    56  H    0.078922
    57  H    0.085457
    58  H    0.095845
    59  H    0.128461
    60  H    0.102279
    61  H    0.115070
    62  H    0.090008
    63  H    0.066876
    64  H    0.116272
    65  H    0.102901
    66  H    0.135640
    67  H    0.103474
    68  H    0.094013
    69  H    0.301282
    70  H    0.080730
    71  H    0.080683
    72  H    0.108880
    73  H    0.088588
    74  H    0.118772
    75  H    0.310757
    76  H    0.079089
    77  H    0.106754
    78  H    0.112586
    79  H    0.135389
    80  H    0.072861
    81  H    0.124889
    82  H    0.133613
    83  H    0.122512
    84  H    0.072211
    85  H    0.081365
    86  H    0.051817
    87  H    0.072628
    88  H    0.055302
    89  H    0.139162
    90  H    0.097856
    91  H    0.097221
    92  H    0.076465
    93  H    0.094925
    94  H    0.115669
    95  H    0.104676
    96  H    0.089050
    97  H    0.082416
    98  H    0.082124
 Sum of Mulliken charges =  -0.00000

 Dipole moment (field-independent basis, Debye):
    X=              1.0617    Y=             -1.8150    Z=             -0.5453  Tot=              2.1722
 Quadrupole moment (field-independent basis, Debye-Ang):
   XX=           -275.3017   YY=           -244.6329   ZZ=           -262.3451
   XY=              9.8538   XZ=             39.1750   YZ=             -1.5629

 Normal termination of Gaussian 16 at Sat Jul 13 18:39:31 2019.
