 Gaussian 16, Revision A.03,
 Gaussian 16:  ES64L-G16RevA.03 25-Dec-2016

 -------------------------------------
 # td=(NStates=1) CAM-B3LYP/6-31G(d,p)
 -------------------------------------

 --
 TD
 --
 Symbolic Z-matrix:
 Charge =  0 Multiplicity = 1

                         Standard orientation:
 ---------------------------------------------------------------------
 Center     Atomic      Atomic             Coordinates (Angstroms)
 Number     Number       Type             X           Y           Z
 ---------------------------------------------------------------------
      1          8           0      -14.074713   -2.198129    0.314817
      2          8           0       14.902844    0.752069    0.357567
      3          6           0      -11.730022   -0.065920    1.353490
      4          6           0      -11.045682    0.322192   -0.017930
      5          6           0      -12.052015   -1.585753    1.330476
      6          6           0      -12.677467   -2.245401    0.163943
      7          6           0      -11.725445   -0.266884   -1.188240
      8          6           0       11.131159    0.896406    1.134275
      9          6           0      -10.865038    0.317546    2.554972
     10          6           0      -13.113756    0.652605    1.429309
     11          6           0       12.610690    1.401242    0.933166
     12          6           0      -12.278880   -1.430050   -1.113910
     13          6           0       13.516340    0.346299    0.483373
     14          6           0       10.741056   -0.078790    0.058760
     15          6           0       -9.534469   -0.011278    0.077340
     16          6           0       13.119856   -0.055576   -0.858922
     17          6           0       11.550204   -0.444748   -0.830913
     18          6           0       10.256087    2.135823    1.148605
     19          6           0       10.958585    0.039227    2.484665
     20          6           0      -11.449608    0.368301   -2.530976
     21          6           0       -8.543448    0.861210   -0.000930
     22          6           0        9.234590   -0.444625   -0.103985
     23          6           0       11.086958   -1.092507   -2.170620
     24          6           0       -7.048892    0.575220    0.019424
     25          6           0        8.793163   -1.696204   -0.209041
     26          6           0       -6.651983   -0.908483    0.113442
     27          6           0        7.406124   -2.099144   -0.231272
     28          6           0       -6.131089    1.566654   -0.111019
     29          6           0        7.086127   -3.550287    0.105415
     30          6           0        6.431214   -1.188314   -0.341261
     31          6           0       -4.792729    1.517396   -0.273043
     32          6           0        4.986659   -1.555206   -0.206529
     33          6           0       -4.083025    2.572631   -0.504221
     34          6           0       -2.602489    2.773462   -0.549143
     35          6           0        3.971883   -0.615067   -0.377394
     36          6           0        2.637725   -0.788101   -0.364736
     37          6           0       -1.971479    4.099325   -0.929763
     38          6           0       -1.789433    1.619346   -0.411197
     39          6           0        1.709408    0.276804   -0.577451
     40          6           0        2.138893   -2.199326   -0.054358
     41          6           0       -0.373831    1.657536   -0.694160
     42          6           0        0.397598    0.420527   -0.525335
     43          1           0      -11.139859    1.408402   -0.191872
     44          1           0      -12.761054   -1.944394    2.186371
     45          1           0      -11.160655   -2.206283    1.513237
     46          1           0      -12.308426   -3.167466    0.050446
     47          1           0      -10.161634   -0.489119    2.561138
     48          1           0      -10.523619    1.477109    2.557869
     49          1           0      -11.428239    0.075089    3.480045
     50          1           0      -13.687599    0.538441    0.468282
     51          1           0      -13.704520    0.278051    2.219717
     52          1           0      -12.885375    1.760708    1.681693
     53          1           0       12.583902    2.232324    0.357964
     54          1           0       12.941686    1.367780    2.001142
     55          1           0      -12.766647   -1.875879   -1.978073
     56          1           0       13.486179   -0.519693    1.005163
     57          1           0       -9.203744   -1.194416   -0.242432
     58          1           0       13.550191   -0.917231   -1.304521
     59          1           0       13.250255    0.580774   -1.465344
     60          1           0        9.152253    1.785069    1.523160
     61          1           0       10.135499    2.608330    0.237091
     62          1           0       10.400199    2.840314    1.894476
     63          1           0       11.728536   -0.779448    2.658456
     64          1           0        9.927367   -0.643635    2.568610
     65          1           0       11.010647    0.801219    3.460130
     66          1           0      -10.248495    0.329429   -2.768486
     67          1           0      -11.841786    1.355789   -2.363583
     68          1           0      -12.092000    0.009214   -3.367023
     69          1           0      -14.478041   -1.862493   -0.543756
     70          1           0        8.446063    0.507997    0.020856
     71          1           0       -8.649070    1.966871    0.083358
     72          1           0       11.567824   -2.156509   -2.168001
     73          1           0        9.981411   -1.158837   -2.297480
     74          1           0       11.581647   -0.451031   -3.153377
     75          1           0       15.245012    1.001023    1.104347
     76          1           0        9.480846   -2.612671   -0.412899
     77          1           0       -5.588710   -0.978468   -0.140917
     78          1           0       -7.309519   -1.245410    0.958481
     79          1           0       -7.135607   -1.615295   -0.441095
     80          1           0       -6.663469    2.469312   -0.195938
     81          1           0        6.234016   -3.399328    1.012658
     82          1           0        6.473593   -3.950052   -0.555174
     83          1           0        8.070597   -4.324564    0.261855
     84          1           0        6.615278   -0.196103   -0.530853
     85          1           0       -4.310859    0.699163   -0.029480
     86          1           0        4.918635   -2.666362   -0.418906
     87          1           0       -4.671325    3.485014   -0.555772
     88          1           0        4.265329    0.457275   -0.250909
     89          1           0       -1.388578    4.108890   -2.003653
     90          1           0       -1.154660    4.139976   -0.097712
     91          1           0       -2.581553    5.078761   -0.874145
     92          1           0       -2.080663    0.654243   -0.158592
     93          1           0        2.379403    1.041929   -0.881891
     94          1           0        2.264147   -2.537426    0.945578
     95          1           0        1.163073   -2.138037   -0.214170
     96          1           0        2.683529   -3.080720   -0.752895
     97          1           0        0.176921    2.479823   -1.057964
     98          1           0       -0.234603   -0.447506   -0.060104
 ---------------------------------------------------------------------

 SCF Done:  E(RCAM-B3LYP) =  -1706.83170884     A.U. after   15 cycles

 Excitation energies and oscillator strengths:

 Excited State   1:      Singlet-A      2.0655 eV  600.27 nm  f=2.7859  <S**2>=0.000
     155 ->158         0.12086
     156 ->157         0.70189
     156 <-157        -0.11636
 This state for optimization and/or second-order correction.
 Total Energy, E(TD-HF/TD-DFT) =  -1706.75580457
 Copying the excited state density for this state as the 1-particle RhoCI density.

 The electronic state is 1-A.
 Alpha  occ. eigenvalues --  -19.21202 -19.19333 -10.29367 -10.28881 -10.28570
 Alpha  occ. eigenvalues --  -10.28498 -10.28301 -10.27937 -10.27858 -10.27627
 Alpha  occ. eigenvalues --  -10.27581 -10.27576 -10.27547 -10.27445 -10.27203
 Alpha  occ. eigenvalues --  -10.27197 -10.27114 -10.27058 -10.26984 -10.26776
 Alpha  occ. eigenvalues --  -10.26664 -10.26653 -10.26560 -10.26365 -10.26225
 Alpha  occ. eigenvalues --  -10.26207 -10.25851 -10.25762 -10.25473 -10.25116
 Alpha  occ. eigenvalues --  -10.24974 -10.24948 -10.24918 -10.24852 -10.24819
 Alpha  occ. eigenvalues --  -10.24673 -10.24622 -10.24606 -10.24601 -10.24000
 Alpha  occ. eigenvalues --  -10.23976 -10.22178  -1.10311  -1.09237  -0.94351
 Alpha  occ. eigenvalues --   -0.93718  -0.92731  -0.92274  -0.90904  -0.89693
 Alpha  occ. eigenvalues --   -0.87489  -0.87088  -0.86466  -0.86323  -0.85245
 Alpha  occ. eigenvalues --   -0.83507  -0.82000  -0.80983  -0.79844  -0.78430
 Alpha  occ. eigenvalues --   -0.77438  -0.77268  -0.76289  -0.76130  -0.75294
 Alpha  occ. eigenvalues --   -0.75250  -0.74981  -0.74137  -0.72943  -0.70817
 Alpha  occ. eigenvalues --   -0.69110  -0.68289  -0.67634  -0.65998  -0.63908
 Alpha  occ. eigenvalues --   -0.63384  -0.62845  -0.62424  -0.61774  -0.60397
 Alpha  occ. eigenvalues --   -0.59759  -0.58981  -0.58142  -0.57233  -0.56542
 Alpha  occ. eigenvalues --   -0.55763  -0.55015  -0.54912  -0.54497  -0.54349
 Alpha  occ. eigenvalues --   -0.53586  -0.53311  -0.52762  -0.52423  -0.52304
 Alpha  occ. eigenvalues --   -0.51194  -0.50695  -0.50485  -0.49979  -0.49527
 Alpha  occ. eigenvalues --   -0.48781  -0.48554  -0.48108  -0.47535  -0.47314
 Alpha  occ. eigenvalues --   -0.47086  -0.46924  -0.46729  -0.46553  -0.46105
 Alpha  occ. eigenvalues --   -0.45453  -0.45317  -0.44750  -0.44685  -0.44588
 Alpha  occ. eigenvalues --   -0.44222  -0.43984  -0.43975  -0.43725  -0.43645
 Alpha  occ. eigenvalues --   -0.43212  -0.42946  -0.42774  -0.42159  -0.41946
 Alpha  occ. eigenvalues --   -0.41922  -0.41689  -0.41200  -0.40891  -0.40536
 Alpha  occ. eigenvalues --   -0.40132  -0.39820  -0.39782  -0.39507  -0.39365
 Alpha  occ. eigenvalues --   -0.39256  -0.39096  -0.38409  -0.38208  -0.37777
 Alpha  occ. eigenvalues --   -0.37317  -0.36962  -0.36237  -0.35488  -0.35262
 Alpha  occ. eigenvalues --   -0.35001  -0.34110  -0.33391  -0.32911  -0.32719
 Alpha  occ. eigenvalues --   -0.31796  -0.30792  -0.29890  -0.27328  -0.24808
 Alpha  occ. eigenvalues --   -0.19355
 Alpha virt. eigenvalues --   -0.06774  -0.00125   0.02844   0.06037   0.07252
 Alpha virt. eigenvalues --    0.09408   0.10556   0.11431   0.11603   0.12121
 Alpha virt. eigenvalues --    0.12444   0.12765   0.13167   0.13835   0.14057

 Mulliken charges:
               1
     1  O   -0.555708
     2  O   -0.556516
     3  C    0.026042
     4  C   -0.126003
     5  C   -0.196495
     6  C    0.194965
     7  C    0.120519
     8  C   -0.013534
     9  C   -0.293240
    10  C   -0.284804
    11  C   -0.173885
    12  C   -0.190758
    13  C    0.157828
    14  C    0.088921
    15  C   -0.099833
    16  C   -0.159892
    17  C   -0.004356
    18  C   -0.316208
    19  C   -0.309888
    20  C   -0.342505
    21  C   -0.067574
    22  C   -0.138285
    23  C   -0.338363
    24  C    0.084258
    25  C   -0.082175
    26  C   -0.380581
    27  C    0.096396
    28  C   -0.126429
    29  C   -0.374695
    30  C   -0.097367
    31  C    0.000623
    32  C   -0.112619
    33  C   -0.130619
    34  C    0.069585
    35  C   -0.130683
    36  C    0.100995
    37  C   -0.361912
    38  C   -0.103935
    39  C   -0.093191
    40  C   -0.348140
    41  C   -0.079143
    42  C   -0.115762
    43  H    0.087309
    44  H    0.098260
    45  H    0.077150
    46  H    0.094141
    47  H    0.112181
    48  H    0.092971
    49  H    0.097725
    50  H    0.089969
    51  H    0.113151
    52  H    0.071183
    53  H    0.111287
    54  H    0.090892
    55  H    0.063656
    56  H    0.089266
    57  H    0.064495
    58  H    0.099175
    59  H    0.110277
    60  H    0.077413
    61  H    0.117525
    62  H    0.117782
    63  H    0.104135
    64  H    0.100173
    65  H    0.069442
    66  H    0.115529
    67  H    0.113673
    68  H    0.107431
    69  H    0.309444
    70  H    0.087542
    71  H    0.077502
    72  H    0.096243
    73  H    0.125803
    74  H    0.072960
    75  H    0.277996
    76  H    0.083601
    77  H    0.113122
    78  H    0.119057
    79  H    0.126720
    80  H    0.066371
    81  H    0.108084
    82  H    0.145319
    83  H    0.092459
    84  H    0.073747
    85  H    0.070958
    86  H    0.083864
    87  H    0.069808
    88  H    0.080713
    89  H    0.111395
    90  H    0.122146
    91  H    0.113495
    92  H    0.090238
    93  H    0.070139
    94  H    0.126868
    95  H    0.108264
    96  H    0.085208
    97  H    0.093155
    98  H    0.076555
 Sum of Mulliken charges =  -0.00000

 Dipole moment (field-independent basis, Debye):
    X=             -0.2130    Y=              0.8206    Z=             -0.4440  Tot=              0.9570
 Quadrupole moment (field-independent basis, Debye-Ang):
   XX=           -287.4868   YY=           -245.5878   ZZ=           -263.4476
   XY=             -5.9305   XZ=             36.8668   YZ=              1.5545

 Normal termination of Gaussian 16 at Tue Jul 16 07:04:12 2019.
