 Gaussian 16, Revision A.03,
 Gaussian 16:  ES64L-G16RevA.03 25-Dec-2016

 -------------------------------------
 # td=(NStates=1) CAM-B3LYP/6-31G(d,p)
 -------------------------------------

 --
 TD
 --
 Symbolic Z-matrix:
 Charge =  0 Multiplicity = 1

                         Standard orientation:
 ---------------------------------------------------------------------
 Center     Atomic      Atomic             Coordinates (Angstroms)
 Number     Number       Type             X           Y           Z
 ---------------------------------------------------------------------
      1          8           0      -14.097369   -2.043515    0.496015
      2          8           0       14.710732    0.870059    0.238324
      3          6           0      -11.635932   -0.069468    1.329982
      4          6           0      -10.921506    0.291597   -0.031602
      5          6           0      -11.874421   -1.573078    1.339200
      6          6           0      -12.586492   -2.120925    0.228662
      7          6           0      -11.658682   -0.400234   -1.138993
      8          6           0       11.039414    0.937397    1.060712
      9          6           0      -10.738343    0.330670    2.581366
     10          6           0      -13.039506    0.750264    1.489453
     11          6           0       12.515632    1.398876    0.935447
     12          6           0      -12.337556   -1.502482   -1.034238
     13          6           0       13.379273    0.362798    0.453052
     14          6           0       10.589905   -0.018653    0.073385
     15          6           0       -9.536633    0.003518   -0.024409
     16          6           0       12.905384   -0.104311   -0.900088
     17          6           0       11.480453   -0.460869   -0.937796
     18          6           0       10.061600    2.147967    1.117735
     19          6           0       10.798962    0.168651    2.407051
     20          6           0      -11.386967    0.290153   -2.514582
     21          6           0       -8.512888    0.947430   -0.209629
     22          6           0        9.219765   -0.437837    0.007508
     23          6           0       11.170673   -1.277760   -2.158116
     24          6           0       -7.102185    0.654260   -0.289947
     25          6           0        8.781939   -1.779782   -0.260526
     26          6           0       -6.746177   -0.767366   -0.077377
     27          6           0        7.368897   -2.114668   -0.166298
     28          6           0       -6.121827    1.567580   -0.506184
     29          6           0        7.094450   -3.539869   -0.030960
     30          6           0        6.460108   -1.165677   -0.239685
     31          6           0       -4.787348    1.422547   -0.493590
     32          6           0        5.043082   -1.536683    0.005510
     33          6           0       -3.935577    2.548583   -0.702711
     34          6           0       -2.547264    2.626911   -0.598530
     35          6           0        4.031825   -0.615255   -0.198890
     36          6           0        2.666268   -0.821955   -0.155878
     37          6           0       -1.878689    4.013378   -0.792255
     38          6           0       -1.810293    1.464217   -0.573666
     39          6           0        1.744392    0.321472   -0.420247
     40          6           0        2.168460   -2.210442    0.243285
     41          6           0       -0.377986    1.476134   -0.444346
     42          6           0        0.412851    0.325633   -0.297083
     43          1           0      -11.086745    1.223165   -0.215927
     44          1           0      -12.515619   -1.672831    2.369259
     45          1           0      -10.800706   -2.029867    1.343049
     46          1           0      -12.420665   -3.119507    0.108753
     47          1           0       -9.836193   -0.394390    2.470046
     48          1           0      -10.461041    1.302606    2.297409
     49          1           0      -11.220044    0.397460    3.629162
     50          1           0      -13.689220    0.467112    0.799265
     51          1           0      -13.417575    0.725756    2.626648
     52          1           0      -12.763887    1.702870    1.613558
     53          1           0       12.391294    2.092018    0.131663
     54          1           0       12.952227    2.068886    1.715888
     55          1           0      -12.954250   -1.917949   -1.897724
     56          1           0       13.382925   -0.431707    1.125165
     57          1           0       -9.150068   -0.961531    0.172557
     58          1           0       13.360181   -1.029172   -1.151042
     59          1           0       13.246739    0.697971   -1.745194
     60          1           0        9.030779    1.631691    1.472788
     61          1           0       10.117090    2.694737    0.207262
     62          1           0       10.327767    2.952977    1.893479
     63          1           0       11.728843   -0.617590    2.593706
     64          1           0        9.952068   -0.317374    2.561588
     65          1           0       11.286006    0.693644    3.205608
     66          1           0      -10.282485    0.440107   -2.633470
     67          1           0      -11.722486    1.250806   -2.566016
     68          1           0      -11.892404   -0.255065   -3.244387
     69          1           0      -14.468779   -2.632294   -0.307207
     70          1           0        8.537926    0.376923    0.193482
     71          1           0       -8.830575    2.123231   -0.497574
     72          1           0       11.323529   -2.288848   -1.852093
     73          1           0        9.983503   -1.232294   -2.262054
     74          1           0       11.754166   -0.961310   -3.157748
     75          1           0       15.216081    1.071893    1.023048
     76          1           0        9.543928   -2.509175   -0.393092
     77          1           0       -5.583290   -1.167379   -0.194823
     78          1           0       -7.291137   -1.106875    0.783225
     79          1           0       -7.118777   -1.475987   -0.753780
     80          1           0       -6.510987    2.651541   -0.592564
     81          1           0        6.492579   -3.883574    0.964842
     82          1           0        6.298985   -3.726277   -0.866920
     83          1           0        8.164171   -4.058473   -0.332592
     84          1           0        6.685385    0.022061   -0.341645
     85          1           0       -4.328185    0.447575   -0.363753
     86          1           0        4.717217   -2.579414    0.091219
     87          1           0       -4.297105    3.539147   -0.757570
     88          1           0        4.426657    0.515540   -0.492385
     89          1           0       -1.134640    4.132842   -1.544748
     90          1           0       -1.440256    4.211605    0.148335
     91          1           0       -2.747631    4.713997   -0.860260
     92          1           0       -2.377652    0.480445   -0.414979
     93          1           0        2.182448    1.279648   -0.650403
     94          1           0        2.642737   -2.352484    1.206779
     95          1           0        1.079747   -2.072518    0.552185
     96          1           0        2.234259   -2.753707   -0.601495
     97          1           0        0.358548    2.333204   -0.547270
     98          1           0       -0.364682   -0.502554   -0.384301
 ---------------------------------------------------------------------

 SCF Done:  E(RCAM-B3LYP) =  -1706.90256525     A.U. after   16 cycles

 Excitation energies and oscillator strengths:

 Excited State   1:      Singlet-A      1.8480 eV  670.89 nm  f=3.1258  <S**2>=0.000
     155 ->158        -0.13726
     156 ->157         0.69874
     156 <-157        -0.11290
 This state for optimization and/or second-order correction.
 Total Energy, E(TD-HF/TD-DFT) =  -1706.83465094
 Copying the excited state density for this state as the 1-particle RhoCI density.

 The electronic state is 1-A.
 Alpha  occ. eigenvalues --  -19.20936 -19.20226 -10.29129 -10.28788 -10.28286
 Alpha  occ. eigenvalues --  -10.28061 -10.27878 -10.27476 -10.27102 -10.26997
 Alpha  occ. eigenvalues --  -10.26866 -10.26811 -10.26786 -10.26746 -10.26642
 Alpha  occ. eigenvalues --  -10.26604 -10.26548 -10.26531 -10.26414 -10.26407
 Alpha  occ. eigenvalues --  -10.26370 -10.26317 -10.26291 -10.26195 -10.26191
 Alpha  occ. eigenvalues --  -10.26166 -10.26017 -10.25898 -10.25865 -10.25810
 Alpha  occ. eigenvalues --  -10.25677 -10.25671 -10.25424 -10.25229 -10.25088
 Alpha  occ. eigenvalues --  -10.24884 -10.24748 -10.24713 -10.24396 -10.24181
 Alpha  occ. eigenvalues --  -10.24104 -10.22800  -1.08439  -1.04941  -0.94739
 Alpha  occ. eigenvalues --   -0.94687  -0.92386  -0.91944  -0.91025  -0.90118
 Alpha  occ. eigenvalues --   -0.87516  -0.87237  -0.86592  -0.86118  -0.85812
 Alpha  occ. eigenvalues --   -0.83962  -0.81969  -0.80608  -0.79922  -0.78844
 Alpha  occ. eigenvalues --   -0.76945  -0.76376  -0.76231  -0.75969  -0.75818
 Alpha  occ. eigenvalues --   -0.75648  -0.75163  -0.74988  -0.72886  -0.71116
 Alpha  occ. eigenvalues --   -0.69548  -0.68774  -0.67132  -0.65389  -0.64099
 Alpha  occ. eigenvalues --   -0.63805  -0.62388  -0.61539  -0.60176  -0.59828
 Alpha  occ. eigenvalues --   -0.59195  -0.58509  -0.57797  -0.56862  -0.56065
 Alpha  occ. eigenvalues --   -0.55328  -0.54860  -0.54754  -0.54134  -0.53889
 Alpha  occ. eigenvalues --   -0.53518  -0.53166  -0.52984  -0.52726  -0.51499
 Alpha  occ. eigenvalues --   -0.51287  -0.50789  -0.50483  -0.50077  -0.49822
 Alpha  occ. eigenvalues --   -0.49430  -0.48910  -0.48720  -0.48522  -0.48181
 Alpha  occ. eigenvalues --   -0.47685  -0.47606  -0.47178  -0.46926  -0.46700
 Alpha  occ. eigenvalues --   -0.45890  -0.45877  -0.45110  -0.44861  -0.44531
 Alpha  occ. eigenvalues --   -0.44447  -0.43757  -0.43519  -0.42917  -0.42882
 Alpha  occ. eigenvalues --   -0.42632  -0.42581  -0.42278  -0.42045  -0.41987
 Alpha  occ. eigenvalues --   -0.41607  -0.41414  -0.41207  -0.41082  -0.40908
 Alpha  occ. eigenvalues --   -0.40844  -0.40499  -0.40221  -0.39554  -0.39217
 Alpha  occ. eigenvalues --   -0.39102  -0.38768  -0.38360  -0.38024  -0.37388
 Alpha  occ. eigenvalues --   -0.37237  -0.36980  -0.36372  -0.36029  -0.35529
 Alpha  occ. eigenvalues --   -0.35049  -0.34755  -0.33599  -0.32352  -0.32187
 Alpha  occ. eigenvalues --   -0.30985  -0.30229  -0.29023  -0.25776  -0.23122
 Alpha  occ. eigenvalues --   -0.18350
 Alpha virt. eigenvalues --   -0.06767  -0.01350   0.02005   0.05686   0.07443
 Alpha virt. eigenvalues --    0.08545   0.10394   0.11070   0.11499   0.11919
 Alpha virt. eigenvalues --    0.12589   0.12865   0.13178   0.13411   0.13425

 Mulliken charges:
               1
     1  O   -0.566215
     2  O   -0.580835
     3  C   -0.018883
     4  C   -0.098891
     5  C   -0.176063
     6  C    0.139998
     7  C    0.090993
     8  C   -0.056346
     9  C   -0.294521
    10  C   -0.293861
    11  C   -0.189886
    12  C   -0.112053
    13  C    0.187029
    14  C    0.110478
    15  C   -0.064454
    16  C   -0.216441
    17  C    0.040338
    18  C   -0.292744
    19  C   -0.291399
    20  C   -0.360899
    21  C   -0.115772
    22  C   -0.121592
    23  C   -0.369627
    24  C    0.137361
    25  C   -0.135415
    26  C   -0.398671
    27  C    0.137657
    28  C   -0.120419
    29  C   -0.369158
    30  C   -0.112990
    31  C   -0.055901
    32  C   -0.125441
    33  C   -0.113685
    34  C    0.079373
    35  C   -0.084927
    36  C    0.046976
    37  C   -0.364436
    38  C   -0.128626
    39  C   -0.135014
    40  C   -0.366864
    41  C   -0.100250
    42  C   -0.055284
    43  H    0.085297
    44  H    0.107768
    45  H    0.076967
    46  H    0.096357
    47  H    0.084184
    48  H    0.110743
    49  H    0.097403
    50  H    0.133299
    51  H    0.071933
    52  H    0.102839
    53  H    0.104678
    54  H    0.085197
    55  H    0.067955
    56  H    0.087268
    57  H    0.079389
    58  H    0.111136
    59  H    0.104338
    60  H    0.090447
    61  H    0.111973
    62  H    0.094746
    63  H    0.052290
    64  H    0.124224
    65  H    0.100288
    66  H    0.119140
    67  H    0.121229
    68  H    0.108977
    69  H    0.294333
    70  H    0.091392
    71  H    0.063084
    72  H    0.126888
    73  H    0.110732
    74  H    0.103299
    75  H    0.298837
    76  H    0.089422
    77  H    0.087432
    78  H    0.123620
    79  H    0.131730
    80  H    0.072006
    81  H    0.116660
    82  H    0.117531
    83  H    0.094638
    84  H    0.086602
    85  H    0.083221
    86  H    0.090636
    87  H    0.069479
    88  H    0.060042
    89  H    0.134665
    90  H    0.135005
    91  H    0.099355
    92  H    0.084223
    93  H    0.083782
    94  H    0.134581
    95  H    0.108077
    96  H    0.143251
    97  H    0.075162
    98  H    0.077613
 Sum of Mulliken charges =  -0.00000

 Dipole moment (field-independent basis, Debye):
    X=              1.6053    Y=             -0.6353    Z=             -0.1462  Tot=              1.7326
 Quadrupole moment (field-independent basis, Debye-Ang):
   XX=           -278.6822   YY=           -242.4734   ZZ=           -263.4139
   XY=              4.0573   XZ=             39.3656   YZ=              4.5401

 Normal termination of Gaussian 16 at Sun Jul 14 02:52:31 2019.
