 Gaussian 16, Revision A.03,
 Gaussian 16:  ES64L-G16RevA.03 25-Dec-2016

 -------------------------------------
 # td=(NStates=1) CAM-B3LYP/6-31G(d,p)
 -------------------------------------

 --
 TD
 --
 Symbolic Z-matrix:
 Charge =  0 Multiplicity = 1

                         Standard orientation:
 ---------------------------------------------------------------------
 Center     Atomic      Atomic             Coordinates (Angstroms)
 Number     Number       Type             X           Y           Z
 ---------------------------------------------------------------------
      1          8           0      -14.186874   -1.914219    0.005103
      2          8           0       14.740856    1.078092    0.101367
      3          6           0      -11.774370   -0.058049    1.299269
      4          6           0      -10.893306    0.263834    0.061247
      5          6           0      -12.121370   -1.611110    1.253454
      6          6           0      -12.806238   -2.061829   -0.139517
      7          6           0      -11.472542   -0.278464   -1.206705
      8          6           0       11.118454    0.856913    1.087742
      9          6           0      -11.189910    0.099251    2.598258
     10          6           0      -13.087119    0.863656    1.174751
     11          6           0       12.518947    1.477952    0.875168
     12          6           0      -12.217215   -1.325242   -1.259791
     13          6           0       13.455561    0.438762    0.293189
     14          6           0       10.589898   -0.011943    0.006122
     15          6           0       -9.440031   -0.108167    0.235483
     16          6           0       12.918804   -0.033137   -1.067831
     17          6           0       11.473421   -0.367775   -0.985720
     18          6           0       10.148007    2.165275    1.301810
     19          6           0       11.133649    0.091588    2.359440
     20          6           0      -10.921113    0.478384   -2.388862
     21          6           0       -8.405073    0.813930    0.009580
     22          6           0        9.194163   -0.312929    0.061171
     23          6           0       11.052566   -1.141183   -2.274192
     24          6           0       -7.065275    0.527387   -0.030856
     25          6           0        8.802672   -1.687923   -0.035979
     26          6           0       -6.621237   -0.888307    0.430119
     27          6           0        7.398993   -2.152214   -0.052574
     28          6           0       -6.188831    1.588200   -0.438005
     29          6           0        7.234424   -3.592717   -0.007687
     30          6           0        6.344944   -1.295585   -0.181886
     31          6           0       -4.749859    1.540266   -0.291839
     32          6           0        4.955160   -1.651622   -0.185726
     33          6           0       -3.969801    2.673768   -0.546877
     34          6           0       -2.509487    2.719698   -0.637917
     35          6           0        3.978522   -0.722535   -0.284058
     36          6           0        2.556280   -0.950595   -0.081866
     37          6           0       -1.921080    4.005039   -0.902300
     38          6           0       -1.690560    1.496148   -0.395356
     39          6           0        1.740824    0.182866   -0.273544
     40          6           0        2.146768   -2.378023    0.157926
     41          6           0       -0.375343    1.413756   -0.452327
     42          6           0        0.343654    0.166719   -0.225041
     43          1           0      -10.972919    1.373095    0.027499
     44          1           0      -12.806302   -2.012521    2.129856
     45          1           0      -11.307490   -2.183830    1.258429
     46          1           0      -12.578514   -2.990686   -0.376163
     47          1           0      -10.395865   -0.302105    2.710979
     48          1           0      -11.042150    1.096417    2.639949
     49          1           0      -11.784306   -0.230465    3.641989
     50          1           0      -13.823371    0.738797    0.267989
     51          1           0      -13.604115    0.486636    2.192755
     52          1           0      -12.868942    1.947714    1.367403
     53          1           0       12.334156    2.320220    0.302842
     54          1           0       12.641461    1.665837    1.933055
     55          1           0      -12.657441   -1.592135   -2.150553
     56          1           0       13.623993   -0.395011    0.950308
     57          1           0       -9.246418   -1.084614    0.601511
     58          1           0       13.523810   -0.841885   -1.356791
     59          1           0       12.980634    0.704889   -1.776136
     60          1           0        9.127947    1.671950    1.528984
     61          1           0       10.146576    2.718236    0.372486
     62          1           0       10.302052    2.758625    2.206474
     63          1           0       11.527935   -1.047308    2.091981
     64          1           0       10.081685   -0.286105    2.606816
     65          1           0       11.525730    0.531063    3.283986
     66          1           0       -9.894334    0.670007   -2.461570
     67          1           0      -11.717957    1.287652   -2.408104
     68          1           0      -10.953514   -0.313690   -3.373063
     69          1           0      -14.818405   -1.863705   -0.770646
     70          1           0        8.644874    0.460872    0.471348
     71          1           0       -8.750160    1.784383   -0.431577
     72          1           0       11.485901   -2.135678   -2.200234
     73          1           0        9.866864   -1.154478   -2.402652
     74          1           0       11.460144   -0.905776   -3.232777
     75          1           0       15.008512    1.382241    0.894203
     76          1           0        9.599936   -2.329801   -0.353884
     77          1           0       -5.513808   -0.918802    0.666189
     78          1           0       -7.104910   -0.935055    1.494834
     79          1           0       -6.959374   -1.515911   -0.224033
     80          1           0       -6.752110    2.530570   -0.573982
     81          1           0        6.984583   -3.820759    0.993178
     82          1           0        6.360182   -3.979808   -0.781380
     83          1           0        8.112781   -4.241650   -0.212149
     84          1           0        6.538461   -0.262831   -0.424317
     85          1           0       -4.288683    0.688571    0.071306
     86          1           0        4.832354   -2.712705    0.082145
     87          1           0       -4.462603    3.656877   -0.770176
     88          1           0        4.250740    0.259310   -0.606700
     89          1           0       -1.668735    4.046435   -2.112316
     90          1           0       -1.002719    4.357388   -0.364381
     91          1           0       -2.765022    4.761421   -0.705943
     92          1           0       -2.284480    0.553837   -0.410867
     93          1           0        2.174810    1.319647   -0.372966
     94          1           0        2.987591   -2.564287    0.941043
     95          1           0        1.042272   -2.426472    0.470148
     96          1           0        2.355767   -2.924888   -0.647848
     97          1           0        0.202821    2.291516   -0.376795
     98          1           0       -0.247481   -0.806464   -0.323087
 ---------------------------------------------------------------------

 SCF Done:  E(RCAM-B3LYP) =  -1706.92451269     A.U. after   16 cycles

 Excitation energies and oscillator strengths:

 Excited State   1:      Singlet-A      1.8126 eV  684.02 nm  f=2.8193  <S**2>=0.000
     155 ->158         0.12668
     156 ->157         0.70335
     156 <-157        -0.12698
 This state for optimization and/or second-order correction.
 Total Energy, E(TD-HF/TD-DFT) =  -1706.85790129
 Copying the excited state density for this state as the 1-particle RhoCI density.

 The electronic state is 1-A.
 Alpha  occ. eigenvalues --  -19.20282 -19.19110 -10.29795 -10.28725 -10.28275
 Alpha  occ. eigenvalues --  -10.27598 -10.27484 -10.27468 -10.27404 -10.27194
 Alpha  occ. eigenvalues --  -10.27145 -10.27126 -10.26904 -10.26757 -10.26713
 Alpha  occ. eigenvalues --  -10.26638 -10.26580 -10.26577 -10.26546 -10.26542
 Alpha  occ. eigenvalues --  -10.26277 -10.26269 -10.26176 -10.26044 -10.25918
 Alpha  occ. eigenvalues --  -10.25884 -10.25849 -10.25821 -10.25696 -10.25674
 Alpha  occ. eigenvalues --  -10.25618 -10.25527 -10.25506 -10.25404 -10.25209
 Alpha  occ. eigenvalues --  -10.25181 -10.24993 -10.24437 -10.24111 -10.23587
 Alpha  occ. eigenvalues --  -10.22933 -10.21929  -1.09302  -1.08149  -0.94109
 Alpha  occ. eigenvalues --   -0.93938  -0.91812  -0.91351  -0.90558  -0.89691
 Alpha  occ. eigenvalues --   -0.87880  -0.87078  -0.86921  -0.85538  -0.84561
 Alpha  occ. eigenvalues --   -0.83171  -0.82420  -0.80214  -0.79433  -0.79212
 Alpha  occ. eigenvalues --   -0.77330  -0.76243  -0.76016  -0.75786  -0.75574
 Alpha  occ. eigenvalues --   -0.75302  -0.75124  -0.74120  -0.71986  -0.70384
 Alpha  occ. eigenvalues --   -0.69448  -0.68497  -0.66558  -0.65688  -0.63783
 Alpha  occ. eigenvalues --   -0.63448  -0.62701  -0.62095  -0.60641  -0.59965
 Alpha  occ. eigenvalues --   -0.59734  -0.59246  -0.58480  -0.57357  -0.55929
 Alpha  occ. eigenvalues --   -0.55776  -0.54991  -0.54698  -0.54491  -0.54253
 Alpha  occ. eigenvalues --   -0.53397  -0.52686  -0.52580  -0.52196  -0.51864
 Alpha  occ. eigenvalues --   -0.51784  -0.51010  -0.50887  -0.50291  -0.49761
 Alpha  occ. eigenvalues --   -0.49586  -0.49028  -0.48829  -0.48510  -0.48258
 Alpha  occ. eigenvalues --   -0.47697  -0.47389  -0.46919  -0.46733  -0.46173
 Alpha  occ. eigenvalues --   -0.46050  -0.45523  -0.45372  -0.44809  -0.44600
 Alpha  occ. eigenvalues --   -0.44432  -0.43753  -0.43546  -0.43428  -0.43171
 Alpha  occ. eigenvalues --   -0.42724  -0.42532  -0.42498  -0.42357  -0.42081
 Alpha  occ. eigenvalues --   -0.41776  -0.41507  -0.41214  -0.41088  -0.40716
 Alpha  occ. eigenvalues --   -0.40365  -0.40328  -0.39835  -0.39737  -0.39523
 Alpha  occ. eigenvalues --   -0.39181  -0.38833  -0.38317  -0.38162  -0.37587
 Alpha  occ. eigenvalues --   -0.37321  -0.36483  -0.35939  -0.35572  -0.35380
 Alpha  occ. eigenvalues --   -0.34552  -0.34145  -0.33559  -0.31829  -0.31522
 Alpha  occ. eigenvalues --   -0.30985  -0.29976  -0.28579  -0.25882  -0.23193
 Alpha  occ. eigenvalues --   -0.18158
 Alpha virt. eigenvalues --   -0.06810  -0.01193   0.01677   0.05894   0.07725
 Alpha virt. eigenvalues --    0.09119   0.10796   0.12223   0.12287   0.12711
 Alpha virt. eigenvalues --    0.12890   0.13482   0.13805   0.14144   0.14532

 Mulliken charges:
               1
     1  O   -0.568896
     2  O   -0.562057
     3  C    0.009072
     4  C   -0.141381
     5  C   -0.188285
     6  C    0.187476
     7  C    0.124359
     8  C   -0.065830
     9  C   -0.250644
    10  C   -0.298065
    11  C   -0.163599
    12  C   -0.147632
    13  C    0.153884
    14  C    0.082218
    15  C   -0.091505
    16  C   -0.206765
    17  C    0.021500
    18  C   -0.322220
    19  C   -0.301828
    20  C   -0.341127
    21  C   -0.110007
    22  C   -0.097260
    23  C   -0.372620
    24  C    0.094576
    25  C   -0.127821
    26  C   -0.352602
    27  C    0.097170
    28  C   -0.138278
    29  C   -0.385264
    30  C   -0.112791
    31  C   -0.064098
    32  C   -0.101798
    33  C   -0.129063
    34  C    0.101622
    35  C   -0.095840
    36  C    0.066008
    37  C   -0.379549
    38  C   -0.110424
    39  C   -0.117533
    40  C   -0.348542
    41  C   -0.072642
    42  C   -0.099708
    43  H    0.088076
    44  H    0.092035
    45  H    0.096282
    46  H    0.079952
    47  H    0.099354
    48  H    0.095653
    49  H    0.071312
    50  H    0.105167
    51  H    0.086842
    52  H    0.089671
    53  H    0.104049
    54  H    0.085134
    55  H    0.061551
    56  H    0.088981
    57  H    0.092209
    58  H    0.115703
    59  H    0.135227
    60  H    0.088576
    61  H    0.113116
    62  H    0.105592
    63  H    0.078468
    64  H    0.098871
    65  H    0.105514
    66  H    0.137515
    67  H    0.123075
    68  H    0.067526
    69  H    0.304726
    70  H    0.087132
    71  H    0.081116
    72  H    0.110601
    73  H    0.108297
    74  H    0.111612
    75  H    0.289718
    76  H    0.098670
    77  H    0.105850
    78  H    0.114360
    79  H    0.141521
    80  H    0.086072
    81  H    0.136618
    82  H    0.094684
    83  H    0.113314
    84  H    0.078990
    85  H    0.089573
    86  H    0.082778
    87  H    0.081773
    88  H    0.083281
    89  H    0.107121
    90  H    0.125589
    91  H    0.105919
    92  H    0.073424
    93  H    0.078132
    94  H    0.119057
    95  H    0.104057
    96  H    0.144337
    97  H    0.079829
    98  H    0.084187
 Sum of Mulliken charges =  -0.00000

 Dipole moment (field-independent basis, Debye):
    X=             -0.9429    Y=             -0.3390    Z=             -0.1501  Tot=              1.0131
 Quadrupole moment (field-independent basis, Debye-Ang):
   XX=           -286.1679   YY=           -245.2866   ZZ=           -260.5106
   XY=             -5.7765   XZ=             35.9284   YZ=              2.9169

 Normal termination of Gaussian 16 at Sun Jul 14 19:17:02 2019.
