 Gaussian 16, Revision A.03,
 Gaussian 16:  ES64L-G16RevA.03 25-Dec-2016

 -------------------------------------
 # td=(NStates=1) CAM-B3LYP/6-31G(d,p)
 -------------------------------------

 --
 TD
 --
 Symbolic Z-matrix:
 Charge =  0 Multiplicity = 1

                         Standard orientation:
 ---------------------------------------------------------------------
 Center     Atomic      Atomic             Coordinates (Angstroms)
 Number     Number       Type             X           Y           Z
 ---------------------------------------------------------------------
      1          8           0       14.073371   -2.203499   -0.260033
      2          8           0      -14.903678    0.728531    0.006809
      3          6           0       11.870205    0.073322   -1.186542
      4          6           0       11.028749    0.222734    0.122817
      5          6           0       12.156169   -1.450209   -1.311303
      6          6           0       12.656478   -2.171595   -0.123557
      7          6           0       11.532479   -0.505363    1.320840
      8          6           0      -11.258803    0.988110   -0.940111
      9          6           0       11.237293    0.780070   -2.277892
     10          6           0       13.203057    0.761480   -0.880735
     11          6           0      -12.624730    1.431419   -0.510883
     12          6           0       12.255406   -1.675957    1.158787
     13          6           0      -13.639606    0.232118   -0.228096
     14          6           0      -10.782002   -0.078603    0.127223
     15          6           0        9.625202   -0.186995   -0.020367
     16          6           0      -13.071841   -0.345116    1.115343
     17          6           0      -11.618700   -0.650279    1.014914
     18          6           0      -10.352156    2.238361   -0.835069
     19          6           0      -11.150638    0.456130   -2.324261
     20          6           0       11.221074    0.033665    2.670111
     21          6           0        8.560056    0.718380    0.060803
     22          6           0       -9.367855   -0.417873   -0.115377
     23          6           0      -11.034470   -1.641353    1.990361
     24          6           0        7.123077    0.536267   -0.123081
     25          6           0       -8.727690   -1.602466    0.057211
     26          6           0        6.656438   -0.847633   -0.633849
     27          6           0       -7.364564   -2.007501   -0.048863
     28          6           0        6.259419    1.541747    0.181734
     29          6           0       -7.170460   -3.492000   -0.302390
     30          6           0       -6.341662   -1.180863    0.138102
     31          6           0        4.823090    1.491033    0.164253
     32          6           0       -5.069612   -1.417758   -0.034165
     33          6           0        4.103941    2.542432    0.490171
     34          6           0        2.719546    2.664520    0.522430
     35          6           0       -4.015335   -0.470967    0.017196
     36          6           0       -2.616533   -0.681728    0.031398
     37          6           0        2.045469    3.979595    1.142612
     38          6           0        1.811022    1.623034    0.277867
     39          6           0       -1.754088    0.383253    0.131307
     40          6           0       -2.143840   -2.066496   -0.307389
     41          6           0        0.452127    1.543846    0.299171
     42          6           0       -0.365027    0.486943   -0.013929
     43          1           0       10.926208    1.297013    0.373518
     44          1           0       12.903884   -1.657236   -2.318630
     45          1           0       11.303769   -1.926227   -1.741714
     46          1           0       12.352890   -3.472328   -0.171936
     47          1           0       10.381309    0.351191   -2.577578
     48          1           0       11.009753    1.765841   -1.831528
     49          1           0       11.988965    0.983492   -3.064194
     50          1           0       13.732025    0.373900   -0.152662
     51          1           0       14.035072    0.688642   -1.795764
     52          1           0       12.953265    1.905807   -0.712859
     53          1           0      -12.725594    2.124146    0.462951
     54          1           0      -13.022480    2.096579   -1.266640
     55          1           0       12.725359   -2.091403    1.958138
     56          1           0      -13.583741   -0.436362   -0.954635
     57          1           0        9.425367   -1.093413   -0.196328
     58          1           0      -13.584753   -1.353114    1.157623
     59          1           0      -13.357356    0.307460    1.999437
     60          1           0       -9.267049    2.136056   -1.262965
     61          1           0      -10.324948    2.570335    0.217402
     62          1           0      -10.961691    2.952976   -1.298397
     63          1           0      -11.810150   -0.285866   -2.521401
     64          1           0      -10.122364    0.163547   -2.546781
     65          1           0      -11.360791    1.270670   -2.985949
     66          1           0       10.099148    0.017436    3.120505
     67          1           0       11.651350    1.097935    2.771918
     68          1           0       11.837337   -0.414058    3.451302
     69          1           0       14.370980   -2.587232    0.604590
     70          1           0       -8.751746    0.252600   -0.206799
     71          1           0        8.900181    1.711371    0.525256
     72          1           0      -11.544252   -2.619546    1.642425
     73          1           0      -10.131785   -1.571775    2.077517
     74          1           0      -11.447616   -1.549079    3.112107
     75          1           0      -15.034087    1.165811   -0.873319
     76          1           0       -9.281792   -2.268616    0.135007
     77          1           0        5.454867   -0.796083   -0.766101
     78          1           0        7.126544   -1.213903   -1.491751
     79          1           0        6.796713   -1.515456    0.186291
     80          1           0        6.704753    2.481053    0.425070
     81          1           0       -7.113071   -3.731640   -1.350579
     82          1           0       -6.308572   -3.664475    0.287565
     83          1           0       -8.087668   -4.054015    0.069686
     84          1           0       -6.735164   -0.214969    0.453745
     85          1           0        4.469218    0.506573   -0.221884
     86          1           0       -4.814144   -2.462760   -0.296922
     87          1           0        4.602867    3.435292    1.005346
     88          1           0       -4.204844    0.483487    0.290514
     89          1           0        1.612138    3.885082    2.209241
     90          1           0        1.343909    4.310221    0.314518
     91          1           0        2.607214    4.875919    1.220332
     92          1           0        2.140487    0.830568   -0.238261
     93          1           0       -2.401347    1.322211    0.613582
     94          1           0       -2.206520   -2.237550   -1.407112
     95          1           0       -1.041164   -2.364869    0.093696
     96          1           0       -2.914491   -2.923313    0.052419
     97          1           0       -0.119800    2.451251    0.476663
     98          1           0        0.221751   -0.535651    0.069352
 ---------------------------------------------------------------------

 SCF Done:  E(RCAM-B3LYP) =  -1706.88590629     A.U. after   15 cycles

 Excitation energies and oscillator strengths:

 Excited State   1:      Singlet-A      2.0969 eV  591.27 nm  f=3.2691  <S**2>=0.000
     155 ->158         0.14452
     156 ->157         0.69362
 This state for optimization and/or second-order correction.
 Total Energy, E(TD-HF/TD-DFT) =  -1706.80884589
 Copying the excited state density for this state as the 1-particle RhoCI density.

 The electronic state is 1-A.
 Alpha  occ. eigenvalues --  -19.22085 -19.21411 -10.32169 -10.29727 -10.28085
 Alpha  occ. eigenvalues --  -10.27975 -10.27797 -10.27360 -10.27261 -10.27203
 Alpha  occ. eigenvalues --  -10.27154 -10.27043 -10.27028 -10.26675 -10.26592
 Alpha  occ. eigenvalues --  -10.26492 -10.26378 -10.26327 -10.26320 -10.26254
 Alpha  occ. eigenvalues --  -10.26239 -10.26165 -10.26031 -10.26005 -10.25870
 Alpha  occ. eigenvalues --  -10.25858 -10.25823 -10.25552 -10.25508 -10.25460
 Alpha  occ. eigenvalues --  -10.25273 -10.25129 -10.24955 -10.24747 -10.24678
 Alpha  occ. eigenvalues --  -10.24479 -10.24146 -10.24101 -10.23940 -10.23388
 Alpha  occ. eigenvalues --  -10.23035 -10.22848  -1.11447  -1.09709  -0.94829
 Alpha  occ. eigenvalues --   -0.94007  -0.92837  -0.92297  -0.91049  -0.89945
 Alpha  occ. eigenvalues --   -0.88086  -0.87877  -0.87528  -0.86309  -0.85151
 Alpha  occ. eigenvalues --   -0.83331  -0.82361  -0.81115  -0.80482  -0.78393
 Alpha  occ. eigenvalues --   -0.77307  -0.76853  -0.76645  -0.76375  -0.76003
 Alpha  occ. eigenvalues --   -0.75972  -0.75187  -0.75016  -0.73421  -0.71253
 Alpha  occ. eigenvalues --   -0.70154  -0.67993  -0.66827  -0.66736  -0.64918
 Alpha  occ. eigenvalues --   -0.63915  -0.63452  -0.62889  -0.60674  -0.60304
 Alpha  occ. eigenvalues --   -0.60117  -0.59874  -0.58948  -0.57790  -0.56517
 Alpha  occ. eigenvalues --   -0.56248  -0.55953  -0.55241  -0.54586  -0.54477
 Alpha  occ. eigenvalues --   -0.53648  -0.53389  -0.53102  -0.52380  -0.51935
 Alpha  occ. eigenvalues --   -0.51576  -0.50926  -0.50198  -0.49993  -0.49574
 Alpha  occ. eigenvalues --   -0.49375  -0.49118  -0.48617  -0.48578  -0.48279
 Alpha  occ. eigenvalues --   -0.47941  -0.47290  -0.47024  -0.46706  -0.46390
 Alpha  occ. eigenvalues --   -0.46018  -0.45646  -0.45518  -0.45191  -0.45082
 Alpha  occ. eigenvalues --   -0.44769  -0.44523  -0.44349  -0.44009  -0.43635
 Alpha  occ. eigenvalues --   -0.43292  -0.42952  -0.42891  -0.42454  -0.42079
 Alpha  occ. eigenvalues --   -0.41893  -0.41563  -0.41360  -0.41164  -0.40974
 Alpha  occ. eigenvalues --   -0.40651  -0.40472  -0.39998  -0.39925  -0.39673
 Alpha  occ. eigenvalues --   -0.39430  -0.39214  -0.39123  -0.38465  -0.38433
 Alpha  occ. eigenvalues --   -0.37994  -0.37334  -0.37285  -0.36647  -0.36249
 Alpha  occ. eigenvalues --   -0.35759  -0.34699  -0.33690  -0.32365  -0.31743
 Alpha  occ. eigenvalues --   -0.31576  -0.29439  -0.28668  -0.27053  -0.23906
 Alpha  occ. eigenvalues --   -0.19410
 Alpha virt. eigenvalues --   -0.06373  -0.01345   0.02439   0.04586   0.06477
 Alpha virt. eigenvalues --    0.09358   0.11241   0.11834   0.12081   0.12196
 Alpha virt. eigenvalues --    0.12591   0.12768   0.13068   0.13929   0.13950

 Mulliken charges:
               1
     1  O   -0.530366
     2  O   -0.538566
     3  C    0.026890
     4  C   -0.154783
     5  C   -0.183865
     6  C    0.163208
     7  C    0.119319
     8  C   -0.009217
     9  C   -0.284291
    10  C   -0.263194
    11  C   -0.226003
    12  C   -0.100749
    13  C    0.171138
    14  C    0.062541
    15  C   -0.045378
    16  C   -0.227592
    17  C    0.039253
    18  C   -0.301181
    19  C   -0.287606
    20  C   -0.368054
    21  C   -0.117209
    22  C   -0.067710
    23  C   -0.316814
    24  C    0.096319
    25  C   -0.061630
    26  C   -0.364968
    27  C    0.063756
    28  C   -0.119451
    29  C   -0.370235
    30  C   -0.069528
    31  C   -0.046828
    32  C   -0.106199
    33  C   -0.118407
    34  C    0.064163
    35  C   -0.109279
    36  C    0.138288
    37  C   -0.375313
    38  C   -0.096980
    39  C   -0.126439
    40  C   -0.371493
    41  C   -0.065288
    42  C   -0.109942
    43  H    0.084793
    44  H    0.083482
    45  H    0.100181
    46  H    0.017791
    47  H    0.107547
    48  H    0.097341
    49  H    0.103622
    50  H    0.121307
    51  H    0.068577
    52  H    0.065043
    53  H    0.091058
    54  H    0.063923
    55  H    0.069793
    56  H    0.087643
    57  H    0.067885
    58  H    0.096838
    59  H    0.123003
    60  H    0.093410
    61  H    0.104775
    62  H    0.103136
    63  H    0.104298
    64  H    0.113602
    65  H    0.096229
    66  H    0.116193
    67  H    0.107242
    68  H    0.114945
    69  H    0.297873
    70  H    0.049187
    71  H    0.069000
    72  H    0.101514
    73  H    0.118950
    74  H    0.078398
    75  H    0.306430
    76  H    0.019195
    77  H    0.083177
    78  H    0.132039
    79  H    0.134606
    80  H    0.079192
    81  H    0.131341
    82  H    0.124275
    83  H    0.105832
    84  H    0.075996
    85  H    0.087382
    86  H    0.077828
    87  H    0.088810
    88  H    0.066842
    89  H    0.120681
    90  H    0.119011
    91  H    0.110219
    92  H    0.073671
    93  H    0.063752
    94  H    0.130725
    95  H    0.097205
    96  H    0.092737
    97  H    0.078195
    98  H    0.071960
 Sum of Mulliken charges =  -0.00000

 Dipole moment (field-independent basis, Debye):
    X=             -0.4814    Y=             -0.3609    Z=              0.4156  Tot=              0.7313
 Quadrupole moment (field-independent basis, Debye-Ang):
   XX=           -278.9686   YY=           -247.2936   ZZ=           -257.8375
   XY=              0.6015   XZ=             44.6866   YZ=              0.3857

 Normal termination of Gaussian 16 at Tue Jul 16 07:00:53 2019.
