 Gaussian 16, Revision A.03,
 Gaussian 16:  ES64L-G16RevA.03 25-Dec-2016

 -------------------------------------
 # td=(NStates=1) CAM-B3LYP/6-31G(d,p)
 -------------------------------------

 --
 TD
 --
 Symbolic Z-matrix:
 Charge =  0 Multiplicity = 1

                         Standard orientation:
 ---------------------------------------------------------------------
 Center     Atomic      Atomic             Coordinates (Angstroms)
 Number     Number       Type             X           Y           Z
 ---------------------------------------------------------------------
      1          8           0      -14.143427   -2.167625    0.675970
      2          8           0       14.926433    0.569093    0.202871
      3          6           0      -11.833479    0.096392    1.208795
      4          6           0      -11.013881    0.290455   -0.114608
      5          6           0      -12.007646   -1.450169    1.585569
      6          6           0      -12.761174   -2.270882    0.398765
      7          6           0      -11.641283   -0.634857   -1.223073
      8          6           0       11.270347    0.914229    1.132277
      9          6           0      -11.062401    0.795670    2.457449
     10          6           0      -13.264584    0.718817    1.066757
     11          6           0       12.723129    1.286062    0.816133
     12          6           0      -12.369949   -1.702773   -0.929865
     13          6           0       13.612867    0.173200    0.344275
     14          6           0       10.726906   -0.012827    0.023498
     15          6           0       -9.567265   -0.022911    0.013169
     16          6           0       13.021310   -0.304058   -1.028491
     17          6           0       11.594605   -0.620577   -0.928122
     18          6           0       10.452157    2.236833    1.096732
     19          6           0       11.298231    0.317143    2.477912
     20          6           0      -11.302578   -0.361129   -2.710353
     21          6           0       -8.472381    0.789666   -0.108287
     22          6           0        9.302050   -0.394892    0.238500
     23          6           0       11.136121   -1.454817   -2.126004
     24          6           0       -7.015850    0.517954   -0.109210
     25          6           0        8.689941   -1.606851   -0.067783
     26          6           0       -6.489764   -0.791656    0.397973
     27          6           0        7.273669   -2.068130   -0.168689
     28          6           0       -6.195423    1.615632   -0.491304
     29          6           0        7.062991   -3.516250   -0.169011
     30          6           0        6.241399   -1.076049   -0.124636
     31          6           0       -4.776698    1.769794   -0.453362
     32          6           0        4.985202   -1.451722   -0.005837
     33          6           0       -4.023341    2.762873   -0.698040
     34          6           0       -2.616208    2.795288   -0.766538
     35          6           0        3.950074   -0.526668   -0.046362
     36          6           0        2.553837   -0.828494   -0.054650
     37          6           0       -1.969033    4.125691   -1.112048
     38          6           0       -1.813748    1.669355   -0.528951
     39          6           0        1.663500    0.310449   -0.288155
     40          6           0        2.112807   -2.093165    0.145827
     41          6           0       -0.439975    1.590669   -0.548138
     42          6           0        0.317814    0.370416   -0.370658
     43          1           0      -11.215363    1.452048   -0.454786
     44          1           0      -12.677714   -1.787071    2.486706
     45          1           0      -11.059839   -1.945015    1.747880
     46          1           0      -12.359436   -3.457249    0.381379
     47          1           0      -10.131053    0.382059    2.493177
     48          1           0      -10.851683    1.778347    2.062045
     49          1           0      -11.617558    0.880048    3.408151
     50          1           0      -13.763658    0.427925    0.356961
     51          1           0      -14.043115    0.631531    1.793989
     52          1           0      -12.971921    1.657169    1.078552
     53          1           0       12.709545    2.097135   -0.113540
     54          1           0       13.205778    2.010735    1.745520
     55          1           0      -12.784482   -2.140483   -1.752487
     56          1           0       13.639121   -0.719033    0.914512
     57          1           0       -9.296748   -1.057945    0.477077
     58          1           0       13.489805   -1.163172   -1.339259
     59          1           0       13.287277    0.395580   -1.771843
     60          1           0        9.402978    1.905202    1.527661
     61          1           0       10.463995    2.898289    0.140414
     62          1           0       10.987290    2.814169    1.855111
     63          1           0       11.633086   -0.787152    2.419102
     64          1           0       10.205556    0.074310    2.620290
     65          1           0       11.764486    0.979140    3.215631
     66          1           0      -10.294973   -0.039490   -2.831123
     67          1           0      -11.766255    0.458972   -2.951208
     68          1           0      -11.901558   -1.017490   -3.348271
     69          1           0      -14.516688   -2.030164   -0.264477
     70          1           0        8.733444    0.575839    0.696523
     71          1           0       -8.628011    1.871110   -0.158523
     72          1           0       11.284494   -2.578659   -1.990730
     73          1           0       10.058667   -1.229716   -2.391857
     74          1           0       11.589973   -1.020512   -3.019881
     75          1           0       15.287020    1.123027    0.919853
     76          1           0        9.382424   -2.507657   -0.366405
     77          1           0       -5.395475   -0.803304    0.497490
     78          1           0       -6.931956   -0.992949    1.331422
     79          1           0       -6.888991   -1.515897   -0.236903
     80          1           0       -6.932185    2.332950   -0.827570
     81          1           0        6.412466   -3.827748    0.664318
     82          1           0        5.996761   -3.614889   -0.726249
     83          1           0        7.749875   -4.468785   -0.344741
     84          1           0        6.414245    0.134550   -0.074850
     85          1           0       -4.245914    0.862088   -0.062169
     86          1           0        4.655063   -2.521064    0.178103
     87          1           0       -4.498254    3.719793   -1.012938
     88          1           0        4.046163    0.662470   -0.252977
     89          1           0       -1.663711    4.146978   -2.178384
     90          1           0       -1.035200    4.324629   -0.477054
     91          1           0       -2.680510    5.015287   -0.962469
     92          1           0       -2.510507    0.774128   -0.339374
     93          1           0        2.120893    1.240962   -0.480445
     94          1           0        2.227207   -2.393268    1.089760
     95          1           0        1.110625   -2.018565   -0.033197
     96          1           0        2.524672   -2.744668   -0.665868
     97          1           0        0.173696    2.557301   -0.826046
     98          1           0       -0.271694   -0.759831   -0.265467
 ---------------------------------------------------------------------

 SCF Done:  E(RCAM-B3LYP) =  -1706.88392337     A.U. after   17 cycles

 Excitation energies and oscillator strengths:

 Excited State   1:      Singlet-A      1.7865 eV  694.02 nm  f=3.0275  <S**2>=0.000
     155 ->158         0.12899
     156 ->157         0.70308
     156 <-157        -0.12785
 This state for optimization and/or second-order correction.
 Total Energy, E(TD-HF/TD-DFT) =  -1706.81827228
 Copying the excited state density for this state as the 1-particle RhoCI density.

 The electronic state is 1-A.
 Alpha  occ. eigenvalues --  -19.22225 -19.20317 -10.31844 -10.29619 -10.29237
 Alpha  occ. eigenvalues --  -10.28691 -10.28376 -10.28283 -10.28190 -10.28067
 Alpha  occ. eigenvalues --  -10.27894 -10.27684 -10.27638 -10.27545 -10.27286
 Alpha  occ. eigenvalues --  -10.27284 -10.27249 -10.27217 -10.27107 -10.26944
 Alpha  occ. eigenvalues --  -10.26920 -10.26916 -10.26807 -10.26669 -10.26602
 Alpha  occ. eigenvalues --  -10.26555 -10.26357 -10.26149 -10.26129 -10.25965
 Alpha  occ. eigenvalues --  -10.25859 -10.25655 -10.25396 -10.25322 -10.25050
 Alpha  occ. eigenvalues --  -10.24805 -10.24302 -10.24278 -10.23735 -10.23570
 Alpha  occ. eigenvalues --  -10.23331 -10.20381  -1.09624  -1.09420  -0.93385
 Alpha  occ. eigenvalues --   -0.93235  -0.92729  -0.92308  -0.90745  -0.89923
 Alpha  occ. eigenvalues --   -0.87603  -0.87331  -0.86570  -0.85362  -0.84372
 Alpha  occ. eigenvalues --   -0.83069  -0.82753  -0.80641  -0.79629  -0.79525
 Alpha  occ. eigenvalues --   -0.77962  -0.77319  -0.76597  -0.76219  -0.75769
 Alpha  occ. eigenvalues --   -0.75349  -0.75269  -0.74690  -0.72194  -0.70380
 Alpha  occ. eigenvalues --   -0.68984  -0.67310  -0.66487  -0.64927  -0.63558
 Alpha  occ. eigenvalues --   -0.63049  -0.62732  -0.60684  -0.59611  -0.59456
 Alpha  occ. eigenvalues --   -0.59178  -0.58007  -0.57831  -0.57493  -0.56524
 Alpha  occ. eigenvalues --   -0.56346  -0.55286  -0.54901  -0.54286  -0.53758
 Alpha  occ. eigenvalues --   -0.53398  -0.52701  -0.52608  -0.52317  -0.51739
 Alpha  occ. eigenvalues --   -0.50868  -0.50778  -0.50615  -0.49708  -0.49338
 Alpha  occ. eigenvalues --   -0.49174  -0.49127  -0.48978  -0.48850  -0.48109
 Alpha  occ. eigenvalues --   -0.47821  -0.47194  -0.47006  -0.46661  -0.46410
 Alpha  occ. eigenvalues --   -0.46264  -0.45737  -0.45623  -0.45380  -0.44649
 Alpha  occ. eigenvalues --   -0.44629  -0.44523  -0.44166  -0.43879  -0.43518
 Alpha  occ. eigenvalues --   -0.43325  -0.43182  -0.42392  -0.42303  -0.42028
 Alpha  occ. eigenvalues --   -0.41657  -0.41462  -0.41247  -0.41099  -0.41041
 Alpha  occ. eigenvalues --   -0.40747  -0.40351  -0.40149  -0.39604  -0.39481
 Alpha  occ. eigenvalues --   -0.38885  -0.38666  -0.38195  -0.37939  -0.37640
 Alpha  occ. eigenvalues --   -0.37483  -0.37304  -0.36684  -0.36037  -0.35049
 Alpha  occ. eigenvalues --   -0.34236  -0.33966  -0.33114  -0.31922  -0.31597
 Alpha  occ. eigenvalues --   -0.31532  -0.30068  -0.28491  -0.26504  -0.23699
 Alpha  occ. eigenvalues --   -0.18157
 Alpha virt. eigenvalues --   -0.07163  -0.01258   0.02000   0.05357   0.06400
 Alpha virt. eigenvalues --    0.08770   0.10642   0.11238   0.11536   0.11885
 Alpha virt. eigenvalues --    0.12432   0.12757   0.13253   0.13564   0.13772

 Mulliken charges:
               1
     1  O   -0.530883
     2  O   -0.576560
     3  C   -0.004101
     4  C   -0.144633
     5  C   -0.178463
     6  C    0.153338
     7  C    0.111616
     8  C   -0.023975
     9  C   -0.311642
    10  C   -0.260452
    11  C   -0.187921
    12  C   -0.154426
    13  C    0.213434
    14  C    0.074855
    15  C   -0.085680
    16  C   -0.227333
    17  C    0.034135
    18  C   -0.286965
    19  C   -0.280166
    20  C   -0.361840
    21  C   -0.114008
    22  C   -0.118619
    23  C   -0.369071
    24  C    0.092802
    25  C   -0.127128
    26  C   -0.370683
    27  C    0.098207
    28  C   -0.126321
    29  C   -0.402456
    30  C   -0.091369
    31  C   -0.070896
    32  C   -0.088847
    33  C   -0.090714
    34  C    0.091070
    35  C   -0.115764
    36  C    0.109523
    37  C   -0.382758
    38  C   -0.086574
    39  C   -0.110410
    40  C   -0.370823
    41  C   -0.125727
    42  C   -0.082387
    43  H    0.080758
    44  H    0.103764
    45  H    0.082475
    46  H    0.050293
    47  H    0.111831
    48  H    0.092372
    49  H    0.110032
    50  H    0.090142
    51  H    0.101844
    52  H    0.091486
    53  H    0.069182
    54  H    0.034937
    55  H    0.066504
    56  H    0.080137
    57  H    0.086170
    58  H    0.113865
    59  H    0.124054
    60  H    0.086345
    61  H    0.109752
    62  H    0.097331
    63  H    0.108605
    64  H    0.096738
    65  H    0.107209
    66  H    0.130213
    67  H    0.130883
    68  H    0.108544
    69  H    0.308718
    70  H    0.072949
    71  H    0.083988
    72  H    0.113335
    73  H    0.121682
    74  H    0.111906
    75  H    0.307225
    76  H    0.072005
    77  H    0.111884
    78  H    0.127951
    79  H    0.132712
    80  H    0.071858
    81  H    0.134494
    82  H    0.097795
    83  H    0.133957
    84  H    0.098340
    85  H    0.073477
    86  H    0.083351
    87  H    0.077745
    88  H    0.068236
    89  H    0.128784
    90  H    0.113496
    91  H    0.103331
    92  H    0.072060
    93  H    0.073544
    94  H    0.139063
    95  H    0.104758
    96  H    0.119368
    97  H    0.090462
    98  H    0.066673
 Sum of Mulliken charges =  -0.00000

 Dipole moment (field-independent basis, Debye):
    X=              0.0842    Y=              0.1530    Z=             -0.8241  Tot=              0.8424
 Quadrupole moment (field-independent basis, Debye-Ang):
   XX=           -281.1000   YY=           -245.4198   ZZ=           -262.5755
   XY=             -7.7971   XZ=             37.5826   YZ=              1.2155

 Normal termination of Gaussian 16 at Sat Jul 13 06:06:27 2019.
