 Gaussian 16, Revision A.03,
 Gaussian 16:  ES64L-G16RevA.03 25-Dec-2016

 -------------------------------------
 # td=(NStates=1) CAM-B3LYP/6-31G(d,p)
 -------------------------------------

 --
 TD
 --
 Symbolic Z-matrix:
 Charge =  0 Multiplicity = 1

                         Standard orientation:
 ---------------------------------------------------------------------
 Center     Atomic      Atomic             Coordinates (Angstroms)
 Number     Number       Type             X           Y           Z
 ---------------------------------------------------------------------
      1          8           0      -14.161935   -1.980837    0.436936
      2          8           0       14.808900    0.930342    0.095307
      3          6           0      -11.833614    0.044720    1.238380
      4          6           0      -11.023141    0.380820   -0.056266
      5          6           0      -12.044075   -1.451766    1.457911
      6          6           0      -12.713841   -2.068481    0.263671
      7          6           0      -11.601319   -0.353328   -1.295905
      8          6           0       11.183412    0.926613    1.142578
      9          6           0      -11.104638    0.746298    2.400523
     10          6           0      -13.186011    0.767882    1.108131
     11          6           0       12.641221    1.375765    0.790591
     12          6           0      -12.275480   -1.523537   -1.093050
     13          6           0       13.531285    0.389022    0.164235
     14          6           0       10.641819   -0.005106   -0.109604
     15          6           0       -9.611652    0.003833    0.072729
     16          6           0       12.999639   -0.008188   -1.139612
     17          6           0       11.498693   -0.352516   -1.150404
     18          6           0       10.212768    2.179555    1.357945
     19          6           0       11.139599    0.114538    2.502293
     20          6           0      -11.234008    0.104470   -2.649250
     21          6           0       -8.523559    0.810639   -0.059424
     22          6           0        9.284083   -0.413728    0.052279
     23          6           0       11.094228   -1.194738   -2.250516
     24          6           0       -7.133144    0.570530   -0.052114
     25          6           0        8.843624   -1.668370    0.000743
     26          6           0       -6.716550   -0.863330    0.136369
     27          6           0        7.342855   -2.090706    0.027888
     28          6           0       -6.224811    1.480064   -0.321373
     29          6           0        7.160347   -3.617104    0.111784
     30          6           0        6.312297   -1.207570   -0.013010
     31          6           0       -4.829690    1.413863   -0.401367
     32          6           0        4.991184   -1.505514   -0.040280
     33          6           0       -3.984351    2.463570   -0.575349
     34          6           0       -2.638169    2.450230   -0.536098
     35          6           0        4.012308   -0.632479   -0.138704
     36          6           0        2.590325   -0.815175   -0.092372
     37          6           0       -1.918063    3.732452   -0.987302
     38          6           0       -1.781397    1.410302   -0.439289
     39          6           0        1.821218    0.357342   -0.310090
     40          6           0        2.101571   -2.233763    0.192823
     41          6           0       -0.371932    1.475411   -0.489856
     42          6           0        0.429397    0.340174   -0.177832
     43          1           0      -10.958471    1.561645   -0.125395
     44          1           0      -12.626067   -1.727933    2.419671
     45          1           0      -11.033479   -1.864348    1.541395
     46          1           0      -12.726949   -3.283458    0.327327
     47          1           0      -10.069034    0.164601    2.541316
     48          1           0      -10.805986    1.760570    2.155810
     49          1           0      -11.725775    0.657442    3.255887
     50          1           0      -13.986107    0.370197    0.496425
     51          1           0      -13.717568    0.692615    2.128818
     52          1           0      -12.958775    1.861427    0.961039
     53          1           0       12.732763    2.249328    0.136575
     54          1           0       13.030376    1.926146    1.617079
     55          1           0      -12.807823   -1.917399   -1.978004
     56          1           0       13.685372   -0.636852    0.718003
     57          1           0       -9.364848   -1.172024    0.248434
     58          1           0       13.639700   -0.919317   -1.559259
     59          1           0       13.171373    0.773183   -1.959342
     60          1           0        9.421414    1.836268    1.891395
     61          1           0       10.042452    2.747478    0.261827
     62          1           0       10.804596    2.968111    2.068902
     63          1           0       11.867792   -0.674461    2.480209
     64          1           0       10.159722   -0.139706    2.355949
     65          1           0       11.361858    0.811645    3.330745
     66          1           0      -10.187518   -0.186577   -2.815240
     67          1           0      -11.393824    1.286157   -2.970829
     68          1           0      -11.793007   -0.300928   -3.514181
     69          1           0      -14.561159   -2.118626   -0.459032
     70          1           0        8.503685    0.280710   -0.024339
     71          1           0       -8.767684    1.866939   -0.343133
     72          1           0       11.386441   -2.247249   -2.084787
     73          1           0       10.068465   -1.109886   -2.405976
     74          1           0       11.430418   -0.873756   -3.364343
     75          1           0       15.299403    0.987675    1.002660
     76          1           0        9.566218   -2.481038   -0.103767
     77          1           0       -5.560767   -1.126081    0.326416
     78          1           0       -7.473268   -1.424695    1.002463
     79          1           0       -6.872835   -1.317197   -0.761538
     80          1           0       -6.455609    2.487606   -0.508213
     81          1           0        7.184879   -3.722763    1.428971
     82          1           0        6.302449   -3.945793   -0.189166
     83          1           0        8.183332   -4.155564   -0.346067
     84          1           0        6.455021   -0.260960    0.068083
     85          1           0       -4.300900    0.330177   -0.054588
     86          1           0        4.917807   -2.752794    0.071601
     87          1           0       -4.350478    3.346619   -0.792853
     88          1           0        4.433755    0.399405   -0.300766
     89          1           0       -1.544092    4.017702   -2.143844
     90          1           0       -1.102386    4.098968   -0.439829
     91          1           0       -2.596126    4.502374   -0.632263
     92          1           0       -2.146142    0.286161   -0.140499
     93          1           0        2.255156    1.246769   -0.959937
     94          1           0        2.662313   -2.729071    0.897672
     95          1           0        1.097128   -2.144081    0.541069
     96          1           0        2.592698   -2.851742   -0.737919
     97          1           0        0.064228    2.404773   -0.655240
     98          1           0       -0.104426   -0.630598   -0.014162
 ---------------------------------------------------------------------

 SCF Done:  E(RCAM-B3LYP) =  -1706.90609384     A.U. after   15 cycles

 Excitation energies and oscillator strengths:

 Excited State   1:      Singlet-A      2.2306 eV  555.84 nm  f=3.1132  <S**2>=0.000
     155 ->158         0.13637
     156 ->157         0.69500
 This state for optimization and/or second-order correction.
 Total Energy, E(TD-HF/TD-DFT) =  -1706.82412224
 Copying the excited state density for this state as the 1-particle RhoCI density.

 The electronic state is 1-A.
 Alpha  occ. eigenvalues --  -19.20950 -19.20564 -10.31872 -10.30219 -10.28582
 Alpha  occ. eigenvalues --  -10.28547 -10.28400 -10.28337 -10.28195 -10.27731
 Alpha  occ. eigenvalues --  -10.27355 -10.27320 -10.27222 -10.27033 -10.27003
 Alpha  occ. eigenvalues --  -10.26997 -10.26927 -10.26811 -10.26737 -10.26693
 Alpha  occ. eigenvalues --  -10.26681 -10.26646 -10.26636 -10.26597 -10.26528
 Alpha  occ. eigenvalues --  -10.26287 -10.26277 -10.26125 -10.26052 -10.25914
 Alpha  occ. eigenvalues --  -10.25863 -10.25678 -10.25668 -10.25366 -10.25116
 Alpha  occ. eigenvalues --  -10.24871 -10.24508 -10.24320 -10.23911 -10.23764
 Alpha  occ. eigenvalues --  -10.23582 -10.23422  -1.09031  -1.07785  -0.93855
 Alpha  occ. eigenvalues --   -0.93046  -0.92842  -0.92270  -0.91191  -0.90017
 Alpha  occ. eigenvalues --   -0.87556  -0.87003  -0.86613  -0.86249  -0.84993
 Alpha  occ. eigenvalues --   -0.83499  -0.82394  -0.81167  -0.80544  -0.78601
 Alpha  occ. eigenvalues --   -0.76842  -0.76396  -0.76063  -0.76051  -0.75407
 Alpha  occ. eigenvalues --   -0.75174  -0.74720  -0.74274  -0.73105  -0.70578
 Alpha  occ. eigenvalues --   -0.68868  -0.67360  -0.66624  -0.64796  -0.63092
 Alpha  occ. eigenvalues --   -0.62719  -0.62591  -0.62058  -0.60964  -0.60607
 Alpha  occ. eigenvalues --   -0.59350  -0.58523  -0.57887  -0.57324  -0.56131
 Alpha  occ. eigenvalues --   -0.55818  -0.55559  -0.54733  -0.54697  -0.53962
 Alpha  occ. eigenvalues --   -0.53577  -0.53336  -0.53306  -0.52636  -0.51520
 Alpha  occ. eigenvalues --   -0.50535  -0.50162  -0.49998  -0.49372  -0.49008
 Alpha  occ. eigenvalues --   -0.48585  -0.48434  -0.47915  -0.47821  -0.47794
 Alpha  occ. eigenvalues --   -0.47518  -0.47350  -0.46900  -0.46453  -0.46391
 Alpha  occ. eigenvalues --   -0.46322  -0.45866  -0.45288  -0.45260  -0.44959
 Alpha  occ. eigenvalues --   -0.44778  -0.44327  -0.43876  -0.43468  -0.43068
 Alpha  occ. eigenvalues --   -0.42824  -0.42637  -0.42052  -0.41943  -0.41563
 Alpha  occ. eigenvalues --   -0.41469  -0.41312  -0.40826  -0.40413  -0.40221
 Alpha  occ. eigenvalues --   -0.40061  -0.39930  -0.39603  -0.39392  -0.39119
 Alpha  occ. eigenvalues --   -0.38924  -0.38364  -0.38143  -0.38077  -0.37923
 Alpha  occ. eigenvalues --   -0.37379  -0.37072  -0.36864  -0.36335  -0.36048
 Alpha  occ. eigenvalues --   -0.35243  -0.34798  -0.33423  -0.31696  -0.31566
 Alpha  occ. eigenvalues --   -0.30972  -0.29678  -0.28776  -0.27243  -0.24446
 Alpha  occ. eigenvalues --   -0.19604
 Alpha virt. eigenvalues --   -0.05776  -0.00644   0.02817   0.04586   0.06314
 Alpha virt. eigenvalues --    0.07958   0.10415   0.10778   0.10848   0.10882
 Alpha virt. eigenvalues --    0.11214   0.12223   0.12747   0.12880   0.13021

 Mulliken charges:
               1
     1  O   -0.560505
     2  O   -0.578092
     3  C    0.010124
     4  C   -0.147479
     5  C   -0.171271
     6  C    0.157388
     7  C    0.141088
     8  C   -0.026447
     9  C   -0.290722
    10  C   -0.283828
    11  C   -0.184084
    12  C   -0.149782
    13  C    0.202815
    14  C    0.027552
    15  C   -0.074653
    16  C   -0.215551
    17  C    0.076889
    18  C   -0.289392
    19  C   -0.290872
    20  C   -0.364374
    21  C   -0.105394
    22  C   -0.129324
    23  C   -0.371371
    24  C    0.150892
    25  C   -0.083173
    26  C   -0.366934
    27  C    0.040901
    28  C   -0.127128
    29  C   -0.323772
    30  C   -0.064135
    31  C   -0.062462
    32  C   -0.041945
    33  C   -0.074718
    34  C    0.074294
    35  C   -0.141244
    36  C    0.088072
    37  C   -0.381794
    38  C   -0.099848
    39  C   -0.130303
    40  C   -0.357543
    41  C   -0.071537
    42  C   -0.095357
    43  H    0.088888
    44  H    0.110859
    45  H    0.098904
    46  H    0.067009
    47  H    0.083632
    48  H    0.103927
    49  H    0.105626
    50  H    0.122703
    51  H    0.078313
    52  H    0.077209
    53  H    0.097299
    54  H    0.072940
    55  H    0.073215
    56  H    0.051310
    57  H    0.075044
    58  H    0.092055
    59  H    0.110521
    60  H    0.116223
    61  H    0.089783
    62  H    0.079333
    63  H    0.105149
    64  H    0.116404
    65  H    0.097992
    66  H    0.137974
    67  H    0.089957
    68  H    0.114205
    69  H    0.300940
    70  H    0.101300
    71  H    0.069494
    72  H    0.119272
    73  H    0.128243
    74  H    0.085427
    75  H    0.315146
    76  H    0.081108
    77  H    0.095506
    78  H    0.078684
    79  H    0.144388
    80  H    0.073228
    81  H    0.088325
    82  H    0.128297
    83  H    0.100227
    84  H    0.057803
    85  H    0.055344
    86  H    0.039279
    87  H    0.067219
    88  H    0.078919
    89  H    0.097081
    90  H    0.124903
    91  H    0.097380
    92  H    0.058048
    93  H    0.098323
    94  H    0.138027
    95  H    0.118179
    96  H    0.117944
    97  H    0.083187
    98  H    0.087325
 Sum of Mulliken charges =  -0.00000

 Dipole moment (field-independent basis, Debye):
    X=              1.6070    Y=             -0.9936    Z=             -0.8427  Tot=              2.0688
 Quadrupole moment (field-independent basis, Debye-Ang):
   XX=           -275.3977   YY=           -248.2116   ZZ=           -260.8098
   XY=             -7.8303   XZ=             40.8864   YZ=              2.2302

 Normal termination of Gaussian 16 at Sun Jul 14 09:34:05 2019.
