 Gaussian 16, Revision A.03,
 Gaussian 16:  ES64L-G16RevA.03 25-Dec-2016

 -------------------------------------
 # td=(NStates=1) CAM-B3LYP/6-31G(d,p)
 -------------------------------------

 --
 TD
 --
 Symbolic Z-matrix:
 Charge =  0 Multiplicity = 1

                         Standard orientation:
 ---------------------------------------------------------------------
 Center     Atomic      Atomic             Coordinates (Angstroms)
 Number     Number       Type             X           Y           Z
 ---------------------------------------------------------------------
      1          8           0      -14.132551   -2.027766    0.742843
      2          8           0       14.810179    0.923812    0.142023
      3          6           0      -11.805274    0.083865    1.346849
      4          6           0      -10.964700    0.307788    0.027794
      5          6           0      -12.021878   -1.426002    1.548789
      6          6           0      -12.762757   -2.078503    0.389376
      7          6           0      -11.616699   -0.488026   -1.150000
      8          6           0       11.157279    1.016294    1.145628
      9          6           0      -11.040175    0.672795    2.593256
     10          6           0      -13.089006    0.922671    1.336371
     11          6           0       12.597569    1.524900    0.933490
     12          6           0      -12.323973   -1.562717   -0.856257
     13          6           0       13.538887    0.416786    0.413515
     14          6           0       10.741911   -0.016955    0.140708
     15          6           0       -9.498680   -0.074821    0.071238
     16          6           0       12.950369   -0.283637   -0.795221
     17          6           0       11.564448   -0.585362   -0.809844
     18          6           0       10.297218    2.316278    1.273235
     19          6           0       11.190419    0.318447    2.556850
     20          6           0      -11.348290   -0.064909   -2.511153
     21          6           0       -8.463401    0.882823   -0.227725
     22          6           0        9.299017   -0.392501    0.252780
     23          6           0       11.263452   -1.449734   -1.924443
     24          6           0       -7.081987    0.629648   -0.106011
     25          6           0        8.824132   -1.695670   -0.048833
     26          6           0       -6.667810   -0.844560    0.224936
     27          6           0        7.387470   -2.055219   -0.035164
     28          6           0       -6.269325    1.579421   -0.346980
     29          6           0        7.179133   -3.505623    0.060409
     30          6           0        6.409091   -1.074562   -0.135322
     31          6           0       -4.852886    1.505589   -0.489113
     32          6           0        5.010361   -1.526019   -0.254133
     33          6           0       -3.981906    2.632854   -0.723561
     34          6           0       -2.573257    2.502411   -0.949051
     35          6           0        3.961091   -0.668884   -0.393039
     36          6           0        2.574918   -0.839551   -0.389685
     37          6           0       -1.929150    3.965266   -1.157332
     38          6           0       -1.834027    1.317914   -0.829202
     39          6           0        1.667842    0.280172   -0.595613
     40          6           0        2.100847   -2.271549   -0.041465
     41          6           0       -0.481395    1.299602   -0.849536
     42          6           0        0.301401    0.124699   -0.709030
     43          1           0      -11.108011    1.350761   -0.123683
     44          1           0      -12.629109   -1.615314    2.406413
     45          1           0      -10.918077   -1.869421    1.599416
     46          1           0      -12.515833   -3.295323    0.432164
     47          1           0      -10.087542    0.426335    2.695095
     48          1           0      -10.960316    1.677665    2.407051
     49          1           0      -11.620531    0.726580    3.624226
     50          1           0      -13.581821    0.554835    0.454509
     51          1           0      -13.549354    0.899374    2.351852
     52          1           0      -12.871880    2.053125    1.070488
     53          1           0       12.490911    2.124566   -0.062945
     54          1           0       12.926560    2.178468    1.768045
     55          1           0      -12.873309   -1.774392   -1.730841
     56          1           0       13.444976   -0.362337    1.213125
     57          1           0       -9.320739   -1.209178    0.388476
     58          1           0       13.782373   -0.975646   -0.955340
     59          1           0       13.048252    0.393347   -1.619445
     60          1           0        9.289295    2.051039    1.341203
     61          1           0       10.031534    2.842869    0.252455
     62          1           0       10.525093    3.045625    2.039598
     63          1           0       11.924709   -0.454747    2.564056
     64          1           0       10.242569   -0.099402    2.785874
     65          1           0       11.586796    0.958883    3.401834
     66          1           0      -10.378049    0.537635   -2.394099
     67          1           0      -12.281509    0.744478   -2.660629
     68          1           0      -11.539576   -1.063316   -3.377762
     69          1           0      -14.446000   -2.282659   -0.119655
     70          1           0        8.572979    0.431066    0.596830
     71          1           0       -8.767991    1.918742   -0.387406
     72          1           0       11.231628   -2.472056   -1.778970
     73          1           0       10.090886   -1.204163   -2.315398
     74          1           0       11.838189   -1.093966   -2.765106
     75          1           0       15.236966    1.338800    1.019572
     76          1           0        9.473553   -2.591091   -0.419740
     77          1           0       -5.582174   -0.865022    0.200072
     78          1           0       -7.119892   -1.225787    0.884117
     79          1           0       -6.908569   -1.654056   -0.652770
     80          1           0       -6.776447    2.641583   -0.433036
     81          1           0        6.799460   -3.845586    1.046517
     82          1           0        6.522946   -3.932002   -0.839765
     83          1           0        8.039626   -4.036467   -0.038698
     84          1           0        6.584512   -0.016608   -0.153257
     85          1           0       -4.418517    0.443213   -0.637047
     86          1           0        4.773895   -2.590523    0.133299
     87          1           0       -4.328780    3.755932   -0.813109
     88          1           0        4.469525    0.345395   -0.895374
     89          1           0       -1.461623    3.820993   -2.132761
     90          1           0       -1.295894    4.190320   -0.394059
     91          1           0       -2.796677    4.742143   -1.329853
     92          1           0       -2.326984    0.176993   -0.808697
     93          1           0        2.031207    1.249724   -0.656982
     94          1           0        2.371329   -2.531056    0.989497
     95          1           0        1.037657   -2.459829    0.140841
     96          1           0        2.376972   -2.990881   -0.911688
     97          1           0        0.137449    2.189920   -0.777375
     98          1           0       -0.299345   -0.840468   -0.625132
 ---------------------------------------------------------------------

 SCF Done:  E(RCAM-B3LYP) =  -1706.88789011     A.U. after   15 cycles

 Excitation energies and oscillator strengths:

 Excited State   1:      Singlet-A      1.9344 eV  640.96 nm  f=3.0717  <S**2>=0.000
     155 ->158        -0.13682
     156 ->157         0.69787
     156 <-157        -0.10955
 This state for optimization and/or second-order correction.
 Total Energy, E(TD-HF/TD-DFT) =  -1706.81680385
 Copying the excited state density for this state as the 1-particle RhoCI density.

 The electronic state is 1-A.
 Alpha  occ. eigenvalues --  -19.22261 -19.21451 -10.30793 -10.29875 -10.29404
 Alpha  occ. eigenvalues --  -10.28560 -10.28166 -10.28121 -10.28052 -10.27938
 Alpha  occ. eigenvalues --  -10.27495 -10.27420 -10.27379 -10.27226 -10.27141
 Alpha  occ. eigenvalues --  -10.27097 -10.27073 -10.26804 -10.26773 -10.26752
 Alpha  occ. eigenvalues --  -10.26533 -10.26462 -10.26459 -10.26446 -10.26410
 Alpha  occ. eigenvalues --  -10.26394 -10.26378 -10.26232 -10.26139 -10.26115
 Alpha  occ. eigenvalues --  -10.26053 -10.25496 -10.25405 -10.24991 -10.24799
 Alpha  occ. eigenvalues --  -10.24793 -10.24615 -10.24414 -10.24079 -10.23748
 Alpha  occ. eigenvalues --  -10.23562 -10.22613  -1.11062  -1.08833  -0.93893
 Alpha  occ. eigenvalues --   -0.93888  -0.92360  -0.91478  -0.90538  -0.89253
 Alpha  occ. eigenvalues --   -0.88066  -0.87480  -0.86695  -0.84726  -0.83960
 Alpha  occ. eigenvalues --   -0.82769  -0.81720  -0.80181  -0.79801  -0.78943
 Alpha  occ. eigenvalues --   -0.78098  -0.76471  -0.76155  -0.75906  -0.75454
 Alpha  occ. eigenvalues --   -0.75421  -0.75049  -0.74896  -0.72499  -0.70150
 Alpha  occ. eigenvalues --   -0.68480  -0.67311  -0.66034  -0.64950  -0.64062
 Alpha  occ. eigenvalues --   -0.63044  -0.62379  -0.62230  -0.59670  -0.59564
 Alpha  occ. eigenvalues --   -0.59191  -0.58207  -0.57633  -0.57160  -0.56750
 Alpha  occ. eigenvalues --   -0.55544  -0.55089  -0.54882  -0.54206  -0.53408
 Alpha  occ. eigenvalues --   -0.53135  -0.52534  -0.52227  -0.51906  -0.50858
 Alpha  occ. eigenvalues --   -0.50705  -0.50315  -0.49630  -0.49457  -0.49040
 Alpha  occ. eigenvalues --   -0.48829  -0.48698  -0.48479  -0.48276  -0.48005
 Alpha  occ. eigenvalues --   -0.47941  -0.47136  -0.46995  -0.46611  -0.46396
 Alpha  occ. eigenvalues --   -0.45956  -0.45699  -0.45501  -0.45101  -0.44781
 Alpha  occ. eigenvalues --   -0.44528  -0.44456  -0.44371  -0.43889  -0.43582
 Alpha  occ. eigenvalues --   -0.43390  -0.43141  -0.43027  -0.42306  -0.42017
 Alpha  occ. eigenvalues --   -0.41849  -0.41400  -0.40896  -0.40655  -0.40539
 Alpha  occ. eigenvalues --   -0.40415  -0.39937  -0.39511  -0.39469  -0.39155
 Alpha  occ. eigenvalues --   -0.38972  -0.38779  -0.38013  -0.37921  -0.37660
 Alpha  occ. eigenvalues --   -0.37331  -0.37187  -0.36630  -0.36494  -0.35289
 Alpha  occ. eigenvalues --   -0.34734  -0.34597  -0.33756  -0.32224  -0.31459
 Alpha  occ. eigenvalues --   -0.30921  -0.29254  -0.28603  -0.26268  -0.23648
 Alpha  occ. eigenvalues --   -0.18629
 Alpha virt. eigenvalues --   -0.06565  -0.01123   0.02009   0.04731   0.06562
 Alpha virt. eigenvalues --    0.08309   0.10393   0.10528   0.10632   0.11036
 Alpha virt. eigenvalues --    0.12124   0.12415   0.13152   0.13443   0.13844

 Mulliken charges:
               1
     1  O   -0.521707
     2  O   -0.566477
     3  C    0.006110
     4  C   -0.146638
     5  C   -0.160796
     6  C    0.130700
     7  C    0.118089
     8  C   -0.023651
     9  C   -0.301577
    10  C   -0.281275
    11  C   -0.182908
    12  C   -0.103487
    13  C    0.171813
    14  C    0.056687
    15  C   -0.088613
    16  C   -0.251170
    17  C    0.098276
    18  C   -0.307582
    19  C   -0.299532
    20  C   -0.336124
    21  C   -0.129207
    22  C   -0.127143
    23  C   -0.369547
    24  C    0.152864
    25  C   -0.118442
    26  C   -0.321201
    27  C    0.093397
    28  C   -0.125086
    29  C   -0.375053
    30  C   -0.105868
    31  C   -0.107785
    32  C   -0.098602
    33  C   -0.118229
    34  C    0.047236
    35  C   -0.109078
    36  C    0.074850
    37  C   -0.361344
    38  C   -0.104384
    39  C   -0.116444
    40  C   -0.375283
    41  C   -0.077833
    42  C   -0.067033
    43  H    0.091053
    44  H    0.113656
    45  H    0.072548
    46  H    0.043039
    47  H    0.103068
    48  H    0.099424
    49  H    0.080493
    50  H    0.107188
    51  H    0.110054
    52  H    0.070588
    53  H    0.080526
    54  H    0.075935
    55  H    0.050601
    56  H    0.063320
    57  H    0.094404
    58  H    0.122722
    59  H    0.123103
    60  H    0.099169
    61  H    0.083255
    62  H    0.113672
    63  H    0.104375
    64  H    0.110817
    65  H    0.082363
    66  H    0.125336
    67  H    0.099590
    68  H    0.095931
    69  H    0.298456
    70  H    0.091689
    71  H    0.086474
    72  H    0.134665
    73  H    0.087511
    74  H    0.116093
    75  H    0.317070
    76  H    0.087801
    77  H    0.102863
    78  H    0.122390
    79  H    0.084407
    80  H    0.074943
    81  H    0.127661
    82  H    0.104916
    83  H    0.115062
    84  H    0.090327
    85  H    0.091079
    86  H    0.084742
    87  H    0.083970
    88  H    0.054358
    89  H    0.132770
    90  H    0.140961
    91  H    0.098655
    92  H    0.075318
    93  H    0.088355
    94  H    0.128736
    95  H    0.105602
    96  H    0.118154
    97  H    0.082737
    98  H    0.085078
 Sum of Mulliken charges =  -0.00000

 Dipole moment (field-independent basis, Debye):
    X=              0.9143    Y=              0.1402    Z=             -0.2803  Tot=              0.9665
 Quadrupole moment (field-independent basis, Debye-Ang):
   XX=           -281.4187   YY=           -243.7410   ZZ=           -263.8525
   XY=             -8.7229   XZ=             40.1347   YZ=              4.6608

 Normal termination of Gaussian 16 at Mon Jul 15 02:05:24 2019.
