 Gaussian 16, Revision A.03,
 Gaussian 16:  ES64L-G16RevA.03 25-Dec-2016

 -------------------------------------
 # td=(NStates=1) CAM-B3LYP/6-31G(d,p)
 -------------------------------------

 --
 TD
 --
 Symbolic Z-matrix:
 Charge =  0 Multiplicity = 1

                         Standard orientation:
 ---------------------------------------------------------------------
 Center     Atomic      Atomic             Coordinates (Angstroms)
 Number     Number       Type             X           Y           Z
 ---------------------------------------------------------------------
      1          8           0      -14.181136   -1.980632    0.550645
      2          8           0       14.695983    0.880137    0.180405
      3          6           0      -11.612036   -0.029586    1.292669
      4          6           0      -10.900468    0.292006    0.001160
      5          6           0      -11.989266   -1.577743    1.380244
      6          6           0      -12.770341   -2.129108    0.256148
      7          6           0      -11.662679   -0.357222   -1.093259
      8          6           0       11.123618    0.723095    1.182489
      9          6           0      -10.801476    0.307039    2.562241
     10          6           0      -12.875558    0.683481    1.439647
     11          6           0       12.507871    1.376681    0.941921
     12          6           0      -12.421500   -1.415224   -1.120460
     13          6           0       13.508009    0.421261    0.499495
     14          6           0       10.695135   -0.142373    0.122057
     15          6           0       -9.515638   -0.166243   -0.030566
     16          6           0       12.953474   -0.138854   -0.983943
     17          6           0       11.488204   -0.473182   -0.903900
     18          6           0       10.212820    2.037628    1.369343
     19          6           0       11.171493   -0.013100    2.433087
     20          6           0      -11.348739    0.336706   -2.428438
     21          6           0       -8.495885    0.709528   -0.146257
     22          6           0        9.334154   -0.450470    0.003549
     23          6           0       11.133121   -1.235000   -2.264127
     24          6           0       -7.012105    0.495723   -0.237778
     25          6           0        8.770222   -1.688026   -0.179633
     26          6           0       -6.565931   -0.886226   -0.166169
     27          6           0        7.290061   -2.090142   -0.260254
     28          6           0       -6.230848    1.625742   -0.399674
     29          6           0        6.934441   -3.524133   -0.194782
     30          6           0        6.304536   -1.078311   -0.139897
     31          6           0       -4.724516    1.573792   -0.486246
     32          6           0        5.002629   -1.395450   -0.196500
     33          6           0       -3.982833    2.688715   -0.530409
     34          6           0       -2.546875    2.788883   -0.732726
     35          6           0        3.956370   -0.486329   -0.203807
     36          6           0        2.572524   -0.772486   -0.178330
     37          6           0       -1.871247    4.113826   -0.786917
     38          6           0       -1.747373    1.616992   -0.640209
     39          6           0        1.642124    0.305977   -0.182883
     40          6           0        2.030039   -2.112495    0.201957
     41          6           0       -0.344395    1.545805   -0.568739
     42          6           0        0.218700    0.423951   -0.355921
     43          1           0      -10.877108    1.426704   -0.121896
     44          1           0      -12.265927   -1.861891    2.460244
     45          1           0      -11.013850   -2.092301    1.229282
     46          1           0      -12.622965   -3.318754    0.212774
     47          1           0       -9.999465   -0.438102    2.591707
     48          1           0      -10.248253    1.322423    2.536807
     49          1           0      -11.504630    0.176117    3.215646
     50          1           0      -13.455051    0.394041    0.436880
     51          1           0      -13.608636    0.350355    2.425824
     52          1           0      -12.720461    1.711650    1.377938
     53          1           0       12.626384    2.099001    0.247512
     54          1           0       12.960496    1.741538    1.902420
     55          1           0      -13.053733   -1.755244   -1.913812
     56          1           0       13.693134   -0.568879    1.056357
     57          1           0       -9.541150   -1.244632    0.049763
     58          1           0       13.734616   -1.026009   -1.384130
     59          1           0       13.107503    0.766070   -1.659152
     60          1           0        9.141884    1.706094    1.420014
     61          1           0       10.158978    2.564605    0.347540
     62          1           0       10.396235    2.601623    2.220699
     63          1           0       11.630477   -1.021347    2.514951
     64          1           0       10.052627   -0.284795    2.675232
     65          1           0       11.457359    0.741236    3.189634
     66          1           0      -10.362502    0.349517   -2.836212
     67          1           0      -11.795819    1.313695   -2.310027
     68          1           0      -11.977658   -0.249342   -3.253918
     69          1           0      -14.778193   -2.398543   -0.162165
     70          1           0        8.701904    0.258228    0.055376
     71          1           0       -8.826376    1.804908   -0.228839
     72          1           0       11.294870   -2.385889   -2.106749
     73          1           0       10.047047   -0.989075   -2.623216
     74          1           0       12.103857   -1.158115   -3.058136
     75          1           0       15.104668    1.024941    1.118708
     76          1           0        9.384657   -2.415672   -0.381072
     77          1           0       -5.620725   -1.023972   -0.200880
     78          1           0       -6.862008   -1.370024    0.776462
     79          1           0       -7.029094   -1.698674   -0.765332
     80          1           0       -6.692053    2.600908   -0.582884
     81          1           0        6.578930   -4.073919    0.745702
     82          1           0        6.241269   -3.703990   -1.058216
     83          1           0        7.971362   -4.055698   -0.498788
     84          1           0        6.507965   -0.071025   -0.434479
     85          1           0       -4.156078    0.615787   -0.250886
     86          1           0        4.590131   -2.422842    0.086825
     87          1           0       -4.567062    3.641580   -0.568931
     88          1           0        4.224332    0.578929   -0.383193
     89          1           0       -1.133655    3.907632   -1.574728
     90          1           0       -1.199608    4.376259    0.052920
     91          1           0       -2.460166    4.987642   -0.973713
     92          1           0       -2.333580    0.639149   -0.430900
     93          1           0        2.373320    1.128278   -0.368892
     94          1           0        2.494160   -2.578563    1.190318
     95          1           0        0.952992   -2.343695    0.184515
     96          1           0        2.526699   -2.894412   -0.508681
     97          1           0        0.252225    2.437443   -0.775998
     98          1           0       -0.302070   -0.447761   -0.399731
 ---------------------------------------------------------------------

 SCF Done:  E(RCAM-B3LYP) =  -1706.93110880     A.U. after   15 cycles

 Excitation energies and oscillator strengths:

 Excited State   1:      Singlet-A      2.3101 eV  536.71 nm  f=2.9065  <S**2>=0.000
     155 ->158         0.16520
     156 ->157         0.68613
 This state for optimization and/or second-order correction.
 Total Energy, E(TD-HF/TD-DFT) =  -1706.84621557
 Copying the excited state density for this state as the 1-particle RhoCI density.

 The electronic state is 1-A.
 Alpha  occ. eigenvalues --  -19.22201 -19.20553 -10.31687 -10.29650 -10.28208
 Alpha  occ. eigenvalues --  -10.28043 -10.27968 -10.27824 -10.27555 -10.27292
 Alpha  occ. eigenvalues --  -10.27243 -10.27090 -10.26925 -10.26924 -10.26897
 Alpha  occ. eigenvalues --  -10.26799 -10.26502 -10.26418 -10.26317 -10.26258
 Alpha  occ. eigenvalues --  -10.26234 -10.26191 -10.26153 -10.25930 -10.25722
 Alpha  occ. eigenvalues --  -10.25535 -10.25474 -10.25470 -10.25388 -10.25386
 Alpha  occ. eigenvalues --  -10.25361 -10.25213 -10.25156 -10.25125 -10.25122
 Alpha  occ. eigenvalues --  -10.25004 -10.24821 -10.24228 -10.24177 -10.23989
 Alpha  occ. eigenvalues --  -10.23810 -10.22662  -1.13101  -1.06899  -0.95115
 Alpha  occ. eigenvalues --   -0.94937  -0.92511  -0.91504  -0.90612  -0.89491
 Alpha  occ. eigenvalues --   -0.88102  -0.87264  -0.86860  -0.85363  -0.84859
 Alpha  occ. eigenvalues --   -0.83301  -0.82560  -0.81048  -0.80016  -0.77875
 Alpha  occ. eigenvalues --   -0.77641  -0.76290  -0.76057  -0.75880  -0.75832
 Alpha  occ. eigenvalues --   -0.75108  -0.74462  -0.73354  -0.72880  -0.69763
 Alpha  occ. eigenvalues --   -0.68778  -0.66757  -0.65975  -0.64747  -0.64664
 Alpha  occ. eigenvalues --   -0.63638  -0.63257  -0.62115  -0.60995  -0.60481
 Alpha  occ. eigenvalues --   -0.60250  -0.59679  -0.58203  -0.57408  -0.56547
 Alpha  occ. eigenvalues --   -0.56160  -0.55679  -0.55181  -0.54227  -0.53925
 Alpha  occ. eigenvalues --   -0.53818  -0.52803  -0.52404  -0.52072  -0.51967
 Alpha  occ. eigenvalues --   -0.50766  -0.50224  -0.50167  -0.49646  -0.48932
 Alpha  occ. eigenvalues --   -0.48814  -0.48375  -0.47873  -0.47599  -0.47513
 Alpha  occ. eigenvalues --   -0.47334  -0.47088  -0.46747  -0.46389  -0.46286
 Alpha  occ. eigenvalues --   -0.46198  -0.45757  -0.45651  -0.45535  -0.45212
 Alpha  occ. eigenvalues --   -0.45141  -0.44611  -0.44459  -0.44080  -0.43514
 Alpha  occ. eigenvalues --   -0.42826  -0.42645  -0.42436  -0.42231  -0.41987
 Alpha  occ. eigenvalues --   -0.41922  -0.41384  -0.40833  -0.40744  -0.40504
 Alpha  occ. eigenvalues --   -0.40382  -0.40146  -0.39775  -0.39486  -0.39450
 Alpha  occ. eigenvalues --   -0.39070  -0.38996  -0.38710  -0.38421  -0.37965
 Alpha  occ. eigenvalues --   -0.37816  -0.37394  -0.36862  -0.35555  -0.34951
 Alpha  occ. eigenvalues --   -0.34392  -0.33532  -0.32121  -0.31662  -0.30973
 Alpha  occ. eigenvalues --   -0.30859  -0.30155  -0.28747  -0.27110  -0.23796
 Alpha  occ. eigenvalues --   -0.19781
 Alpha virt. eigenvalues --   -0.05325  -0.01002   0.03027   0.05698   0.07033
 Alpha virt. eigenvalues --    0.08419   0.10604   0.10991   0.11491   0.12383
 Alpha virt. eigenvalues --    0.12602   0.13057   0.13281   0.13462   0.13704

 Mulliken charges:
               1
     1  O   -0.559632
     2  O   -0.515266
     3  C    0.002781
     4  C   -0.142353
     5  C   -0.183278
     6  C    0.144007
     7  C    0.117293
     8  C   -0.040084
     9  C   -0.274273
    10  C   -0.265006
    11  C   -0.142935
    12  C   -0.133590
    13  C    0.139345
    14  C    0.078334
    15  C   -0.034274
    16  C   -0.250622
    17  C    0.086970
    18  C   -0.312624
    19  C   -0.288125
    20  C   -0.353287
    21  C   -0.131025
    22  C   -0.093754
    23  C   -0.349499
    24  C    0.140329
    25  C   -0.077792
    26  C   -0.376428
    27  C    0.061776
    28  C   -0.150416
    29  C   -0.369913
    30  C   -0.102029
    31  C   -0.071243
    32  C   -0.073301
    33  C   -0.119520
    34  C    0.082310
    35  C   -0.133985
    36  C    0.120949
    37  C   -0.377363
    38  C   -0.134531
    39  C   -0.141397
    40  C   -0.381874
    41  C   -0.035170
    42  C   -0.062485
    43  H    0.084960
    44  H    0.105394
    45  H    0.085418
    46  H    0.058895
    47  H    0.089934
    48  H    0.086908
    49  H    0.104127
    50  H    0.095049
    51  H    0.077578
    52  H    0.090806
    53  H    0.109592
    54  H    0.060363
    55  H    0.085754
    56  H    0.053086
    57  H    0.088750
    58  H    0.081685
    59  H    0.112248
    60  H    0.094241
    61  H    0.102258
    62  H    0.116073
    63  H    0.114492
    64  H    0.090445
    65  H    0.093946
    66  H    0.132219
    67  H    0.114898
    68  H    0.076269
    69  H    0.301813
    70  H    0.066405
    71  H    0.073758
    72  H    0.107688
    73  H    0.117790
    74  H    0.090366
    75  H    0.300465
    76  H    0.056813
    77  H    0.113414
    78  H    0.117910
    79  H    0.121737
    80  H    0.092673
    81  H    0.129870
    82  H    0.128143
    83  H    0.088896
    84  H    0.085909
    85  H    0.085777
    86  H    0.077325
    87  H    0.075055
    88  H    0.076285
    89  H    0.124660
    90  H    0.127141
    91  H    0.114031
    92  H    0.069239
    93  H    0.059981
    94  H    0.110577
    95  H    0.116904
    96  H    0.095326
    97  H    0.090048
    98  H    0.081591
 Sum of Mulliken charges =  -0.00000

 Dipole moment (field-independent basis, Debye):
    X=              1.1319    Y=             -0.8295    Z=             -0.0420  Tot=              1.4040
 Quadrupole moment (field-independent basis, Debye-Ang):
   XX=           -268.9222   YY=           -241.4439   ZZ=           -265.4873
   XY=              9.1805   XZ=             39.7045   YZ=              2.5016

 Normal termination of Gaussian 16 at Tue Jul 16 10:00:43 2019.
