 Gaussian 16, Revision A.03,
 Gaussian 16:  ES64L-G16RevA.03 25-Dec-2016

 -------------------------------------
 # td=(NStates=1) CAM-B3LYP/6-31G(d,p)
 -------------------------------------

 --
 TD
 --
 Symbolic Z-matrix:
 Charge =  0 Multiplicity = 1

                         Standard orientation:
 ---------------------------------------------------------------------
 Center     Atomic      Atomic             Coordinates (Angstroms)
 Number     Number       Type             X           Y           Z
 ---------------------------------------------------------------------
      1          8           0      -14.177015   -2.043250    0.551210
      2          8           0       14.874440    0.768594    0.247729
      3          6           0      -11.793799   -0.006483    1.272331
      4          6           0      -11.030156    0.345302   -0.024928
      5          6           0      -11.931990   -1.580914    1.302336
      6          6           0      -12.765311   -2.084813    0.107446
      7          6           0      -11.607159   -0.291314   -1.209426
      8          6           0       11.103946    1.037457    1.059601
      9          6           0      -10.990643    0.405455    2.480687
     10          6           0      -13.183939    0.657383    1.341185
     11          6           0       12.585962    1.569364    0.817129
     12          6           0      -12.439652   -1.334839   -1.127933
     13          6           0       13.480540    0.438673    0.397012
     14          6           0       10.742478   -0.031879   -0.044898
     15          6           0       -9.559409   -0.077131   -0.009146
     16          6           0       13.118892   -0.122720   -0.926731
     17          6           0       11.637956   -0.476065   -0.927173
     18          6           0       10.213553    2.288727    0.916591
     19          6           0       11.074322    0.470323    2.457626
     20          6           0      -11.393866    0.506819   -2.468078
     21          6           0       -8.550956    0.833858   -0.150648
     22          6           0        9.357883   -0.495055   -0.075771
     23          6           0       11.253807   -1.436198   -2.122106
     24          6           0       -7.056292    0.515099   -0.101203
     25          6           0        8.720690   -1.772081   -0.117440
     26          6           0       -6.621948   -0.940191   -0.024593
     27          6           0        7.365965   -2.193760   -0.136544
     28          6           0       -6.258288    1.490205   -0.299900
     29          6           0        7.224731   -3.767605    0.219727
     30          6           0        6.355717   -1.277403   -0.138795
     31          6           0       -4.834192    1.407594   -0.413591
     32          6           0        4.925171   -1.540808   -0.104068
     33          6           0       -4.066464    2.536454   -0.500784
     34          6           0       -2.563143    2.463934   -0.676274
     35          6           0        4.002287   -0.528907   -0.305802
     36          6           0        2.585443   -0.739134   -0.101968
     37          6           0       -1.877301    3.781343   -0.909361
     38          6           0       -1.806242    1.397620   -0.471931
     39          6           0        1.788422    0.402861   -0.450511
     40          6           0        2.062434   -2.070155    0.244509
     41          6           0       -0.420564    1.436812   -0.595452
     42          6           0        0.377684    0.338306   -0.339780
     43          1           0      -11.160539    1.520230   -0.217163
     44          1           0      -12.702528   -1.946290    2.117606
     45          1           0      -10.999190   -2.175363    1.568662
     46          1           0      -12.419004   -3.117441   -0.068628
     47          1           0      -10.112378    0.034860    2.557707
     48          1           0      -10.554080    1.531241    2.447947
     49          1           0      -11.445056    0.328479    3.616377
     50          1           0      -13.746993    0.405351    0.483814
     51          1           0      -13.855348    0.524961    2.034005
     52          1           0      -13.124731    1.820779    1.389628
     53          1           0       12.540939    2.301589    0.032369
     54          1           0       12.888197    2.003289    1.791101
     55          1           0      -12.746910   -1.625489   -2.142557
     56          1           0       13.618256   -0.152216    1.293657
     57          1           0       -9.458033   -1.142344    0.262929
     58          1           0       13.680105   -1.149189   -1.133669
     59          1           0       13.370456    0.456557   -1.681119
     60          1           0        9.250768    2.117892    1.368750
     61          1           0       10.266797    2.706209   -0.268684
     62          1           0       10.448758    3.139874    1.558632
     63          1           0       11.864721   -0.215749    2.821712
     64          1           0       10.100671   -0.027306    2.780623
     65          1           0       11.112782    1.324244    3.146093
     66          1           0      -10.280504    0.927992   -2.481673
     67          1           0      -11.861319    1.319526   -2.618259
     68          1           0      -11.574221   -0.209727   -3.301353
     69          1           0      -14.756322   -2.109204   -0.324040
     70          1           0        8.602706    0.266272   -0.050471
     71          1           0       -8.750412    2.053684   -0.076871
     72          1           0       11.481983   -2.533208   -2.006089
     73          1           0       10.166876   -1.357854   -2.348265
     74          1           0       11.880247   -1.137052   -3.026932
     75          1           0       15.330363    0.873331    1.084289
     76          1           0        9.172727   -2.588510   -0.328970
     77          1           0       -5.701196   -1.276511    0.271908
     78          1           0       -7.187847   -1.328979    0.905438
     79          1           0       -7.011052   -1.510926   -0.846032
     80          1           0       -6.586231    2.497851    0.005760
     81          1           0        6.749067   -3.591995    1.218575
     82          1           0        6.418722   -4.206102   -0.514115
     83          1           0        8.185886   -4.244712    0.329046
     84          1           0        6.555383   -0.243487   -0.116153
     85          1           0       -4.567118    0.408014   -0.432636
     86          1           0        4.550241   -2.531737   -0.002080
     87          1           0       -4.319295    3.623669   -0.656112
     88          1           0        4.509372    0.503321   -0.357725
     89          1           0       -1.363831    3.756370   -1.784836
     90          1           0       -1.240042    3.896422   -0.063000
     91          1           0       -2.691741    4.712018   -0.676789
     92          1           0       -2.272868    0.358813   -0.154152
     93          1           0        2.363326    1.326880   -0.783153
     94          1           0        2.487814   -2.373011    1.043990
     95          1           0        1.126054   -2.250150    0.086049
     96          1           0        2.564942   -2.642469   -0.571414
     97          1           0        0.246686    2.518029   -0.618948
     98          1           0        0.015110   -0.710308   -0.004373
 ---------------------------------------------------------------------

 SCF Done:  E(RCAM-B3LYP) =  -1706.91802999     A.U. after   14 cycles

 Excitation energies and oscillator strengths:

 Excited State   1:      Singlet-A      2.4421 eV  507.69 nm  f=3.0040  <S**2>=0.000
     155 ->158         0.16285
     156 ->157         0.68625
 This state for optimization and/or second-order correction.
 Total Energy, E(TD-HF/TD-DFT) =  -1706.82828310
 Copying the excited state density for this state as the 1-particle RhoCI density.

 The electronic state is 1-A.
 Alpha  occ. eigenvalues --  -19.22269 -19.19356 -10.31053 -10.29499 -10.28269
 Alpha  occ. eigenvalues --  -10.28154 -10.27695 -10.27345 -10.27289 -10.27213
 Alpha  occ. eigenvalues --  -10.27106 -10.26941 -10.26938 -10.26872 -10.26840
 Alpha  occ. eigenvalues --  -10.26679 -10.26630 -10.26624 -10.26522 -10.26344
 Alpha  occ. eigenvalues --  -10.26163 -10.26132 -10.26124 -10.26056 -10.25938
 Alpha  occ. eigenvalues --  -10.25742 -10.25734 -10.25629 -10.25568 -10.25467
 Alpha  occ. eigenvalues --  -10.25400 -10.25202 -10.25121 -10.24882 -10.24877
 Alpha  occ. eigenvalues --  -10.24611 -10.24572 -10.24480 -10.24349 -10.24115
 Alpha  occ. eigenvalues --  -10.23744 -10.22099  -1.08042  -1.06803  -0.93971
 Alpha  occ. eigenvalues --   -0.92984  -0.92203  -0.91749  -0.90704  -0.89822
 Alpha  occ. eigenvalues --   -0.86683  -0.86641  -0.86325  -0.85119  -0.84398
 Alpha  occ. eigenvalues --   -0.83107  -0.82544  -0.80677  -0.79117  -0.78756
 Alpha  occ. eigenvalues --   -0.77455  -0.76460  -0.76364  -0.76012  -0.75848
 Alpha  occ. eigenvalues --   -0.75760  -0.75090  -0.74950  -0.72972  -0.70184
 Alpha  occ. eigenvalues --   -0.69245  -0.67149  -0.66308  -0.65833  -0.63925
 Alpha  occ. eigenvalues --   -0.63722  -0.62579  -0.61234  -0.60670  -0.59657
 Alpha  occ. eigenvalues --   -0.59115  -0.58943  -0.57129  -0.56924  -0.56127
 Alpha  occ. eigenvalues --   -0.55306  -0.55025  -0.54760  -0.54452  -0.53821
 Alpha  occ. eigenvalues --   -0.53290  -0.52788  -0.52029  -0.51424  -0.51097
 Alpha  occ. eigenvalues --   -0.50958  -0.50716  -0.50081  -0.49689  -0.49463
 Alpha  occ. eigenvalues --   -0.49279  -0.48999  -0.48954  -0.48779  -0.48249
 Alpha  occ. eigenvalues --   -0.47549  -0.47298  -0.47041  -0.46457  -0.46008
 Alpha  occ. eigenvalues --   -0.45506  -0.45429  -0.45157  -0.44623  -0.44396
 Alpha  occ. eigenvalues --   -0.44248  -0.43871  -0.43703  -0.43472  -0.42886
 Alpha  occ. eigenvalues --   -0.42484  -0.42305  -0.41694  -0.41519  -0.41421
 Alpha  occ. eigenvalues --   -0.41211  -0.40939  -0.40794  -0.40720  -0.40352
 Alpha  occ. eigenvalues --   -0.40292  -0.40276  -0.40123  -0.39787  -0.39621
 Alpha  occ. eigenvalues --   -0.39452  -0.39001  -0.38818  -0.38041  -0.37949
 Alpha  occ. eigenvalues --   -0.37015  -0.36745  -0.36086  -0.36009  -0.35668
 Alpha  occ. eigenvalues --   -0.35227  -0.34614  -0.33362  -0.32478  -0.31520
 Alpha  occ. eigenvalues --   -0.30853  -0.29693  -0.29342  -0.26861  -0.23981
 Alpha  occ. eigenvalues --   -0.19731
 Alpha virt. eigenvalues --   -0.04591  -0.00444   0.02808   0.05369   0.07772
 Alpha virt. eigenvalues --    0.09251   0.10650   0.11319   0.11758   0.12317
 Alpha virt. eigenvalues --    0.12643   0.12912   0.13038   0.13556   0.13758

 Mulliken charges:
               1
     1  O   -0.555414
     2  O   -0.588133
     3  C    0.040506
     4  C   -0.150358
     5  C   -0.218966
     6  C    0.144208
     7  C    0.133268
     8  C   -0.000684
     9  C   -0.282937
    10  C   -0.282808
    11  C   -0.181563
    12  C   -0.141455
    13  C    0.180569
    14  C    0.077618
    15  C   -0.089462
    16  C   -0.195298
    17  C    0.037067
    18  C   -0.304661
    19  C   -0.317725
    20  C   -0.346832
    21  C   -0.099854
    22  C   -0.144382
    23  C   -0.360003
    24  C    0.103911
    25  C   -0.060369
    26  C   -0.381463
    27  C    0.030870
    28  C   -0.117510
    29  C   -0.363364
    30  C   -0.111103
    31  C   -0.062325
    32  C   -0.096666
    33  C   -0.112933
    34  C    0.055195
    35  C   -0.115363
    36  C    0.061949
    37  C   -0.365810
    38  C   -0.091279
    39  C   -0.112711
    40  C   -0.345328
    41  C   -0.108376
    42  C   -0.085470
    43  H    0.083774
    44  H    0.117738
    45  H    0.093778
    46  H    0.091492
    47  H    0.111179
    48  H    0.061736
    49  H    0.077139
    50  H    0.103181
    51  H    0.118793
    52  H    0.064540
    53  H    0.097699
    54  H    0.082564
    55  H    0.062814
    56  H    0.074540
    57  H    0.103551
    58  H    0.100113
    59  H    0.134070
    60  H    0.104376
    61  H    0.087788
    62  H    0.103505
    63  H    0.107539
    64  H    0.102056
    65  H    0.097869
    66  H    0.095640
    67  H    0.138321
    68  H    0.098201
    69  H    0.307293
    70  H    0.082686
    71  H    0.083333
    72  H    0.109512
    73  H    0.121114
    74  H    0.094775
    75  H    0.294645
    76  H    0.054577
    77  H    0.124524
    78  H    0.103362
    79  H    0.131931
    80  H    0.076044
    81  H    0.137101
    82  H    0.115239
    83  H    0.123646
    84  H    0.079415
    85  H    0.085269
    86  H    0.071700
    87  H    0.089319
    88  H    0.083751
    89  H    0.139753
    90  H    0.137263
    91  H    0.069864
    92  H    0.076959
    93  H    0.084089
    94  H    0.137514
    95  H    0.115084
    96  H    0.122720
    97  H    0.079658
    98  H    0.079303
 Sum of Mulliken charges =  -0.00000

 Dipole moment (field-independent basis, Debye):
    X=              0.2045    Y=             -0.9922    Z=              0.6442  Tot=              1.2006
 Quadrupole moment (field-independent basis, Debye-Ang):
   XX=           -281.2996   YY=           -244.9262   ZZ=           -261.3457
   XY=              0.0004   XZ=             43.2350   YZ=              2.6911

 Normal termination of Gaussian 16 at Sat Jul 13 12:19:05 2019.
