 Gaussian 16, Revision A.03,
 Gaussian 16:  ES64L-G16RevA.03 25-Dec-2016

 -------------------------------------
 # td=(NStates=1) CAM-B3LYP/6-31G(d,p)
 -------------------------------------

 --
 TD
 --
 Symbolic Z-matrix:
 Charge =  0 Multiplicity = 1

                         Standard orientation:
 ---------------------------------------------------------------------
 Center     Atomic      Atomic             Coordinates (Angstroms)
 Number     Number       Type             X           Y           Z
 ---------------------------------------------------------------------
      1          8           0      -14.089642   -2.102237    0.487393
      2          8           0       14.709042    0.970390    0.174925
      3          6           0      -11.613791   -0.108263    1.307624
      4          6           0      -10.924958    0.293201    0.018980
      5          6           0      -11.892423   -1.600418    1.510234
      6          6           0      -12.664385   -2.203069    0.253633
      7          6           0      -11.645153   -0.403156   -1.246174
      8          6           0       10.952812    0.761219    1.121999
      9          6           0      -10.812888    0.381926    2.579288
     10          6           0      -12.910964    0.798132    1.329639
     11          6           0       12.344338    1.312729    0.897507
     12          6           0      -12.253906   -1.557222   -1.026976
     13          6           0       13.437397    0.403948    0.356402
     14          6           0       10.581796   -0.165164    0.003997
     15          6           0       -9.411501   -0.091167   -0.051201
     16          6           0       12.937896   -0.096344   -0.980613
     17          6           0       11.428836   -0.484592   -0.950192
     18          6           0       10.006714    2.032654    1.494417
     19          6           0       11.048302    0.034252    2.508946
     20          6           0      -11.418746    0.178439   -2.549168
     21          6           0       -8.458359    0.868082   -0.167980
     22          6           0        9.172353   -0.471461    0.056327
     23          6           0       11.083844   -1.347321   -2.209515
     24          6           0       -7.036115    0.642300   -0.152782
     25          6           0        8.744862   -1.646329   -0.274293
     26          6           0       -6.641934   -0.785245    0.031676
     27          6           0        7.269212   -2.150692   -0.175529
     28          6           0       -6.091972    1.697843   -0.162063
     29          6           0        6.988466   -3.601446    0.017074
     30          6           0        6.332789   -1.156541   -0.199759
     31          6           0       -4.675830    1.622899   -0.354048
     32          6           0        4.925131   -1.435441   -0.211194
     33          6           0       -3.871706    2.757367   -0.585356
     34          6           0       -2.480945    2.674025   -0.691091
     35          6           0        3.976863   -0.497835   -0.273960
     36          6           0        2.655398   -0.748894   -0.149891
     37          6           0       -1.847342    4.090320   -0.986724
     38          6           0       -1.757589    1.535011   -0.548684
     39          6           0        1.816545    0.387894   -0.329980
     40          6           0        2.120771   -2.195867   -0.010235
     41          6           0       -0.383831    1.500000   -0.596166
     42          6           0        0.432221    0.443295   -0.451452
     43          1           0      -10.802208    1.321918   -0.255731
     44          1           0      -12.439895   -1.896268    2.455539
     45          1           0      -10.988664   -2.159872    1.542427
     46          1           0      -12.445703   -3.370023    0.131641
     47          1           0       -9.701340   -0.006301    2.614937
     48          1           0      -10.422586    1.521815    2.410589
     49          1           0      -11.377585    0.188458    3.520439
     50          1           0      -13.453436    0.721265    0.452883
     51          1           0      -13.663599    0.442770    2.100594
     52          1           0      -12.711193    1.761021    1.466684
     53          1           0       12.183138    2.253440    0.059895
     54          1           0       12.769453    2.087450    1.665439
     55          1           0      -12.919318   -1.924703   -1.982687
     56          1           0       13.512873   -0.492101    1.204603
     57          1           0       -9.296018   -1.171621    0.057237
     58          1           0       13.550255   -1.030067   -1.064198
     59          1           0       13.165534    0.700020   -1.756785
     60          1           0        9.098585    1.730899    1.933127
     61          1           0        9.648404    2.361204    0.566431
     62          1           0       10.409389    2.588589    2.059373
     63          1           0       11.611679   -0.853020    2.597975
     64          1           0        9.925417   -0.311358    2.716022
     65          1           0       11.392385    0.833763    3.359546
     66          1           0      -10.344477    0.067367   -2.814241
     67          1           0      -11.682711    1.274875   -2.633708
     68          1           0      -11.940184   -0.467628   -3.206177
     69          1           0      -14.362253   -2.635732   -0.469323
     70          1           0        8.459098    0.279142    0.386447
     71          1           0       -8.747233    1.980322   -0.002878
     72          1           0       11.395812   -2.463896   -2.064371
     73          1           0        9.923450   -1.200391   -2.477131
     74          1           0       11.612965   -0.890884   -3.182557
     75          1           0       15.187676    1.081255    1.033670
     76          1           0        9.284979   -2.464051   -0.347375
     77          1           0       -5.581040   -0.924788   -0.115515
     78          1           0       -6.785499   -1.154967    1.005099
     79          1           0       -7.228695   -1.430355   -0.808414
     80          1           0       -6.539943    2.681855   -0.289264
     81          1           0        6.266647   -3.808289    0.997465
     82          1           0        6.593216   -4.095847   -0.969105
     83          1           0        7.889136   -4.171612    0.174486
     84          1           0        6.568714   -0.126257   -0.336329
     85          1           0       -4.192883    0.764946   -0.124388
     86          1           0        4.532865   -2.341803    0.039454
     87          1           0       -4.429121    3.638933   -0.729648
     88          1           0        4.242035    0.579082   -0.481584
     89          1           0       -1.356078    4.180125   -1.939134
     90          1           0       -1.018251    4.384996   -0.406398
     91          1           0       -2.466448    4.901635   -1.073955
     92          1           0       -2.381179    0.727017   -0.462880
     93          1           0        2.288171    1.272293   -0.135813
     94          1           0        2.875075   -2.773298    0.929573
     95          1           0        1.037054   -2.047854    0.779525
     96          1           0        1.977898   -2.877196   -1.000256
     97          1           0        0.191668    2.342084   -0.779035
     98          1           0       -0.044469   -0.538014   -0.567042
 ---------------------------------------------------------------------

 SCF Done:  E(RCAM-B3LYP) =  -1706.90910078     A.U. after   15 cycles

 Excitation energies and oscillator strengths:

 Excited State   1:      Singlet-A      2.1324 eV  581.44 nm  f=2.9280  <S**2>=0.000
     155 ->158         0.13560
     156 ->157         0.69564
 This state for optimization and/or second-order correction.
 Total Energy, E(TD-HF/TD-DFT) =  -1706.83073738
 Copying the excited state density for this state as the 1-particle RhoCI density.

 The electronic state is 1-A.
 Alpha  occ. eigenvalues --  -19.22591 -19.21735 -10.32020 -10.31411 -10.31224
 Alpha  occ. eigenvalues --  -10.27795 -10.27690 -10.27586 -10.27554 -10.27486
 Alpha  occ. eigenvalues --  -10.27409 -10.27286 -10.27100 -10.27076 -10.27049
 Alpha  occ. eigenvalues --  -10.26938 -10.26867 -10.26849 -10.26733 -10.26198
 Alpha  occ. eigenvalues --  -10.26148 -10.26086 -10.26060 -10.25993 -10.25867
 Alpha  occ. eigenvalues --  -10.25833 -10.25757 -10.25731 -10.25488 -10.25477
 Alpha  occ. eigenvalues --  -10.25343 -10.25128 -10.25040 -10.25002 -10.24994
 Alpha  occ. eigenvalues --  -10.24934 -10.24826 -10.24542 -10.24127 -10.24065
 Alpha  occ. eigenvalues --  -10.22442 -10.22127  -1.09512  -1.07035  -0.93866
 Alpha  occ. eigenvalues --   -0.93214  -0.92727  -0.92009  -0.90464  -0.89682
 Alpha  occ. eigenvalues --   -0.87835  -0.87213  -0.86124  -0.85533  -0.84606
 Alpha  occ. eigenvalues --   -0.82686  -0.81609  -0.80336  -0.79849  -0.78666
 Alpha  occ. eigenvalues --   -0.77689  -0.76770  -0.76609  -0.75487  -0.74943
 Alpha  occ. eigenvalues --   -0.74448  -0.73929  -0.73599  -0.73504  -0.70520
 Alpha  occ. eigenvalues --   -0.68837  -0.67393  -0.66995  -0.65283  -0.64206
 Alpha  occ. eigenvalues --   -0.63457  -0.62561  -0.62277  -0.61090  -0.60549
 Alpha  occ. eigenvalues --   -0.59604  -0.58211  -0.57777  -0.57308  -0.56100
 Alpha  occ. eigenvalues --   -0.55997  -0.55158  -0.54738  -0.53930  -0.53407
 Alpha  occ. eigenvalues --   -0.53128  -0.52708  -0.52314  -0.51990  -0.50945
 Alpha  occ. eigenvalues --   -0.50644  -0.50502  -0.49458  -0.49049  -0.48954
 Alpha  occ. eigenvalues --   -0.48436  -0.48355  -0.48203  -0.47923  -0.47741
 Alpha  occ. eigenvalues --   -0.47315  -0.47234  -0.46789  -0.46424  -0.46287
 Alpha  occ. eigenvalues --   -0.46063  -0.45829  -0.45704  -0.45243  -0.45125
 Alpha  occ. eigenvalues --   -0.44719  -0.44584  -0.44296  -0.44077  -0.43648
 Alpha  occ. eigenvalues --   -0.43303  -0.43213  -0.42345  -0.41793  -0.41748
 Alpha  occ. eigenvalues --   -0.41431  -0.41189  -0.40950  -0.40802  -0.40733
 Alpha  occ. eigenvalues --   -0.40424  -0.40117  -0.39629  -0.39253  -0.39104
 Alpha  occ. eigenvalues --   -0.38970  -0.38805  -0.38618  -0.38587  -0.37915
 Alpha  occ. eigenvalues --   -0.37757  -0.37333  -0.36637  -0.35764  -0.34802
 Alpha  occ. eigenvalues --   -0.34446  -0.33932  -0.33071  -0.32354  -0.32181
 Alpha  occ. eigenvalues --   -0.31548  -0.30157  -0.29595  -0.27250  -0.24112
 Alpha  occ. eigenvalues --   -0.19216
 Alpha virt. eigenvalues --   -0.05954  -0.00698   0.03167   0.05493   0.06620
 Alpha virt. eigenvalues --    0.08737   0.09595   0.10887   0.11531   0.11773
 Alpha virt. eigenvalues --    0.12554   0.12614   0.13067   0.13331   0.13890

 Mulliken charges:
               1
     1  O   -0.529386
     2  O   -0.557577
     3  C    0.035820
     4  C   -0.132216
     5  C   -0.187108
     6  C    0.124098
     7  C    0.123853
     8  C   -0.036717
     9  C   -0.299728
    10  C   -0.297032
    11  C   -0.178813
    12  C   -0.124508
    13  C    0.186356
    14  C    0.096807
    15  C   -0.081712
    16  C   -0.202219
    17  C    0.024084
    18  C   -0.275457
    19  C   -0.275818
    20  C   -0.360493
    21  C   -0.114686
    22  C   -0.091559
    23  C   -0.349821
    24  C    0.109863
    25  C   -0.076103
    26  C   -0.367514
    27  C    0.055164
    28  C   -0.142519
    29  C   -0.366641
    30  C   -0.103174
    31  C   -0.059498
    32  C   -0.087278
    33  C   -0.126713
    34  C    0.104234
    35  C   -0.081238
    36  C    0.118184
    37  C   -0.390839
    38  C   -0.089017
    39  C   -0.131155
    40  C   -0.341022
    41  C   -0.072434
    42  C   -0.087186
    43  H    0.088659
    44  H    0.115346
    45  H    0.104491
    46  H    0.061682
    47  H    0.086227
    48  H    0.073698
    49  H    0.107370
    50  H    0.114214
    51  H    0.092604
    52  H    0.105424
    53  H    0.041677
    54  H    0.065362
    55  H    0.035502
    56  H    0.039863
    57  H    0.099136
    58  H    0.109600
    59  H    0.125960
    60  H    0.100468
    61  H    0.109189
    62  H    0.100692
    63  H    0.106450
    64  H    0.079485
    65  H    0.076038
    66  H    0.128135
    67  H    0.114552
    68  H    0.113437
    69  H    0.296204
    70  H    0.094941
    71  H    0.083941
    72  H    0.110617
    73  H    0.108561
    74  H    0.093196
    75  H    0.313175
    76  H    0.068017
    77  H    0.103449
    78  H    0.135562
    79  H    0.097388
    80  H    0.073664
    81  H    0.108819
    82  H    0.117806
    83  H    0.116069
    84  H    0.079418
    85  H    0.082848
    86  H    0.063272
    87  H    0.087251
    88  H    0.072457
    89  H    0.118598
    90  H    0.121917
    91  H    0.114092
    92  H    0.072544
    93  H    0.076420
    94  H    0.080761
    95  H    0.079757
    96  H    0.129742
    97  H    0.074750
    98  H    0.068222
 Sum of Mulliken charges =  -0.00000

 Dipole moment (field-independent basis, Debye):
    X=              0.3244    Y=             -0.9087    Z=             -0.1171  Tot=              0.9719
 Quadrupole moment (field-independent basis, Debye-Ang):
   XX=           -284.2544   YY=           -242.5004   ZZ=           -261.9357
   XY=             -3.6084   XZ=             37.9097   YZ=              2.1483

 Normal termination of Gaussian 16 at Mon Jul 15 02:47:55 2019.
