 Gaussian 16, Revision A.03,
 Gaussian 16:  ES64L-G16RevA.03 25-Dec-2016

 -------------------------------------
 # td=(NStates=1) CAM-B3LYP/6-31G(d,p)
 -------------------------------------

 --
 TD
 --
 Symbolic Z-matrix:
 Charge =  0 Multiplicity = 1

                         Standard orientation:
 ---------------------------------------------------------------------
 Center     Atomic      Atomic             Coordinates (Angstroms)
 Number     Number       Type             X           Y           Z
 ---------------------------------------------------------------------
      1          8           0      -14.129660   -2.046592    0.532929
      2          8           0       14.776444    0.778142    0.167271
      3          6           0      -11.663104   -0.054914    1.273065
      4          6           0      -10.887142    0.148089   -0.059766
      5          6           0      -11.906011   -1.555648    1.425793
      6          6           0      -12.723375   -2.174373    0.206275
      7          6           0      -11.568200   -0.518459   -1.249049
      8          6           0       11.185098    0.978525    0.988314
      9          6           0      -10.899366    0.451621    2.453414
     10          6           0      -12.962048    0.658847    1.282541
     11          6           0       12.559881    1.391603    0.675263
     12          6           0      -12.251743   -1.649348   -1.064441
     13          6           0       13.453854    0.303511    0.423128
     14          6           0       10.751383   -0.144865   -0.013183
     15          6           0       -9.451631   -0.090013   -0.040891
     16          6           0       12.989948   -0.402094   -0.900345
     17          6           0       11.514339   -0.686987   -1.008951
     18          6           0       10.297254    2.129825    1.064511
     19          6           0       11.046477    0.328270    2.472792
     20          6           0      -11.378887    0.010877   -2.630861
     21          6           0       -8.466890    0.912913   -0.105142
     22          6           0        9.358926   -0.504317    0.111348
     23          6           0       11.061262   -1.589942   -2.087788
     24          6           0       -7.088062    0.602421   -0.028938
     25          6           0        8.722517   -1.697654   -0.060252
     26          6           0       -6.593609   -0.851571    0.238219
     27          6           0        7.342229   -2.068173    0.030290
     28          6           0       -6.111092    1.594128   -0.246321
     29          6           0        6.933438   -3.540116    0.072282
     30          6           0        6.286487   -1.155415   -0.101162
     31          6           0       -4.733399    1.672659   -0.310333
     32          6           0        4.919439   -1.466484   -0.034883
     33          6           0       -4.051985    2.770469   -0.463037
     34          6           0       -2.554035    2.872277   -0.678955
     35          6           0        3.938379   -0.526308   -0.372328
     36          6           0        2.538720   -0.686633   -0.215633
     37          6           0       -1.857718    4.177403   -0.980751
     38          6           0       -1.772667    1.675417   -0.531011
     39          6           0        1.734550    0.404451   -0.374084
     40          6           0        1.912638   -2.079827    0.030597
     41          6           0       -0.373533    1.648348   -0.595809
     42          6           0        0.382261    0.461273   -0.356265
     43          1           0      -11.107783    1.234464   -0.353403
     44          1           0      -12.380781   -1.811420    2.413993
     45          1           0      -11.020686   -1.896874    1.452263
     46          1           0      -12.554206   -3.288219    0.385469
     47          1           0      -10.062958   -0.133663    2.500766
     48          1           0      -10.593879    1.510328    2.460600
     49          1           0      -11.411050    0.386307    3.337087
     50          1           0      -13.733829    0.486696    0.561504
     51          1           0      -13.696066    0.279110    2.113053
     52          1           0      -12.980151    1.742618    1.023217
     53          1           0       12.695542    2.162847   -0.095100
     54          1           0       12.898872    2.019200    1.498451
     55          1           0      -12.770050   -2.014972   -1.951557
     56          1           0       13.463601   -0.467957    1.170354
     57          1           0       -9.072004   -1.068828    0.256352
     58          1           0       13.439552   -1.474585   -0.986742
     59          1           0       13.238537    0.285022   -1.733273
     60          1           0        9.248230    1.956885    1.399509
     61          1           0       10.000633    2.631485    0.067656
     62          1           0       10.646617    2.758827    1.858168
     63          1           0       11.758967   -0.472458    2.537680
     64          1           0       10.036601   -0.181142    2.694933
     65          1           0       11.263983    1.180433    3.072330
     66          1           0      -10.298462   -0.130811   -3.101147
     67          1           0      -11.645914    1.108968   -2.648399
     68          1           0      -12.031361   -0.389883   -3.463176
     69          1           0      -14.487281   -2.507717   -0.206098
     70          1           0        8.718294    0.365100    0.340878
     71          1           0       -8.929883    1.908081   -0.324810
     72          1           0       11.185509   -2.635038   -1.968479
     73          1           0        9.969745   -1.386844   -2.110143
     74          1           0       11.524198   -1.318056   -2.921575
     75          1           0       14.874376    1.368169    0.988396
     76          1           0        9.439119   -2.573774   -0.312170
     77          1           0       -5.561699   -0.890317    0.464713
     78          1           0       -7.156828   -1.081433    1.171245
     79          1           0       -6.814555   -1.364771   -0.571728
     80          1           0       -6.725942    2.535655   -0.543961
     81          1           0        6.649825   -3.685086    1.214233
     82          1           0        6.024987   -3.940777   -0.727083
     83          1           0        7.871848   -4.091416   -0.039160
     84          1           0        6.325844   -0.139656   -0.261125
     85          1           0       -4.274427    0.666397   -0.309987
     86          1           0        4.609009   -2.590269    0.189516
     87          1           0       -4.523341    3.760449   -0.578326
     88          1           0        4.473790    0.445017   -0.456422
     89          1           0       -1.134354    4.134591   -1.763560
     90          1           0       -1.299795    4.481353    0.017300
     91          1           0       -2.704758    4.883409   -1.184526
     92          1           0       -2.163518    0.739448   -0.295803
     93          1           0        2.339675    1.328014   -0.532183
     94          1           0        2.461282   -2.505179    1.013799
     95          1           0        0.984678   -1.835176    0.354700
     96          1           0        1.845599   -2.832505   -0.861647
     97          1           0        0.344212    2.442562   -0.973151
     98          1           0       -0.179327   -0.443726   -0.310958
 ---------------------------------------------------------------------

 SCF Done:  E(RCAM-B3LYP) =  -1707.03232699     A.U. after   15 cycles

 Excitation energies and oscillator strengths:

 Excited State   1:      Singlet-A      2.0325 eV  610.00 nm  f=3.1170  <S**2>=0.000
     155 ->158        -0.14624
     156 ->157         0.69331
 This state for optimization and/or second-order correction.
 Total Energy, E(TD-HF/TD-DFT) =  -1706.95763339
 Copying the excited state density for this state as the 1-particle RhoCI density.

 The electronic state is 1-A.
 Alpha  occ. eigenvalues --  -19.21622 -19.20889 -10.30814 -10.29731 -10.28546
 Alpha  occ. eigenvalues --  -10.27851 -10.27741 -10.27554 -10.27531 -10.27395
 Alpha  occ. eigenvalues --  -10.27222 -10.27061 -10.26994 -10.26946 -10.26874
 Alpha  occ. eigenvalues --  -10.26872 -10.26819 -10.26499 -10.26496 -10.26447
 Alpha  occ. eigenvalues --  -10.26410 -10.26321 -10.26279 -10.26274 -10.26008
 Alpha  occ. eigenvalues --  -10.25943 -10.25906 -10.25871 -10.25615 -10.25547
 Alpha  occ. eigenvalues --  -10.25526 -10.25438 -10.25154 -10.25065 -10.24920
 Alpha  occ. eigenvalues --  -10.24710 -10.24694 -10.24661 -10.23494 -10.23382
 Alpha  occ. eigenvalues --  -10.22864 -10.21889  -1.09489  -1.09227  -0.94441
 Alpha  occ. eigenvalues --   -0.94345  -0.92151  -0.91556  -0.90411  -0.89552
 Alpha  occ. eigenvalues --   -0.88354  -0.87747  -0.87186  -0.85781  -0.84553
 Alpha  occ. eigenvalues --   -0.83517  -0.82457  -0.80711  -0.80557  -0.78289
 Alpha  occ. eigenvalues --   -0.77314  -0.77229  -0.76476  -0.75890  -0.75822
 Alpha  occ. eigenvalues --   -0.75672  -0.75437  -0.75370  -0.72322  -0.70183
 Alpha  occ. eigenvalues --   -0.69052  -0.67693  -0.66402  -0.64853  -0.64647
 Alpha  occ. eigenvalues --   -0.63490  -0.63123  -0.61901  -0.60641  -0.60357
 Alpha  occ. eigenvalues --   -0.59607  -0.58567  -0.58497  -0.57708  -0.56471
 Alpha  occ. eigenvalues --   -0.56283  -0.54937  -0.54721  -0.54419  -0.53685
 Alpha  occ. eigenvalues --   -0.53616  -0.53143  -0.52569  -0.51885  -0.51569
 Alpha  occ. eigenvalues --   -0.51178  -0.50698  -0.50076  -0.49825  -0.49691
 Alpha  occ. eigenvalues --   -0.49193  -0.49088  -0.48326  -0.48258  -0.48069
 Alpha  occ. eigenvalues --   -0.47784  -0.47135  -0.46868  -0.46662  -0.46429
 Alpha  occ. eigenvalues --   -0.46280  -0.45871  -0.45521  -0.45488  -0.45273
 Alpha  occ. eigenvalues --   -0.45138  -0.44745  -0.44198  -0.44117  -0.43780
 Alpha  occ. eigenvalues --   -0.43330  -0.43285  -0.42704  -0.42400  -0.42231
 Alpha  occ. eigenvalues --   -0.42169  -0.41709  -0.41660  -0.41453  -0.41035
 Alpha  occ. eigenvalues --   -0.40636  -0.40287  -0.40020  -0.39541  -0.39387
 Alpha  occ. eigenvalues --   -0.39019  -0.38865  -0.38562  -0.37886  -0.37575
 Alpha  occ. eigenvalues --   -0.37226  -0.36835  -0.36311  -0.36109  -0.35467
 Alpha  occ. eigenvalues --   -0.35338  -0.34873  -0.34119  -0.32945  -0.32054
 Alpha  occ. eigenvalues --   -0.32012  -0.29970  -0.28745  -0.26193  -0.23393
 Alpha  occ. eigenvalues --   -0.18935
 Alpha virt. eigenvalues --   -0.06189  -0.01331   0.02122   0.05431   0.06681
 Alpha virt. eigenvalues --    0.09210   0.11651   0.11943   0.12436   0.12903
 Alpha virt. eigenvalues --    0.13016   0.13408   0.13500   0.13974   0.14531

 Mulliken charges:
               1
     1  O   -0.531152
     2  O   -0.556875
     3  C    0.024158
     4  C   -0.155119
     5  C   -0.168124
     6  C    0.108778
     7  C    0.136988
     8  C   -0.010977
     9  C   -0.283703
    10  C   -0.312716
    11  C   -0.197890
    12  C   -0.115449
    13  C    0.168936
    14  C    0.061264
    15  C   -0.081784
    16  C   -0.225532
    17  C    0.044443
    18  C   -0.309688
    19  C   -0.301518
    20  C   -0.362872
    21  C   -0.089940
    22  C   -0.119943
    23  C   -0.359808
    24  C    0.060508
    25  C   -0.124730
    26  C   -0.357260
    27  C    0.070904
    28  C   -0.133009
    29  C   -0.354174
    30  C   -0.092981
    31  C   -0.036671
    32  C   -0.076953
    33  C   -0.107594
    34  C    0.048437
    35  C   -0.133959
    36  C    0.089474
    37  C   -0.358939
    38  C   -0.102250
    39  C   -0.098660
    40  C   -0.353804
    41  C   -0.087571
    42  C   -0.103945
    43  H    0.080180
    44  H    0.098040
    45  H    0.092889
    46  H    0.073479
    47  H    0.093503
    48  H    0.094367
    49  H    0.107259
    50  H    0.114511
    51  H    0.096893
    52  H    0.078655
    53  H    0.116148
    54  H    0.069041
    55  H    0.061470
    56  H    0.088151
    57  H    0.088087
    58  H    0.096263
    59  H    0.113468
    60  H    0.104320
    61  H    0.096445
    62  H    0.102800
    63  H    0.104586
    64  H    0.114162
    65  H    0.098177
    66  H    0.113762
    67  H    0.108300
    68  H    0.112143
    69  H    0.298116
    70  H    0.075913
    71  H    0.090983
    72  H    0.120595
    73  H    0.126389
    74  H    0.116366
    75  H    0.301148
    76  H    0.074288
    77  H    0.110337
    78  H    0.117292
    79  H    0.139940
    80  H    0.058152
    81  H    0.115517
    82  H    0.106000
    83  H    0.108445
    84  H    0.068664
    85  H    0.086822
    86  H    0.075208
    87  H    0.082401
    88  H    0.076268
    89  H    0.136527
    90  H    0.120572
    91  H    0.105238
    92  H    0.080266
    93  H    0.076212
    94  H    0.100594
    95  H    0.121654
    96  H    0.118007
    97  H    0.082012
    98  H    0.084678
 Sum of Mulliken charges =  -0.00000

 Dipole moment (field-independent basis, Debye):
    X=             -0.1183    Y=             -0.0606    Z=             -0.6204  Tot=              0.6345
 Quadrupole moment (field-independent basis, Debye-Ang):
   XX=           -294.3898   YY=           -243.2454   ZZ=           -260.5004
   XY=             12.1202   XZ=             39.6424   YZ=              2.1902

 Normal termination of Gaussian 16 at Mon Jul 15 21:48:28 2019.
