 Gaussian 16, Revision A.03,
 Gaussian 16:  ES64L-G16RevA.03 25-Dec-2016

 -------------------------------------
 # td=(NStates=1) CAM-B3LYP/6-31G(d,p)
 -------------------------------------

 --
 TD
 --
 Symbolic Z-matrix:
 Charge =  0 Multiplicity = 1

                         Standard orientation:
 ---------------------------------------------------------------------
 Center     Atomic      Atomic             Coordinates (Angstroms)
 Number     Number       Type             X           Y           Z
 ---------------------------------------------------------------------
      1          8           0      -14.107311   -2.094329    0.375497
      2          8           0       14.730376    0.988930    0.101181
      3          6           0      -11.777150    0.096778    1.319181
      4          6           0      -11.032739    0.398527   -0.090969
      5          6           0      -11.996858   -1.483436    1.380704
      6          6           0      -12.640679   -2.105952    0.248157
      7          6           0      -11.629373   -0.266697   -1.233040
      8          6           0       11.081513    0.955740    1.175291
      9          6           0      -10.958494    0.501821    2.474900
     10          6           0      -13.171956    0.698136    1.281439
     11          6           0       12.464213    1.518953    0.902659
     12          6           0      -12.409206   -1.298304   -1.078784
     13          6           0       13.374252    0.542156    0.242262
     14          6           0       10.632556   -0.019734    0.014674
     15          6           0       -9.549575    0.077001   -0.076624
     16          6           0       12.892919    0.002791   -1.000489
     17          6           0       11.422244   -0.408435   -0.991000
     18          6           0       10.125464    2.222835    1.194928
     19          6           0       11.017694    0.179839    2.491603
     20          6           0      -11.103758    0.237043   -2.546431
     21          6           0       -8.493410    0.860463   -0.154092
     22          6           0        9.318304   -0.490720    0.214086
     23          6           0       11.055468   -1.127180   -2.233434
     24          6           0       -7.056727    0.574668   -0.049250
     25          6           0        8.825064   -1.670781   -0.178998
     26          6           0       -6.711733   -0.947004    0.152518
     27          6           0        7.464889   -2.189883   -0.147117
     28          6           0       -6.180459    1.534986   -0.344137
     29          6           0        7.351809   -3.731821    0.170946
     30          6           0        6.359085   -1.381020   -0.240102
     31          6           0       -4.720530    1.466356   -0.327208
     32          6           0        4.999777   -1.625018   -0.106569
     33          6           0       -3.923927    2.547060   -0.587018
     34          6           0       -2.560519    2.567949   -0.548559
     35          6           0        4.029391   -0.591019   -0.234219
     36          6           0        2.598581   -0.939536   -0.112896
     37          6           0       -1.805594    3.857386   -0.778753
     38          6           0       -1.738510    1.374821   -0.496394
     39          6           0        1.751559    0.172018   -0.364136
     40          6           0        2.105293   -2.304448    0.146347
     41          6           0       -0.353809    1.309880   -0.684326
     42          6           0        0.370218    0.264849   -0.235068
     43          1           0      -11.136992    1.507472   -0.255101
     44          1           0      -12.441237   -1.687554    2.429852
     45          1           0      -10.918785   -1.993858    1.538664
     46          1           0      -12.245963   -3.127051    0.183746
     47          1           0      -10.283428    0.087399    2.999842
     48          1           0      -10.793620    1.598530    2.319558
     49          1           0      -11.775025    0.298060    3.237679
     50          1           0      -13.623271    0.351032    0.280825
     51          1           0      -13.821296    0.588728    2.156128
     52          1           0      -13.067589    1.888643    0.973178
     53          1           0       12.215930    2.316307    0.123693
     54          1           0       12.670284    1.949934    1.841054
     55          1           0      -13.063376   -1.587037   -1.989175
     56          1           0       13.353517   -0.286980    1.032584
     57          1           0       -9.294847   -0.887963    0.208855
     58          1           0       13.508247   -0.751804   -1.104144
     59          1           0       12.969353    0.867755   -1.624404
     60          1           0        9.217559    2.028837    1.503678
     61          1           0       10.095445    2.639657    0.183332
     62          1           0       10.583476    2.778123    1.930479
     63          1           0       11.740035   -0.448666    2.434344
     64          1           0       10.116250   -0.487625    2.514174
     65          1           0       11.190606    1.007708    3.078727
     66          1           0      -10.105806    0.604612   -2.500978
     67          1           0      -11.609144    1.313273   -2.572117
     68          1           0      -11.713297   -0.251369   -3.402853
     69          1           0      -14.567014   -2.180275   -0.388662
     70          1           0        8.616109    0.290859    0.554467
     71          1           0       -8.851320    1.938288   -0.373089
     72          1           0       11.387965   -2.113154   -2.394278
     73          1           0        9.943471   -0.923748   -2.412016
     74          1           0       11.456316   -0.643280   -3.275655
     75          1           0       15.145200    1.093638    0.970973
     76          1           0        9.367614   -2.501784   -0.330139
     77          1           0       -5.611312   -1.239078    0.083932
     78          1           0       -7.168548   -1.590479    1.030324
     79          1           0       -7.043910   -1.407126   -0.707061
     80          1           0       -6.814639    2.411291   -0.616383
     81          1           0        7.489136   -3.871575    1.391689
     82          1           0        6.223550   -4.294038   -0.181017
     83          1           0        8.178862   -4.435482   -0.245975
     84          1           0        6.774607   -0.335392   -0.858201
     85          1           0       -4.355010    0.520216   -0.165184
     86          1           0        4.589310   -2.703388    0.098302
     87          1           0       -4.401992    3.506727   -0.653943
     88          1           0        4.214215    0.541068   -0.390122
     89          1           0       -1.175745    3.884794   -1.642178
     90          1           0       -0.961770    4.178219   -0.116054
     91          1           0       -2.443092    4.819434   -0.716405
     92          1           0       -2.291817    0.572108   -0.452128
     93          1           0        2.276869    1.063512   -0.670873
     94          1           0        2.610664   -2.436371    1.005695
     95          1           0        1.087653   -2.527004   -0.044575
     96          1           0        2.628005   -2.905679   -0.615369
     97          1           0        0.300558    2.303194   -0.908378
     98          1           0        0.092797   -0.774852    0.266773
 ---------------------------------------------------------------------

 SCF Done:  E(RCAM-B3LYP) =  -1706.87054299     A.U. after   15 cycles

 Excitation energies and oscillator strengths:

 Excited State   1:      Singlet-A      2.1410 eV  579.10 nm  f=2.9326  <S**2>=0.000
     155 ->158         0.14732
     156 ->157         0.69360
 This state for optimization and/or second-order correction.
 Total Energy, E(TD-HF/TD-DFT) =  -1706.79186323
 Copying the excited state density for this state as the 1-particle RhoCI density.

 The electronic state is 1-A.
 Alpha  occ. eigenvalues --  -19.20855 -19.19332 -10.31389 -10.29867 -10.29772
 Alpha  occ. eigenvalues --  -10.28310 -10.28113 -10.27862 -10.27768 -10.27742
 Alpha  occ. eigenvalues --  -10.27460 -10.27430 -10.27297 -10.27225 -10.26951
 Alpha  occ. eigenvalues --  -10.26807 -10.26507 -10.26473 -10.26410 -10.26332
 Alpha  occ. eigenvalues --  -10.26298 -10.26259 -10.26168 -10.26073 -10.25864
 Alpha  occ. eigenvalues --  -10.25815 -10.25677 -10.25634 -10.25627 -10.25495
 Alpha  occ. eigenvalues --  -10.25336 -10.25296 -10.25202 -10.25111 -10.25097
 Alpha  occ. eigenvalues --  -10.24935 -10.24770 -10.24199 -10.23189 -10.23112
 Alpha  occ. eigenvalues --  -10.22978 -10.22733  -1.08745  -1.08503  -0.94501
 Alpha  occ. eigenvalues --   -0.94097  -0.92405  -0.91706  -0.90455  -0.90021
 Alpha  occ. eigenvalues --   -0.88286  -0.87877  -0.87587  -0.86220  -0.85090
 Alpha  occ. eigenvalues --   -0.83345  -0.82810  -0.81084  -0.79986  -0.79425
 Alpha  occ. eigenvalues --   -0.78515  -0.77008  -0.76878  -0.76687  -0.76421
 Alpha  occ. eigenvalues --   -0.75549  -0.75143  -0.74816  -0.72812  -0.70903
 Alpha  occ. eigenvalues --   -0.69260  -0.67832  -0.66905  -0.65263  -0.63528
 Alpha  occ. eigenvalues --   -0.63169  -0.62511  -0.61590  -0.60472  -0.59521
 Alpha  occ. eigenvalues --   -0.59141  -0.58938  -0.58195  -0.58076  -0.57469
 Alpha  occ. eigenvalues --   -0.56344  -0.55589  -0.55464  -0.54917  -0.54433
 Alpha  occ. eigenvalues --   -0.54046  -0.53722  -0.53470  -0.52973  -0.52025
 Alpha  occ. eigenvalues --   -0.51430  -0.50876  -0.50257  -0.49948  -0.49715
 Alpha  occ. eigenvalues --   -0.49319  -0.49044  -0.48768  -0.48184  -0.47947
 Alpha  occ. eigenvalues --   -0.47636  -0.47504  -0.47201  -0.46746  -0.46499
 Alpha  occ. eigenvalues --   -0.46303  -0.46031  -0.45777  -0.45327  -0.44842
 Alpha  occ. eigenvalues --   -0.44077  -0.43985  -0.43808  -0.43493  -0.43157
 Alpha  occ. eigenvalues --   -0.42845  -0.42626  -0.42434  -0.42265  -0.41934
 Alpha  occ. eigenvalues --   -0.41538  -0.41302  -0.40680  -0.40581  -0.40069
 Alpha  occ. eigenvalues --   -0.39955  -0.39784  -0.39731  -0.39655  -0.39113
 Alpha  occ. eigenvalues --   -0.39038  -0.38872  -0.38599  -0.38344  -0.37860
 Alpha  occ. eigenvalues --   -0.37598  -0.36737  -0.36271  -0.36162  -0.35891
 Alpha  occ. eigenvalues --   -0.35712  -0.34536  -0.34182  -0.31805  -0.31549
 Alpha  occ. eigenvalues --   -0.31359  -0.29342  -0.28223  -0.27257  -0.23955
 Alpha  occ. eigenvalues --   -0.19520
 Alpha virt. eigenvalues --   -0.06007  -0.01107   0.03184   0.05826   0.07065
 Alpha virt. eigenvalues --    0.08844   0.10509   0.11421   0.12135   0.12312
 Alpha virt. eigenvalues --    0.12405   0.13010   0.13061   0.13671   0.13725

 Mulliken charges:
               1
     1  O   -0.559895
     2  O   -0.571610
     3  C    0.017974
     4  C   -0.160329
     5  C   -0.183549
     6  C    0.172989
     7  C    0.168201
     8  C   -0.075148
     9  C   -0.273924
    10  C   -0.271723
    11  C   -0.168934
    12  C   -0.182089
    13  C    0.151889
    14  C    0.091000
    15  C   -0.074149
    16  C   -0.177211
    17  C    0.025379
    18  C   -0.298352
    19  C   -0.274059
    20  C   -0.355108
    21  C   -0.105251
    22  C   -0.119632
    23  C   -0.369558
    24  C    0.118617
    25  C   -0.082974
    26  C   -0.389610
    27  C    0.069476
    28  C   -0.126462
    29  C   -0.348833
    30  C   -0.111120
    31  C   -0.073840
    32  C   -0.124887
    33  C   -0.106999
    34  C    0.104316
    35  C   -0.093690
    36  C    0.077614
    37  C   -0.398735
    38  C   -0.085955
    39  C   -0.128308
    40  C   -0.370355
    41  C   -0.117179
    42  C   -0.042788
    43  H    0.083068
    44  H    0.103149
    45  H    0.075055
    46  H    0.099872
    47  H    0.111871
    48  H    0.095124
    49  H    0.077538
    50  H    0.117835
    51  H    0.112369
    52  H    0.050609
    53  H    0.083976
    54  H    0.080463
    55  H    0.056208
    56  H    0.048218
    57  H    0.071045
    58  H    0.120516
    59  H    0.121173
    60  H    0.110578
    61  H    0.109599
    62  H    0.100450
    63  H    0.111631
    64  H    0.110617
    65  H    0.095026
    66  H    0.144930
    67  H    0.083703
    68  H    0.110318
    69  H    0.294615
    70  H    0.087788
    71  H    0.059996
    72  H    0.126789
    73  H    0.116928
    74  H    0.081261
    75  H    0.308010
    76  H    0.072658
    77  H    0.099425
    78  H    0.107655
    79  H    0.143437
    80  H    0.080927
    81  H    0.103821
    82  H    0.077656
    83  H    0.114154
    84  H    0.068481
    85  H    0.085929
    86  H    0.092240
    87  H    0.088076
    88  H    0.100891
    89  H    0.130003
    90  H    0.114542
    91  H    0.094812
    92  H    0.067729
    93  H    0.063428
    94  H    0.145176
    95  H    0.125365
    96  H    0.129086
    97  H    0.084057
    98  H    0.074923
 Sum of Mulliken charges =  -0.00000

 Dipole moment (field-independent basis, Debye):
    X=              1.0795    Y=             -1.1774    Z=              0.1533  Tot=              1.6047
 Quadrupole moment (field-independent basis, Debye-Ang):
   XX=           -288.7229   YY=           -246.7687   ZZ=           -261.8921
   XY=             -4.6123   XZ=             36.2856   YZ=              1.2225

 Normal termination of Gaussian 16 at Sat Jul 13 19:57:40 2019.
