 Gaussian 16, Revision A.03,
 Gaussian 16:  ES64L-G16RevA.03 25-Dec-2016

 -------------------------------------
 # td=(NStates=1) CAM-B3LYP/6-31G(d,p)
 -------------------------------------

 --
 TD
 --
 Symbolic Z-matrix:
 Charge =  0 Multiplicity = 1

                         Standard orientation:
 ---------------------------------------------------------------------
 Center     Atomic      Atomic             Coordinates (Angstroms)
 Number     Number       Type             X           Y           Z
 ---------------------------------------------------------------------
      1          8           0      -14.224271   -1.826410    0.481443
      2          8           0       14.883966    0.854424    0.098767
      3          6           0      -11.755495    0.068624    1.256032
      4          6           0      -11.000462    0.324370   -0.088346
      5          6           0      -11.982901   -1.434852    1.454634
      6          6           0      -12.672182   -2.043438    0.272753
      7          6           0      -11.560797   -0.462913   -1.206260
      8          6           0       11.108208    1.045142    1.037715
      9          6           0      -10.950621    0.670602    2.447245
     10          6           0      -13.122835    0.972785    1.355499
     11          6           0       12.595710    1.466459    0.840765
     12          6           0      -12.268859   -1.628747   -1.104812
     13          6           0       13.475431    0.396972    0.366330
     14          6           0       10.751473   -0.034933   -0.005650
     15          6           0       -9.486225   -0.064664    0.000385
     16          6           0       13.006715   -0.247057   -0.852703
     17          6           0       11.496889   -0.478616   -0.985598
     18          6           0       10.235476    2.214449    1.056664
     19          6           0       11.016915    0.300350    2.484942
     20          6           0      -11.184587    0.059400   -2.534209
     21          6           0       -8.531672    0.782242   -0.093143
     22          6           0        9.238227   -0.365172    0.062046
     23          6           0       11.147125   -1.428666   -2.103764
     24          6           0       -7.115138    0.467162   -0.151904
     25          6           0        8.861570   -1.627524   -0.087437
     26          6           0       -6.726415   -1.039888    0.169985
     27          6           0        7.354370   -2.030145   -0.102091
     28          6           0       -6.186377    1.478667   -0.299334
     29          6           0        7.093658   -3.566454    0.132456
     30          6           0        6.372562   -1.176115   -0.243085
     31          6           0       -4.790306    1.378918   -0.477372
     32          6           0        5.005937   -1.465265   -0.023227
     33          6           0       -4.037874    2.504081   -0.617973
     34          6           0       -2.597256    2.589319   -0.698336
     35          6           0        4.029733   -0.505324   -0.273716
     36          6           0        2.623066   -0.773083   -0.130950
     37          6           0       -1.976714    3.831222   -1.131056
     38          6           0       -1.833846    1.434632   -0.548408
     39          6           0        1.768731    0.269847   -0.334399
     40          6           0        2.159738   -2.184088    0.256685
     41          6           0       -0.427699    1.314750   -0.469046
     42          6           0        0.393826    0.231680   -0.267003
     43          1           0      -11.295627    1.469968   -0.374823
     44          1           0      -12.715161   -1.428583    2.288471
     45          1           0      -11.098541   -2.016905    1.661773
     46          1           0      -12.550396   -3.148057    0.370168
     47          1           0      -10.045896    0.112701    2.805780
     48          1           0      -10.848165    1.631355    2.082228
     49          1           0      -11.578083    0.524304    3.366655
     50          1           0      -13.749811    0.326580    0.572558
     51          1           0      -13.657132    0.741170    2.334831
     52          1           0      -12.923460    1.948813    1.243639
     53          1           0       12.582737    2.289874   -0.064351
     54          1           0       13.066238    1.902455    1.800939
     55          1           0      -12.662416   -2.179179   -1.873309
     56          1           0       13.293594   -0.388017    1.227207
     57          1           0       -9.198437   -0.968804    0.129527
     58          1           0       13.754230   -1.063727   -0.945864
     59          1           0       13.233826    0.473133   -1.657567
     60          1           0        9.243523    2.132420    1.729680
     61          1           0       10.037204    2.532354    0.032244
     62          1           0       10.734821    3.102130    1.405375
     63          1           0       11.735361   -0.507690    2.412731
     64          1           0        9.911256   -0.230720    2.564281
     65          1           0       11.255177    0.942119    3.184033
     66          1           0      -10.030826    0.125049   -2.563427
     67          1           0      -11.535967    1.085935   -3.102356
     68          1           0      -11.587892   -0.544987   -3.236374
     69          1           0      -14.652995   -2.113586   -0.363408
     70          1           0        8.486978    0.344610    0.309010
     71          1           0       -8.809750    1.918077   -0.260965
     72          1           0       11.531817   -2.374577   -1.826550
     73          1           0       10.066572   -1.351313   -2.190784
     74          1           0       11.594151   -1.081151   -3.001742
     75          1           0       15.110845    1.213787    0.999777
     76          1           0        9.405520   -2.500776   -0.254546
     77          1           0       -5.583608   -1.060835   -0.072570
     78          1           0       -6.843197   -1.155493    1.206308
     79          1           0       -7.282034   -1.855766   -0.411880
     80          1           0       -6.758414    2.324318   -0.627045
     81          1           0        6.403791   -3.582579    1.019127
     82          1           0        6.538088   -3.944892   -0.789407
     83          1           0        8.071827   -4.102225    0.224063
     84          1           0        6.734040   -0.163992   -0.506920
     85          1           0       -4.503142    0.463548   -0.537930
     86          1           0        4.525260   -2.359475    0.311437
     87          1           0       -4.559873    3.449730   -0.771500
     88          1           0        4.286592    0.489132   -0.280177
     89          1           0       -1.190964    3.775961   -1.983218
     90          1           0       -1.326697    4.272078   -0.359424
     91          1           0       -2.630175    4.626585   -1.471728
     92          1           0       -2.429486    0.600055   -0.152831
     93          1           0        2.026164    1.331995   -0.582146
     94          1           0        2.826095   -2.347470    1.164165
     95          1           0        1.047902   -2.154822    0.431401
     96          1           0        2.224445   -2.932445   -0.569937
     97          1           0        0.146798    2.393154   -0.983781
     98          1           0       -0.266867   -0.677817    0.111603
 ---------------------------------------------------------------------

 SCF Done:  E(RCAM-B3LYP) =  -1706.98766076     A.U. after   14 cycles

 Excitation energies and oscillator strengths:

 Excited State   1:      Singlet-A      2.3963 eV  517.40 nm  f=2.8460  <S**2>=0.000
     155 ->158        -0.14195
     156 ->157         0.69229
 This state for optimization and/or second-order correction.
 Total Energy, E(TD-HF/TD-DFT) =  -1706.89959782
 Copying the excited state density for this state as the 1-particle RhoCI density.

 The electronic state is 1-A.
 Alpha  occ. eigenvalues --  -19.22202 -19.20443 -10.30716 -10.30490 -10.28106
 Alpha  occ. eigenvalues --  -10.27936 -10.27810 -10.27683 -10.27527 -10.27472
 Alpha  occ. eigenvalues --  -10.27400 -10.27133 -10.27045 -10.27031 -10.26760
 Alpha  occ. eigenvalues --  -10.26684 -10.26638 -10.26591 -10.26472 -10.26439
 Alpha  occ. eigenvalues --  -10.26094 -10.26069 -10.26051 -10.26050 -10.26005
 Alpha  occ. eigenvalues --  -10.25872 -10.25827 -10.25688 -10.25615 -10.25544
 Alpha  occ. eigenvalues --  -10.25407 -10.25382 -10.25349 -10.25254 -10.24861
 Alpha  occ. eigenvalues --  -10.24839 -10.24772 -10.24655 -10.24519 -10.24323
 Alpha  occ. eigenvalues --  -10.23762 -10.23256  -1.07511  -1.04567  -0.94116
 Alpha  occ. eigenvalues --   -0.93743  -0.92401  -0.91917  -0.90565  -0.89993
 Alpha  occ. eigenvalues --   -0.87693  -0.87349  -0.86767  -0.86331  -0.85177
 Alpha  occ. eigenvalues --   -0.83332  -0.82473  -0.80890  -0.80342  -0.78512
 Alpha  occ. eigenvalues --   -0.76779  -0.76658  -0.76613  -0.76044  -0.75985
 Alpha  occ. eigenvalues --   -0.75867  -0.75528  -0.73839  -0.73527  -0.71193
 Alpha  occ. eigenvalues --   -0.68476  -0.66906  -0.66592  -0.64735  -0.63972
 Alpha  occ. eigenvalues --   -0.63541  -0.62946  -0.62460  -0.60439  -0.59787
 Alpha  occ. eigenvalues --   -0.59453  -0.58286  -0.57714  -0.57428  -0.55594
 Alpha  occ. eigenvalues --   -0.55465  -0.54824  -0.54632  -0.54170  -0.53886
 Alpha  occ. eigenvalues --   -0.53285  -0.52733  -0.52487  -0.51862  -0.51192
 Alpha  occ. eigenvalues --   -0.50736  -0.50425  -0.49769  -0.49756  -0.49630
 Alpha  occ. eigenvalues --   -0.49088  -0.48709  -0.48607  -0.48372  -0.47849
 Alpha  occ. eigenvalues --   -0.47616  -0.47524  -0.47172  -0.46824  -0.46708
 Alpha  occ. eigenvalues --   -0.46217  -0.45868  -0.45424  -0.45344  -0.44889
 Alpha  occ. eigenvalues --   -0.44809  -0.44544  -0.44397  -0.44101  -0.43678
 Alpha  occ. eigenvalues --   -0.43571  -0.43094  -0.42872  -0.42590  -0.42371
 Alpha  occ. eigenvalues --   -0.41860  -0.41652  -0.41321  -0.40845  -0.40485
 Alpha  occ. eigenvalues --   -0.40461  -0.40227  -0.39982  -0.39920  -0.39599
 Alpha  occ. eigenvalues --   -0.39048  -0.38989  -0.38655  -0.38178  -0.38017
 Alpha  occ. eigenvalues --   -0.37142  -0.36683  -0.36093  -0.35628  -0.35518
 Alpha  occ. eigenvalues --   -0.34736  -0.34097  -0.33698  -0.32836  -0.32428
 Alpha  occ. eigenvalues --   -0.31276  -0.29475  -0.29123  -0.27662  -0.24675
 Alpha  occ. eigenvalues --   -0.20179
 Alpha virt. eigenvalues --   -0.05335  -0.00204   0.03147   0.04592   0.06861
 Alpha virt. eigenvalues --    0.09637   0.10829   0.11242   0.11507   0.12335
 Alpha virt. eigenvalues --    0.12987   0.13162   0.13622   0.13922   0.14209

 Mulliken charges:
               1
     1  O   -0.572277
     2  O   -0.557306
     3  C   -0.005743
     4  C   -0.141769
     5  C   -0.186259
     6  C    0.114250
     7  C    0.123158
     8  C    0.000907
     9  C   -0.276423
    10  C   -0.313745
    11  C   -0.180975
    12  C   -0.122650
    13  C    0.142332
    14  C    0.055044
    15  C   -0.057241
    16  C   -0.216641
    17  C    0.032197
    18  C   -0.314436
    19  C   -0.294936
    20  C   -0.351517
    21  C   -0.055002
    22  C   -0.136984
    23  C   -0.347650
    24  C    0.057456
    25  C   -0.064091
    26  C   -0.372889
    27  C    0.041147
    28  C   -0.122272
    29  C   -0.363638
    30  C   -0.104829
    31  C   -0.030865
    32  C   -0.103613
    33  C   -0.130343
    34  C    0.133218
    35  C   -0.087195
    36  C    0.077461
    37  C   -0.403547
    38  C   -0.126460
    39  C   -0.117582
    40  C   -0.363985
    41  C   -0.088161
    42  C   -0.071669
    43  H    0.086161
    44  H    0.124559
    45  H    0.102924
    46  H    0.080840
    47  H    0.082638
    48  H    0.100682
    49  H    0.086368
    50  H    0.124197
    51  H    0.097283
    52  H    0.103487
    53  H    0.072121
    54  H    0.070029
    55  H    0.083123
    56  H    0.062007
    57  H    0.065478
    58  H    0.115338
    59  H    0.112084
    60  H    0.091410
    61  H    0.109651
    62  H    0.113065
    63  H    0.102642
    64  H    0.089563
    65  H    0.109301
    66  H    0.115324
    67  H    0.090653
    68  H    0.114103
    69  H    0.297623
    70  H    0.100496
    71  H    0.065450
    72  H    0.125910
    73  H    0.121999
    74  H    0.114927
    75  H    0.307824
    76  H    0.084506
    77  H    0.093219
    78  H    0.143725
    79  H    0.116645
    80  H    0.079274
    81  H    0.124498
    82  H    0.121216
    83  H    0.103332
    84  H    0.079214
    85  H    0.075174
    86  H    0.084121
    87  H    0.086241
    88  H    0.080568
    89  H    0.119270
    90  H    0.129204
    91  H    0.111977
    92  H    0.074163
    93  H    0.088550
    94  H    0.121933
    95  H    0.108886
    96  H    0.129800
    97  H    0.033886
    98  H    0.076864
 Sum of Mulliken charges =  -0.00000

 Dipole moment (field-independent basis, Debye):
    X=              0.7920    Y=             -0.8526    Z=             -0.3719  Tot=              1.2217
 Quadrupole moment (field-independent basis, Debye-Ang):
   XX=           -305.2152   YY=           -243.6823   ZZ=           -261.1826
   XY=              7.1673   XZ=             42.1952   YZ=              1.7096

 Normal termination of Gaussian 16 at Mon Jul 15 04:38:57 2019.
