 Gaussian 16, Revision A.03,
 Gaussian 16:  ES64L-G16RevA.03 25-Dec-2016

 -------------------------------------
 # td=(NStates=1) CAM-B3LYP/6-31G(d,p)
 -------------------------------------

 --
 TD
 --
 Symbolic Z-matrix:
 Charge =  0 Multiplicity = 1

                         Standard orientation:
 ---------------------------------------------------------------------
 Center     Atomic      Atomic             Coordinates (Angstroms)
 Number     Number       Type             X           Y           Z
 ---------------------------------------------------------------------
      1          8           0      -14.043425   -2.262382    0.391845
      2          8           0       14.794154    0.838484    0.118345
      3          6           0      -11.745854   -0.048481    1.348487
      4          6           0      -10.998100    0.353269    0.025964
      5          6           0      -11.874100   -1.615710    1.320069
      6          6           0      -12.659604   -2.170530    0.168797
      7          6           0      -11.575999   -0.301200   -1.154538
      8          6           0       11.078735    0.921387    1.081206
      9          6           0      -10.961737    0.426099    2.604919
     10          6           0      -13.053127    0.550349    1.331541
     11          6           0       12.541543    1.459680    0.808408
     12          6           0      -12.323012   -1.494613   -1.102585
     13          6           0       13.511805    0.333522    0.362347
     14          6           0       10.719921   -0.060141    0.007776
     15          6           0       -9.540716    0.018685    0.085337
     16          6           0       12.963794   -0.339128   -0.874524
     17          6           0       11.503051   -0.566044   -0.961607
     18          6           0       10.165319    2.133665    1.089131
     19          6           0       11.000105    0.247924    2.558744
     20          6           0      -11.181079    0.358941   -2.514466
     21          6           0       -8.515113    0.858112   -0.167698
     22          6           0        9.259614   -0.464155    0.131607
     23          6           0       11.065486   -1.516590   -2.045594
     24          6           0       -7.179488    0.575751   -0.078471
     25          6           0        8.774175   -1.733034   -0.185245
     26          6           0       -6.717694   -0.921942    0.098152
     27          6           0        7.436219   -2.096492    0.023760
     28          6           0       -6.238847    1.570197   -0.374573
     29          6           0        7.074435   -3.575257    0.105122
     30          6           0        6.421767   -1.160192   -0.185885
     31          6           0       -4.789257    1.515452   -0.345781
     32          6           0        5.019076   -1.457221   -0.116905
     33          6           0       -4.025531    2.633618   -0.644649
     34          6           0       -2.600846    2.801898   -0.696299
     35          6           0        4.030915   -0.442722   -0.345353
     36          6           0        2.585204   -0.693328   -0.226587
     37          6           0       -1.990143    4.057056   -0.854622
     38          6           0       -1.736731    1.657174   -0.505167
     39          6           0        1.767502    0.398132   -0.462001
     40          6           0        2.026799   -2.139631   -0.018811
     41          6           0       -0.365199    1.642504   -0.539533
     42          6           0        0.379150    0.437524   -0.378493
     43          1           0      -11.092202    1.484313   -0.084330
     44          1           0      -12.530458   -1.944436    2.065197
     45          1           0      -10.846148   -2.091736    1.452685
     46          1           0      -12.573693   -3.195758    0.098214
     47          1           0      -10.031851   -0.360459    2.625444
     48          1           0      -10.767758    1.366473    2.288803
     49          1           0      -11.612420    0.371113    3.412394
     50          1           0      -13.634194    0.015759    0.628120
     51          1           0      -13.542968    0.244144    2.429117
     52          1           0      -13.172314    1.524237    1.264358
     53          1           0       12.225221    2.357145    0.046938
     54          1           0       12.785499    1.818976    1.817450
     55          1           0      -12.717826   -2.041049   -2.020381
     56          1           0       13.457973   -0.412865    1.126053
     57          1           0       -9.289386   -1.048214    0.287908
     58          1           0       13.398303   -1.194312   -1.195572
     59          1           0       13.377285    0.271146   -1.773817
     60          1           0        9.178162    1.998952    1.489067
     61          1           0        9.935172    2.630622    0.061380
     62          1           0       10.752356    2.931496    1.746992
     63          1           0       11.567400   -0.735099    2.542021
     64          1           0        9.882836    0.094588    2.806905
     65          1           0       11.792245    0.866187    3.367527
     66          1           0      -10.131629    0.375761   -2.674508
     67          1           0      -11.536859    1.483754   -2.241649
     68          1           0      -11.773247   -0.103804   -3.460671
     69          1           0      -14.344956   -2.854223   -0.319300
     70          1           0        8.521651    0.251736    0.648439
     71          1           0       -8.657780    2.015715   -0.052607
     72          1           0       11.605143   -2.635825   -1.657650
     73          1           0       10.017531   -1.443041   -2.275296
     74          1           0       11.608901   -1.391783   -3.131942
     75          1           0       15.169613    0.979858    1.027164
     76          1           0        9.481685   -2.491767   -0.216775
     77          1           0       -5.641586   -1.257821   -0.054067
     78          1           0       -7.141763   -1.396571    1.003502
     79          1           0       -7.034970   -1.517200   -0.838645
     80          1           0       -6.685645    2.634687   -0.545768
     81          1           0        6.387717   -3.715245    0.966671
     82          1           0        6.410966   -3.874539   -0.870927
     83          1           0        8.027916   -4.012732   -0.085678
     84          1           0        6.744353    0.012929   -0.127221
     85          1           0       -4.404858    0.445056   -0.004902
     86          1           0        4.758129   -2.407407   -0.206646
     87          1           0       -4.623072    3.588022   -0.706374
     88          1           0        4.532131    0.626367   -0.512075
     89          1           0       -1.402361    4.219661   -1.571792
     90          1           0       -1.472887    4.595838   -0.064073
     91          1           0       -2.781350    4.811610   -0.793591
     92          1           0       -2.117578    0.519452   -0.556812
     93          1           0        2.321654    1.363214   -0.845861
     94          1           0        2.253216   -2.282311    0.995684
     95          1           0        1.013386   -2.318572   -0.280280
     96          1           0        2.697387   -2.775646   -0.612549
     97          1           0        0.292676    2.626056   -0.633999
     98          1           0       -0.155206   -0.558454   -0.095675
 ---------------------------------------------------------------------

 SCF Done:  E(RCAM-B3LYP) =  -1706.91386134     A.U. after   15 cycles

 Excitation energies and oscillator strengths:

 Excited State   1:      Singlet-A      1.8780 eV  660.19 nm  f=3.0895  <S**2>=0.000
     155 ->158        -0.15083
     156 ->157         0.69461
     156 <-157        -0.10294
 This state for optimization and/or second-order correction.
 Total Energy, E(TD-HF/TD-DFT) =  -1706.84484539
 Copying the excited state density for this state as the 1-particle RhoCI density.

 The electronic state is 1-A.
 Alpha  occ. eigenvalues --  -19.22124 -19.20648 -10.30823 -10.28917 -10.28283
 Alpha  occ. eigenvalues --  -10.28280 -10.28123 -10.28087 -10.27827 -10.27741
 Alpha  occ. eigenvalues --  -10.27487 -10.27483 -10.27410 -10.27373 -10.27306
 Alpha  occ. eigenvalues --  -10.27063 -10.27043 -10.27039 -10.27025 -10.26925
 Alpha  occ. eigenvalues --  -10.26902 -10.26887 -10.26723 -10.26602 -10.26569
 Alpha  occ. eigenvalues --  -10.26523 -10.26418 -10.26250 -10.26079 -10.26049
 Alpha  occ. eigenvalues --  -10.25986 -10.25900 -10.25846 -10.25804 -10.25662
 Alpha  occ. eigenvalues --  -10.25651 -10.25305 -10.24613 -10.24336 -10.23620
 Alpha  occ. eigenvalues --  -10.23281 -10.22203  -1.10552  -1.10386  -0.94077
 Alpha  occ. eigenvalues --   -0.93630  -0.91720  -0.91096  -0.90504  -0.89879
 Alpha  occ. eigenvalues --   -0.87173  -0.86674  -0.86264  -0.84987  -0.84296
 Alpha  occ. eigenvalues --   -0.83220  -0.82338  -0.80015  -0.79442  -0.79008
 Alpha  occ. eigenvalues --   -0.76263  -0.76069  -0.75856  -0.75773  -0.75301
 Alpha  occ. eigenvalues --   -0.75197  -0.74783  -0.74386  -0.72295  -0.70488
 Alpha  occ. eigenvalues --   -0.68780  -0.67421  -0.66134  -0.65262  -0.63724
 Alpha  occ. eigenvalues --   -0.62962  -0.62509  -0.61235  -0.59824  -0.59472
 Alpha  occ. eigenvalues --   -0.59137  -0.58742  -0.58600  -0.56896  -0.55827
 Alpha  occ. eigenvalues --   -0.55056  -0.54708  -0.54592  -0.54374  -0.54116
 Alpha  occ. eigenvalues --   -0.53728  -0.53340  -0.52225  -0.52185  -0.51462
 Alpha  occ. eigenvalues --   -0.50665  -0.50159  -0.50103  -0.49709  -0.49477
 Alpha  occ. eigenvalues --   -0.49025  -0.48536  -0.48462  -0.48210  -0.47978
 Alpha  occ. eigenvalues --   -0.47683  -0.47337  -0.47129  -0.46722  -0.46057
 Alpha  occ. eigenvalues --   -0.45785  -0.45416  -0.45076  -0.44703  -0.44580
 Alpha  occ. eigenvalues --   -0.44094  -0.44006  -0.43535  -0.43498  -0.42944
 Alpha  occ. eigenvalues --   -0.42488  -0.42441  -0.42155  -0.42045  -0.41683
 Alpha  occ. eigenvalues --   -0.41565  -0.41249  -0.40945  -0.40801  -0.40586
 Alpha  occ. eigenvalues --   -0.40491  -0.40399  -0.39785  -0.39488  -0.39078
 Alpha  occ. eigenvalues --   -0.38971  -0.38678  -0.38490  -0.38142  -0.37950
 Alpha  occ. eigenvalues --   -0.37641  -0.37185  -0.36385  -0.36194  -0.35876
 Alpha  occ. eigenvalues --   -0.35057  -0.34446  -0.33692  -0.32463  -0.31733
 Alpha  occ. eigenvalues --   -0.31403  -0.28884  -0.28368  -0.26295  -0.22843
 Alpha  occ. eigenvalues --   -0.18461
 Alpha virt. eigenvalues --   -0.06519  -0.01476   0.02149   0.05089   0.06407
 Alpha virt. eigenvalues --    0.08820   0.10286   0.10794   0.11105   0.11637
 Alpha virt. eigenvalues --    0.12069   0.12564   0.12913   0.13076   0.13395

 Mulliken charges:
               1
     1  O   -0.549931
     2  O   -0.545887
     3  C   -0.009927
     4  C   -0.138708
     5  C   -0.188289
     6  C    0.125514
     7  C    0.096049
     8  C   -0.034552
     9  C   -0.264306
    10  C   -0.283882
    11  C   -0.186725
    12  C   -0.114636
    13  C    0.168203
    14  C    0.084821
    15  C   -0.084579
    16  C   -0.232057
    17  C    0.084582
    18  C   -0.301754
    19  C   -0.286810
    20  C   -0.330973
    21  C   -0.097770
    22  C   -0.130970
    23  C   -0.350548
    24  C    0.124570
    25  C   -0.109911
    26  C   -0.382847
    27  C    0.053861
    28  C   -0.140353
    29  C   -0.359333
    30  C   -0.100519
    31  C   -0.056109
    32  C   -0.088637
    33  C   -0.132891
    34  C    0.099209
    35  C   -0.120237
    36  C    0.063608
    37  C   -0.388661
    38  C   -0.116060
    39  C   -0.107673
    40  C   -0.361202
    41  C   -0.074975
    42  C   -0.096166
    43  H    0.083192
    44  H    0.112775
    45  H    0.089615
    46  H    0.081111
    47  H    0.074875
    48  H    0.107520
    49  H    0.105926
    50  H    0.137503
    51  H    0.057232
    52  H    0.099253
    53  H    0.094037
    54  H    0.077810
    55  H    0.063350
    56  H    0.084664
    57  H    0.090759
    58  H    0.109137
    59  H    0.105454
    60  H    0.105388
    61  H    0.099732
    62  H    0.089618
    63  H    0.103666
    64  H    0.112160
    65  H    0.065424
    66  H    0.139443
    67  H    0.087194
    68  H    0.096361
    69  H    0.304529
    70  H    0.085869
    71  H    0.075487
    72  H    0.078055
    73  H    0.142740
    74  H    0.089247
    75  H    0.310785
    76  H    0.096683
    77  H    0.106360
    78  H    0.119648
    79  H    0.113212
    80  H    0.068613
    81  H    0.133951
    82  H    0.099167
    83  H    0.113524
    84  H    0.061001
    85  H    0.087591
    86  H    0.074041
    87  H    0.081281
    88  H    0.086793
    89  H    0.137470
    90  H    0.122315
    91  H    0.101880
    92  H    0.074910
    93  H    0.078722
    94  H    0.141087
    95  H    0.121436
    96  H    0.123167
    97  H    0.083386
    98  H    0.081317
 Sum of Mulliken charges =  -0.00000

 Dipole moment (field-independent basis, Debye):
    X=              1.8185    Y=             -1.7877    Z=              0.3210  Tot=              2.5702
 Quadrupole moment (field-independent basis, Debye-Ang):
   XX=           -277.6696   YY=           -240.6404   ZZ=           -265.3257
   XY=              1.4299   XZ=             35.5410   YZ=              4.1204

 Normal termination of Gaussian 16 at Sat Jul 13 11:32:10 2019.
