 Gaussian 16, Revision A.03,
 Gaussian 16:  ES64L-G16RevA.03 25-Dec-2016

 -------------------------------------
 # td=(NStates=1) CAM-B3LYP/6-31G(d,p)
 -------------------------------------

 --
 TD
 --
 Symbolic Z-matrix:
 Charge =  0 Multiplicity = 1

                         Standard orientation:
 ---------------------------------------------------------------------
 Center     Atomic      Atomic             Coordinates (Angstroms)
 Number     Number       Type             X           Y           Z
 ---------------------------------------------------------------------
      1          8           0      -13.940096   -2.161573    0.644486
      2          8           0       14.877056    0.661165    0.208074
      3          6           0      -11.745891   -0.061909    1.293274
      4          6           0      -11.026853    0.307066    0.066037
      5          6           0      -11.841420   -1.558857    1.440467
      6          6           0      -12.599371   -2.236487    0.258587
      7          6           0      -11.709282   -0.341187   -1.132766
      8          6           0       11.164014    0.958437    1.076788
      9          6           0      -10.952449    0.340568    2.492533
     10          6           0      -13.185483    0.528231    1.336303
     11          6           0       12.626431    1.382333    0.908882
     12          6           0      -12.363410   -1.491762   -1.054037
     13          6           0       13.533301    0.288624    0.427260
     14          6           0       10.694381   -0.007154    0.022674
     15          6           0       -9.514434   -0.034434    0.025759
     16          6           0       13.015969   -0.238916   -0.872237
     17          6           0       11.575950   -0.510420   -0.957417
     18          6           0       10.230536    2.136456    1.097021
     19          6           0       11.173429    0.242250    2.465936
     20          6           0      -11.672167    0.476551   -2.462878
     21          6           0       -8.519511    0.771358   -0.225183
     22          6           0        9.324295   -0.504802    0.078529
     23          6           0       11.076519   -1.285603   -2.180679
     24          6           0       -7.064795    0.521024   -0.242666
     25          6           0        8.782016   -1.719836   -0.151015
     26          6           0       -6.656186   -0.963227   -0.113209
     27          6           0        7.427360   -2.089592   -0.163355
     28          6           0       -6.287317    1.552051   -0.453822
     29          6           0        7.164199   -3.541045    0.014116
     30          6           0        6.343446   -1.142888   -0.216771
     31          6           0       -4.801497    1.490536   -0.431944
     32          6           0        5.017292   -1.469952   -0.116573
     33          6           0       -4.088173    2.582152   -0.609789
     34          6           0       -2.634717    2.696805   -0.583319
     35          6           0        4.015495   -0.440032   -0.248167
     36          6           0        2.670297   -0.669474   -0.211409
     37          6           0       -1.937606    4.007462   -0.690668
     38          6           0       -1.801650    1.544447   -0.591645
     39          6           0        1.758872    0.416271   -0.265293
     40          6           0        2.095164   -2.053676   -0.116662
     41          6           0       -0.402618    1.689258   -0.509401
     42          6           0        0.396286    0.460920   -0.455032
     43          1           0      -11.096316    1.463629   -0.287567
     44          1           0      -12.316813   -2.032043    2.318140
     45          1           0      -10.825939   -1.912637    1.512295
     46          1           0      -12.569440   -3.245054    0.142212
     47          1           0       -9.882234   -0.001962    2.479327
     48          1           0      -11.038792    1.544538    2.588841
     49          1           0      -11.452968   -0.137745    3.531620
     50          1           0      -13.634025    0.264880    0.547100
     51          1           0      -13.704781    0.136219    2.242368
     52          1           0      -13.025574    1.622448    1.317265
     53          1           0       12.566720    2.222102    0.129442
     54          1           0       13.013312    1.606769    1.825285
     55          1           0      -13.034762   -1.782476   -1.887135
     56          1           0       13.590313   -0.506290    1.207283
     57          1           0       -9.424784   -1.163397    0.082121
     58          1           0       13.856741   -1.202261   -0.988459
     59          1           0       13.200200    0.688817   -1.596446
     60          1           0        9.223812    2.049667    1.535025
     61          1           0        9.964463    2.702035    0.156468
     62          1           0       10.680371    3.086956    1.812439
     63          1           0       11.913677   -0.578376    2.505825
     64          1           0       10.238651   -0.005359    3.025938
     65          1           0       11.444040    0.874475    3.255419
     66          1           0      -10.663393    0.548188   -2.772869
     67          1           0      -12.373969    1.473531   -2.272487
     68          1           0      -12.281318    0.106563   -3.203183
     69          1           0      -14.704489   -2.204548   -0.129119
     70          1           0        8.744917    0.116044    0.512555
     71          1           0       -8.824968    1.651502   -0.340470
     72          1           0       11.202225   -2.391297   -2.003934
     73          1           0       10.015989   -1.320966   -2.474440
     74          1           0       11.647571   -1.200163   -3.072169
     75          1           0       15.358061    0.896868    0.984302
     76          1           0        9.487390   -2.437598   -0.448262
     77          1           0       -5.530583   -1.013325   -0.049559
     78          1           0       -6.841452   -1.189253    0.858190
     79          1           0       -7.063467   -1.540562   -0.894221
     80          1           0       -6.813288    2.395117   -0.422749
     81          1           0        6.498392   -3.487697    0.857025
     82          1           0        6.686594   -3.837508   -0.821049
     83          1           0        8.012621   -4.146083   -0.018159
     84          1           0        6.672581   -0.119582   -0.319750
     85          1           0       -4.392079    0.502226   -0.619137
     86          1           0        4.695167   -2.444445    0.042012
     87          1           0       -4.799657    3.715370   -0.634177
     88          1           0        4.323545    0.619944   -0.263674
     89          1           0       -1.250116    4.037484   -1.620731
     90          1           0       -1.437565    4.111873    0.368597
     91          1           0       -2.610667    4.888742   -0.873280
     92          1           0       -2.215018    0.377762   -0.710983
     93          1           0        2.227282    1.313029   -0.529101
     94          1           0        2.527046   -2.822658    0.626388
     95          1           0        1.038240   -2.044112    0.241563
     96          1           0        2.070497   -2.759216   -1.077310
     97          1           0       -0.112527    2.800115   -0.324041
     98          1           0       -0.157659   -0.476312   -0.560447
 ---------------------------------------------------------------------

 SCF Done:  E(RCAM-B3LYP) =  -1706.91634334     A.U. after   16 cycles

 Excitation energies and oscillator strengths:

 Excited State   1:      Singlet-A      1.8332 eV  676.31 nm  f=2.9457  <S**2>=0.000
     155 ->158         0.12724
     156 ->157         0.70511
     156 <-157        -0.13669
 This state for optimization and/or second-order correction.
 Total Energy, E(TD-HF/TD-DFT) =  -1706.84897283
 Copying the excited state density for this state as the 1-particle RhoCI density.

 The electronic state is 1-A.
 Alpha  occ. eigenvalues --  -19.21050 -19.20514 -10.30363 -10.29112 -10.28194
 Alpha  occ. eigenvalues --  -10.27813 -10.27789 -10.27560 -10.27347 -10.27289
 Alpha  occ. eigenvalues --  -10.27184 -10.27160 -10.27150 -10.27144 -10.27062
 Alpha  occ. eigenvalues --  -10.26967 -10.26874 -10.26768 -10.26509 -10.26270
 Alpha  occ. eigenvalues --  -10.26175 -10.26090 -10.26029 -10.25791 -10.25760
 Alpha  occ. eigenvalues --  -10.25728 -10.25685 -10.25516 -10.25419 -10.25163
 Alpha  occ. eigenvalues --  -10.25087 -10.24784 -10.24625 -10.24606 -10.24490
 Alpha  occ. eigenvalues --  -10.24435 -10.24232 -10.24191 -10.24186 -10.23659
 Alpha  occ. eigenvalues --  -10.23653 -10.21767  -1.10206  -1.07752  -0.94275
 Alpha  occ. eigenvalues --   -0.94129  -0.91984  -0.91665  -0.90794  -0.90008
 Alpha  occ. eigenvalues --   -0.87119  -0.86725  -0.86414  -0.85841  -0.84694
 Alpha  occ. eigenvalues --   -0.82962  -0.81700  -0.80999  -0.80184  -0.77949
 Alpha  occ. eigenvalues --   -0.77486  -0.77283  -0.76232  -0.76227  -0.75960
 Alpha  occ. eigenvalues --   -0.75864  -0.75270  -0.73684  -0.72085  -0.70733
 Alpha  occ. eigenvalues --   -0.69066  -0.68051  -0.66269  -0.65205  -0.64767
 Alpha  occ. eigenvalues --   -0.63457  -0.62298  -0.61603  -0.60817  -0.60307
 Alpha  occ. eigenvalues --   -0.59730  -0.59300  -0.57647  -0.57036  -0.56553
 Alpha  occ. eigenvalues --   -0.55926  -0.55026  -0.54733  -0.54626  -0.53662
 Alpha  occ. eigenvalues --   -0.53478  -0.52852  -0.52619  -0.52238  -0.51411
 Alpha  occ. eigenvalues --   -0.51027  -0.50888  -0.50517  -0.50138  -0.49776
 Alpha  occ. eigenvalues --   -0.49518  -0.49176  -0.48853  -0.48395  -0.48093
 Alpha  occ. eigenvalues --   -0.47578  -0.47131  -0.46502  -0.46255  -0.45919
 Alpha  occ. eigenvalues --   -0.45637  -0.45415  -0.45047  -0.44722  -0.44302
 Alpha  occ. eigenvalues --   -0.44162  -0.43697  -0.43405  -0.43134  -0.42753
 Alpha  occ. eigenvalues --   -0.42571  -0.42316  -0.42078  -0.41943  -0.41682
 Alpha  occ. eigenvalues --   -0.41308  -0.41296  -0.41085  -0.40606  -0.40539
 Alpha  occ. eigenvalues --   -0.40317  -0.40046  -0.39762  -0.39195  -0.38996
 Alpha  occ. eigenvalues --   -0.38822  -0.38711  -0.38613  -0.38518  -0.37937
 Alpha  occ. eigenvalues --   -0.37620  -0.37382  -0.36990  -0.35670  -0.35520
 Alpha  occ. eigenvalues --   -0.35000  -0.34666  -0.33890  -0.32629  -0.31810
 Alpha  occ. eigenvalues --   -0.30952  -0.29857  -0.28491  -0.26667  -0.23760
 Alpha  occ. eigenvalues --   -0.17897
 Alpha virt. eigenvalues --   -0.06789  -0.00415   0.03112   0.05768   0.07172
 Alpha virt. eigenvalues --    0.09037   0.11010   0.11265   0.11829   0.12091
 Alpha virt. eigenvalues --    0.12877   0.13256   0.13552   0.13705   0.14389

 Mulliken charges:
               1
     1  O   -0.575488
     2  O   -0.561655
     3  C    0.013859
     4  C   -0.124824
     5  C   -0.179954
     6  C    0.173945
     7  C    0.096563
     8  C    0.008271
     9  C   -0.279544
    10  C   -0.248815
    11  C   -0.176799
    12  C   -0.144110
    13  C    0.171843
    14  C    0.055960
    15  C   -0.097459
    16  C   -0.219854
    17  C    0.068402
    18  C   -0.322232
    19  C   -0.323230
    20  C   -0.347368
    21  C   -0.060310
    22  C   -0.057977
    23  C   -0.378224
    24  C    0.091455
    25  C   -0.108103
    26  C   -0.362594
    27  C    0.047321
    28  C   -0.102492
    29  C   -0.363172
    30  C   -0.097327
    31  C   -0.073575
    32  C   -0.084922
    33  C   -0.097269
    34  C    0.059960
    35  C   -0.134404
    36  C    0.153538
    37  C   -0.385423
    38  C   -0.086321
    39  C   -0.134143
    40  C   -0.389922
    41  C   -0.094387
    42  C   -0.106249
    43  H    0.073747
    44  H    0.115101
    45  H    0.088160
    46  H    0.080623
    47  H    0.109086
    48  H    0.070667
    49  H    0.066800
    50  H    0.106001
    51  H    0.102415
    52  H    0.073225
    53  H    0.096244
    54  H    0.090502
    55  H    0.061454
    56  H    0.072700
    57  H    0.081155
    58  H    0.088577
    59  H    0.110481
    60  H    0.116948
    61  H    0.111309
    62  H    0.062486
    63  H    0.105126
    64  H    0.097669
    65  H    0.104746
    66  H    0.132484
    67  H    0.086295
    68  H    0.117504
    69  H    0.301458
    70  H    0.050797
    71  H    0.048363
    72  H    0.107239
    73  H    0.129222
    74  H    0.115617
    75  H    0.303199
    76  H    0.072601
    77  H    0.091003
    78  H    0.136586
    79  H    0.131992
    80  H    0.068352
    81  H    0.134208
    82  H    0.134308
    83  H    0.111904
    84  H    0.080740
    85  H    0.094227
    86  H    0.087292
    87  H    0.048763
    88  H    0.082517
    89  H    0.128482
    90  H    0.125095
    91  H    0.109561
    92  H    0.072330
    93  H    0.080405
    94  H    0.104213
    95  H    0.111206
    96  H    0.107158
    97  H    0.100886
    98  H    0.085804
 Sum of Mulliken charges =  -0.00000

 Dipole moment (field-independent basis, Debye):
    X=              1.5138    Y=             -0.7743    Z=             -0.2649  Tot=              1.7208
 Quadrupole moment (field-independent basis, Debye-Ang):
   XX=           -244.4126   YY=           -245.1597   ZZ=           -261.9293
   XY=              1.4434   XZ=             45.9312   YZ=              3.4817

 Normal termination of Gaussian 16 at Sat Jul 13 23:53:29 2019.
