 Gaussian 16, Revision A.03,
 Gaussian 16:  ES64L-G16RevA.03 25-Dec-2016

 -------------------------------------
 # td=(NStates=1) CAM-B3LYP/6-31G(d,p)
 -------------------------------------

 --
 TD
 --
 Symbolic Z-matrix:
 Charge =  0 Multiplicity = 1

                         Standard orientation:
 ---------------------------------------------------------------------
 Center     Atomic      Atomic             Coordinates (Angstroms)
 Number     Number       Type             X           Y           Z
 ---------------------------------------------------------------------
      1          8           0      -14.122091   -1.875904    0.641644
      2          8           0       14.770228    0.951688    0.117008
      3          6           0      -11.742870    0.094392    1.169412
      4          6           0      -10.997431    0.268167   -0.198568
      5          6           0      -11.916507   -1.424376    1.401373
      6          6           0      -12.711496   -2.130353    0.338720
      7          6           0      -11.589054   -0.524775   -1.263983
      8          6           0       11.083837    0.926322    1.043111
      9          6           0      -10.944370    0.761355    2.335653
     10          6           0      -13.133074    0.769852    1.130638
     11          6           0       12.482299    1.448784    0.681571
     12          6           0      -12.304594   -1.533446   -1.002070
     13          6           0       13.546510    0.346266    0.262597
     14          6           0       10.642011    0.047746   -0.130036
     15          6           0       -9.533591   -0.077890   -0.063213
     16          6           0       12.966723   -0.274281   -0.973107
     17          6           0       11.497458   -0.571362   -0.978188
     18          6           0       10.189464    2.169305    1.104348
     19          6           0       11.120893    0.381573    2.426603
     20          6           0      -11.271941   -0.063196   -2.660495
     21          6           0       -8.430808    0.801077   -0.178630
     22          6           0        9.318657   -0.500406    0.066990
     23          6           0       10.966795   -1.397311   -2.196140
     24          6           0       -7.069958    0.510670   -0.074756
     25          6           0        8.731407   -1.672530   -0.148017
     26          6           0       -6.716527   -0.913324    0.186387
     27          6           0        7.393337   -1.994647    0.080962
     28          6           0       -6.174035    1.503931   -0.232000
     29          6           0        7.052251   -3.545173    0.477041
     30          6           0        6.376761   -1.146462   -0.140823
     31          6           0       -4.799423    1.535881   -0.339660
     32          6           0        5.071358   -1.553461   -0.009574
     33          6           0       -3.958260    2.650110   -0.598926
     34          6           0       -2.577172    2.619082   -0.696487
     35          6           0        4.042785   -0.637310   -0.319611
     36          6           0        2.584248   -0.843424   -0.253031
     37          6           0       -1.896674    3.979345   -0.793975
     38          6           0       -1.760818    1.433294   -0.425661
     39          6           0        1.741625    0.226869   -0.289681
     40          6           0        2.145450   -2.195833    0.178307
     41          6           0       -0.344464    1.348714   -0.546526
     42          6           0        0.334112    0.162823   -0.261914
     43          1           0      -11.022326    1.470245   -0.360551
     44          1           0      -12.425164   -1.427866    2.479170
     45          1           0      -10.797315   -1.843580    1.437582
     46          1           0      -12.512777   -3.220484    0.367803
     47          1           0       -9.967015    0.241052    2.436402
     48          1           0      -10.738792    1.750679    2.287254
     49          1           0      -11.491544    0.638977    3.450135
     50          1           0      -13.533239    0.484547    0.172009
     51          1           0      -13.984491    0.361974    1.912336
     52          1           0      -13.172251    1.961462    1.199708
     53          1           0       12.429554    2.269421   -0.052165
     54          1           0       12.840113    2.126852    1.646417
     55          1           0      -12.809887   -2.048707   -1.727356
     56          1           0       13.610545   -0.304036    1.146730
     57          1           0       -9.459992   -1.175702    0.025129
     58          1           0       13.570414   -1.240384   -1.183814
     59          1           0       13.294650    0.418977   -1.955287
     60          1           0        9.219742    2.095399    1.805966
     61          1           0        9.712391    2.582364    0.040936
     62          1           0       10.728954    3.145036    1.423621
     63          1           0       11.690114   -0.566016    2.522906
     64          1           0       10.056172   -0.066503    2.739465
     65          1           0       11.306231    1.169725    3.032530
     66          1           0      -10.166797    0.177191   -2.919170
     67          1           0      -11.733214    0.993468   -2.851360
     68          1           0      -11.561600   -0.825172   -3.391216
     69          1           0      -14.576380   -2.029481   -0.274845
     70          1           0        8.591084    0.403802    0.469474
     71          1           0       -8.414516    1.919865   -0.191066
     72          1           0       11.277014   -2.330298   -2.081557
     73          1           0       10.024404   -1.313205   -2.211946
     74          1           0       11.578042   -1.326746   -3.247172
     75          1           0       14.991484    1.566283    0.756357
     76          1           0        9.462753   -2.493911   -0.403652
     77          1           0       -5.767497   -0.767953    0.522718
     78          1           0       -7.464659   -1.262121    1.042397
     79          1           0       -6.763043   -1.471258   -0.755162
     80          1           0       -6.659535    2.540883   -0.711047
     81          1           0        6.574496   -3.649826    1.570131
     82          1           0        6.201714   -3.949697   -0.324284
     83          1           0        8.033152   -4.106024    0.556040
     84          1           0        6.490951   -0.195651   -0.435735
     85          1           0       -4.261138    0.625145    0.055824
     86          1           0        4.936218   -2.661825    0.341819
     87          1           0       -4.370214    3.594721   -0.909714
     88          1           0        4.274991    0.348399   -0.915002
     89          1           0       -1.503914    4.223792   -1.931568
     90          1           0       -1.053273    4.102205   -0.121074
     91          1           0       -2.548534    4.791385   -0.781199
     92          1           0       -2.279351    0.575494   -0.126440
     93          1           0        2.214668    1.242572   -0.552968
     94          1           0        2.283902   -2.327971    1.237824
     95          1           0        1.118678   -2.319561   -0.051907
     96          1           0        2.726677   -2.907012   -0.301727
     97          1           0        0.133172    2.158947   -0.813224
     98          1           0       -0.008414   -0.672136    0.182456
 ---------------------------------------------------------------------

 SCF Done:  E(RCAM-B3LYP) =  -1706.93412088     A.U. after   15 cycles

 Excitation energies and oscillator strengths:

 Excited State   1:      Singlet-A      1.9760 eV  627.44 nm  f=2.9896  <S**2>=0.000
     155 ->158         0.13911
     156 ->157         0.69684
     156 <-157        -0.10208
 This state for optimization and/or second-order correction.
 Total Energy, E(TD-HF/TD-DFT) =  -1706.86150331
 Copying the excited state density for this state as the 1-particle RhoCI density.

 The electronic state is 1-A.
 Alpha  occ. eigenvalues --  -19.22029 -19.20489 -10.31168 -10.30922 -10.28878
 Alpha  occ. eigenvalues --  -10.27840 -10.27694 -10.27452 -10.27448 -10.27412
 Alpha  occ. eigenvalues --  -10.27346 -10.27307 -10.27160 -10.27034 -10.26941
 Alpha  occ. eigenvalues --  -10.26908 -10.26867 -10.26772 -10.26725 -10.26712
 Alpha  occ. eigenvalues --  -10.26690 -10.26504 -10.26451 -10.26359 -10.26298
 Alpha  occ. eigenvalues --  -10.26292 -10.26288 -10.26252 -10.26009 -10.25965
 Alpha  occ. eigenvalues --  -10.25934 -10.25916 -10.25876 -10.25645 -10.25284
 Alpha  occ. eigenvalues --  -10.24789 -10.24503 -10.24359 -10.24292 -10.24165
 Alpha  occ. eigenvalues --  -10.24074 -10.23916  -1.11447  -1.07767  -0.94623
 Alpha  occ. eigenvalues --   -0.94148  -0.92496  -0.92096  -0.91206  -0.90090
 Alpha  occ. eigenvalues --   -0.87817  -0.87076  -0.86859  -0.85582  -0.84505
 Alpha  occ. eigenvalues --   -0.82904  -0.82388  -0.79960  -0.79695  -0.78841
 Alpha  occ. eigenvalues --   -0.77138  -0.76929  -0.75889  -0.75682  -0.75431
 Alpha  occ. eigenvalues --   -0.75318  -0.74209  -0.73908  -0.72727  -0.70855
 Alpha  occ. eigenvalues --   -0.70009  -0.67892  -0.67202  -0.65311  -0.64348
 Alpha  occ. eigenvalues --   -0.63810  -0.63038  -0.62613  -0.60588  -0.59954
 Alpha  occ. eigenvalues --   -0.58908  -0.58335  -0.57442  -0.56871  -0.56527
 Alpha  occ. eigenvalues --   -0.56361  -0.55388  -0.54792  -0.54296  -0.54059
 Alpha  occ. eigenvalues --   -0.53456  -0.53203  -0.52941  -0.52479  -0.51459
 Alpha  occ. eigenvalues --   -0.50974  -0.50422  -0.50265  -0.49747  -0.49302
 Alpha  occ. eigenvalues --   -0.49167  -0.48497  -0.48360  -0.48164  -0.47462
 Alpha  occ. eigenvalues --   -0.47362  -0.47034  -0.46800  -0.46676  -0.46136
 Alpha  occ. eigenvalues --   -0.45815  -0.45512  -0.45101  -0.44885  -0.44508
 Alpha  occ. eigenvalues --   -0.44365  -0.44206  -0.43982  -0.43537  -0.43324
 Alpha  occ. eigenvalues --   -0.42960  -0.42924  -0.42875  -0.42359  -0.41799
 Alpha  occ. eigenvalues --   -0.41506  -0.41266  -0.40769  -0.40658  -0.40458
 Alpha  occ. eigenvalues --   -0.39977  -0.39718  -0.39289  -0.39216  -0.39025
 Alpha  occ. eigenvalues --   -0.38864  -0.38731  -0.38454  -0.38237  -0.37721
 Alpha  occ. eigenvalues --   -0.37570  -0.36951  -0.36605  -0.36519  -0.35537
 Alpha  occ. eigenvalues --   -0.35299  -0.34596  -0.33885  -0.32517  -0.31801
 Alpha  occ. eigenvalues --   -0.31380  -0.31245  -0.29082  -0.27054  -0.23338
 Alpha  occ. eigenvalues --   -0.19068
 Alpha virt. eigenvalues --   -0.06511  -0.01547   0.02482   0.05236   0.06386
 Alpha virt. eigenvalues --    0.08669   0.11222   0.11740   0.12242   0.12350
 Alpha virt. eigenvalues --    0.12856   0.13438   0.13621   0.13677   0.13877

 Mulliken charges:
               1
     1  O   -0.542997
     2  O   -0.551674
     3  C    0.026926
     4  C   -0.159378
     5  C   -0.173698
     6  C    0.149684
     7  C    0.188962
     8  C    0.022682
     9  C   -0.288455
    10  C   -0.270322
    11  C   -0.224606
    12  C   -0.167596
    13  C    0.213227
    14  C    0.068273
    15  C   -0.104818
    16  C   -0.224969
    17  C    0.041902
    18  C   -0.318855
    19  C   -0.280134
    20  C   -0.362539
    21  C   -0.090528
    22  C   -0.095333
    23  C   -0.336456
    24  C    0.121254
    25  C   -0.135628
    26  C   -0.344419
    27  C    0.060911
    28  C   -0.136424
    29  C   -0.363446
    30  C   -0.047129
    31  C   -0.088916
    32  C   -0.086108
    33  C   -0.117112
    34  C    0.094460
    35  C   -0.147321
    36  C    0.079060
    37  C   -0.375013
    38  C   -0.119711
    39  C   -0.116662
    40  C   -0.368273
    41  C   -0.058281
    42  C   -0.067406
    43  H    0.079388
    44  H    0.098202
    45  H    0.071768
    46  H    0.093477
    47  H    0.094023
    48  H    0.112373
    49  H    0.064476
    50  H    0.098899
    51  H    0.095222
    52  H    0.066854
    53  H    0.105368
    54  H    0.035064
    55  H    0.066336
    56  H    0.078686
    57  H    0.095319
    58  H    0.096591
    59  H    0.101895
    60  H    0.093898
    61  H    0.086134
    62  H    0.094825
    63  H    0.105100
    64  H    0.084868
    65  H    0.117505
    66  H    0.118305
    67  H    0.109750
    68  H    0.108982
    69  H    0.302701
    70  H    0.060136
    71  H    0.077757
    72  H    0.128857
    73  H    0.128017
    74  H    0.085376
    75  H    0.303980
    76  H    0.086506
    77  H    0.111322
    78  H    0.103544
    79  H    0.131881
    80  H    0.058157
    81  H    0.110780
    82  H    0.106312
    83  H    0.109150
    84  H    0.077705
    85  H    0.081822
    86  H    0.088172
    87  H    0.083042
    88  H    0.080959
    89  H    0.085319
    90  H    0.130630
    91  H    0.121204
    92  H    0.075514
    93  H    0.070887
    94  H    0.131144
    95  H    0.107458
    96  H    0.119978
    97  H    0.076164
    98  H    0.089080
 Sum of Mulliken charges =  -0.00000

 Dipole moment (field-independent basis, Debye):
    X=              0.9432    Y=             -0.5749    Z=             -0.9338  Tot=              1.4464
 Quadrupole moment (field-independent basis, Debye-Ang):
   XX=           -284.1481   YY=           -243.0346   ZZ=           -263.3346
   XY=              6.6171   XZ=             40.7914   YZ=              2.4024

 Normal termination of Gaussian 16 at Sun Jul 14 16:09:53 2019.
