 Gaussian 16, Revision A.03,
 Gaussian 16:  ES64L-G16RevA.03 25-Dec-2016

 -------------------------------------
 # td=(NStates=1) CAM-B3LYP/6-31G(d,p)
 -------------------------------------

 --
 TD
 --
 Symbolic Z-matrix:
 Charge =  0 Multiplicity = 1

                         Standard orientation:
 ---------------------------------------------------------------------
 Center     Atomic      Atomic             Coordinates (Angstroms)
 Number     Number       Type             X           Y           Z
 ---------------------------------------------------------------------
      1          8           0      -14.030539   -2.126770    0.730841
      2          8           0       14.797177    1.019459    0.153497
      3          6           0      -11.669428    0.001252    1.344858
      4          6           0      -11.007745    0.246361   -0.044171
      5          6           0      -11.879786   -1.514168    1.483931
      6          6           0      -12.631638   -2.230838    0.403934
      7          6           0      -11.641301   -0.438696   -1.150433
      8          6           0       11.030688    0.982715    1.071449
      9          6           0      -10.862729    0.680845    2.446660
     10          6           0      -13.046967    0.679627    1.279441
     11          6           0       12.502504    1.448178    0.814032
     12          6           0      -12.429054   -1.498405   -0.909905
     13          6           0       13.508441    0.477202    0.477255
     14          6           0       10.603869   -0.053335    0.051247
     15          6           0       -9.506061   -0.044008   -0.115294
     16          6           0       13.003454   -0.351532   -0.751029
     17          6           0       11.529470   -0.573294   -0.874973
     18          6           0       10.154606    2.155390    0.960323
     19          6           0       10.893249    0.339049    2.570754
     20          6           0      -11.399461    0.076313   -2.592137
     21          6           0       -8.531370    0.830608   -0.127354
     22          6           0        9.276901   -0.501197    0.149489
     23          6           0       11.139569   -1.510738   -2.030945
     24          6           0       -7.076581    0.582500   -0.165639
     25          6           0        8.822317   -1.718113   -0.023166
     26          6           0       -6.638902   -0.841969    0.010327
     27          6           0        7.323216   -2.103894   -0.090456
     28          6           0       -6.159441    1.588669   -0.495114
     29          6           0        7.245890   -3.672992   -0.015411
     30          6           0        6.359615   -1.199150   -0.279861
     31          6           0       -4.756810    1.550528   -0.439330
     32          6           0        4.964431   -1.552689   -0.261803
     33          6           0       -4.018696    2.641943   -0.737854
     34          6           0       -2.593109    2.654414   -0.624760
     35          6           0        4.049956   -0.566907   -0.327252
     36          6           0        2.640302   -0.758003   -0.324647
     37          6           0       -2.091743    4.076431   -0.915526
     38          6           0       -1.718518    1.561416   -0.486356
     39          6           0        1.779969    0.354934   -0.403107
     40          6           0        2.089114   -2.210463    0.037134
     41          6           0       -0.339017    1.509900   -0.510056
     42          6           0        0.389831    0.345087   -0.297486
     43          1           0      -11.258482    1.229119   -0.346039
     44          1           0      -12.617879   -1.849442    2.485106
     45          1           0      -10.900698   -2.114546    1.577403
     46          1           0      -12.274955   -3.212184    0.280659
     47          1           0       -9.871088    0.245242    2.468955
     48          1           0      -10.716764    1.810137    2.192742
     49          1           0      -11.495031    0.659986    3.239091
     50          1           0      -13.732438    0.324546    0.399649
     51          1           0      -13.590206    0.741184    2.416415
     52          1           0      -13.060828    1.750204    1.132096
     53          1           0       12.338926    2.361202    0.268367
     54          1           0       12.667082    2.001320    1.769300
     55          1           0      -12.994803   -2.043390   -1.822068
     56          1           0       13.676537   -0.346228    1.298458
     57          1           0       -9.203711   -1.239735   -0.355640
     58          1           0       13.557320   -1.376438   -0.669081
     59          1           0       13.638016    0.210137   -1.582246
     60          1           0        8.984417    2.016639    0.883227
     61          1           0       10.124023    2.446967   -0.104793
     62          1           0       10.435741    3.171446    1.438094
     63          1           0       11.761274   -0.373608    2.729430
     64          1           0        9.955940   -0.049336    2.681766
     65          1           0       11.228891    1.013093    3.339283
     66          1           0      -10.340908    0.182930   -2.735276
     67          1           0      -11.801473    1.102792   -2.810051
     68          1           0      -11.596891   -0.529193   -3.290150
     69          1           0      -14.497889   -2.763432    0.159792
     70          1           0        8.478811    0.280773    0.238247
     71          1           0       -9.123999    1.749174    0.038743
     72          1           0       11.584011   -2.554479   -1.787147
     73          1           0       10.100160   -1.672720   -2.289635
     74          1           0       11.554756   -1.311528   -2.960780
     75          1           0       14.989807    1.690631    0.907277
     76          1           0        9.565344   -2.423489   -0.149282
     77          1           0       -5.605005   -0.649972    0.185017
     78          1           0       -7.280202   -1.198500    0.874421
     79          1           0       -6.753559   -1.560600   -0.988988
     80          1           0       -6.373164    2.695655   -0.848550
     81          1           0        6.816633   -4.044335    0.962341
     82          1           0        6.438748   -3.919734   -0.561729
     83          1           0        8.072897   -3.941388   -0.262772
     84          1           0        6.625819   -0.214917   -0.385093
     85          1           0       -4.217607    0.636159   -0.081744
     86          1           0        4.970558   -2.530691    0.158885
     87          1           0       -4.573521    3.587676   -0.909331
     88          1           0        4.316712    0.470171   -0.353197
     89          1           0       -1.629291    4.087289   -2.106851
     90          1           0       -1.364852    4.533224   -0.274819
     91          1           0       -2.815911    4.916635   -0.930078
     92          1           0       -2.291524    0.605989   -0.247995
     93          1           0        2.332355    1.196505   -0.491657
     94          1           0        2.111740   -2.371978    1.277989
     95          1           0        0.977145   -2.181771   -0.351138
     96          1           0        2.829889   -2.865997   -0.570291
     97          1           0       -0.015023    2.499722   -0.679345
     98          1           0       -0.123177   -0.676264   -0.172298
 ---------------------------------------------------------------------

 SCF Done:  E(RCAM-B3LYP) =  -1706.91198259     A.U. after   14 cycles

 Excitation energies and oscillator strengths:

 Excited State   1:      Singlet-A      2.2363 eV  554.41 nm  f=2.9251  <S**2>=0.000
     155 ->158        -0.13341
     156 ->157         0.69485
 This state for optimization and/or second-order correction.
 Total Energy, E(TD-HF/TD-DFT) =  -1706.82979836
 Copying the excited state density for this state as the 1-particle RhoCI density.

 The electronic state is 1-A.
 Alpha  occ. eigenvalues --  -19.22102 -19.20990 -10.31162 -10.30170 -10.28542
 Alpha  occ. eigenvalues --  -10.28487 -10.28156 -10.28017 -10.27821 -10.27512
 Alpha  occ. eigenvalues --  -10.27406 -10.27377 -10.27250 -10.27061 -10.27015
 Alpha  occ. eigenvalues --  -10.26993 -10.26951 -10.26687 -10.26611 -10.26474
 Alpha  occ. eigenvalues --  -10.26474 -10.26418 -10.26340 -10.26189 -10.26086
 Alpha  occ. eigenvalues --  -10.26077 -10.25870 -10.25790 -10.25703 -10.25624
 Alpha  occ. eigenvalues --  -10.25355 -10.25250 -10.25032 -10.24991 -10.24914
 Alpha  occ. eigenvalues --  -10.24868 -10.24724 -10.24463 -10.23980 -10.23835
 Alpha  occ. eigenvalues --  -10.23830 -10.23730  -1.08844  -1.08557  -0.94169
 Alpha  occ. eigenvalues --   -0.93861  -0.92339  -0.91795  -0.90569  -0.89616
 Alpha  occ. eigenvalues --   -0.87857  -0.86683  -0.86387  -0.85898  -0.85034
 Alpha  occ. eigenvalues --   -0.83607  -0.82409  -0.81047  -0.80816  -0.78762
 Alpha  occ. eigenvalues --   -0.77392  -0.76754  -0.76435  -0.75885  -0.75388
 Alpha  occ. eigenvalues --   -0.74833  -0.74785  -0.74017  -0.73148  -0.70190
 Alpha  occ. eigenvalues --   -0.68871  -0.67818  -0.66843  -0.64603  -0.64050
 Alpha  occ. eigenvalues --   -0.63576  -0.62978  -0.62239  -0.61010  -0.60186
 Alpha  occ. eigenvalues --   -0.59270  -0.58469  -0.58225  -0.57771  -0.56670
 Alpha  occ. eigenvalues --   -0.56427  -0.55410  -0.54957  -0.54469  -0.54196
 Alpha  occ. eigenvalues --   -0.53383  -0.53266  -0.52824  -0.52207  -0.51629
 Alpha  occ. eigenvalues --   -0.50261  -0.50007  -0.49716  -0.49572  -0.49172
 Alpha  occ. eigenvalues --   -0.48419  -0.48183  -0.47777  -0.47343  -0.47217
 Alpha  occ. eigenvalues --   -0.47061  -0.46859  -0.46703  -0.46495  -0.46338
 Alpha  occ. eigenvalues --   -0.46265  -0.45800  -0.45522  -0.45316  -0.45119
 Alpha  occ. eigenvalues --   -0.44690  -0.44569  -0.43992  -0.43666  -0.43381
 Alpha  occ. eigenvalues --   -0.43357  -0.43099  -0.42912  -0.42151  -0.41835
 Alpha  occ. eigenvalues --   -0.41489  -0.41192  -0.40673  -0.40598  -0.40378
 Alpha  occ. eigenvalues --   -0.40224  -0.40032  -0.39819  -0.39532  -0.39256
 Alpha  occ. eigenvalues --   -0.38864  -0.38460  -0.38316  -0.38024  -0.37982
 Alpha  occ. eigenvalues --   -0.37142  -0.37092  -0.36320  -0.36099  -0.35582
 Alpha  occ. eigenvalues --   -0.34973  -0.34361  -0.33888  -0.32622  -0.32351
 Alpha  occ. eigenvalues --   -0.32085  -0.29304  -0.28695  -0.26663  -0.24421
 Alpha  occ. eigenvalues --   -0.19757
 Alpha virt. eigenvalues --   -0.05900  -0.00584   0.02477   0.05720   0.07369
 Alpha virt. eigenvalues --    0.09171   0.11132   0.11432   0.11766   0.12274
 Alpha virt. eigenvalues --    0.12349   0.12729   0.12972   0.13147   0.13476

 Mulliken charges:
               1
     1  O   -0.533767
     2  O   -0.566512
     3  C    0.032985
     4  C   -0.143534
     5  C   -0.167708
     6  C    0.127111
     7  C    0.094753
     8  C    0.005827
     9  C   -0.291373
    10  C   -0.299345
    11  C   -0.211104
    12  C   -0.123859
    13  C    0.193401
    14  C    0.049906
    15  C   -0.086332
    16  C   -0.249174
    17  C    0.064338
    18  C   -0.335977
    19  C   -0.303820
    20  C   -0.342970
    21  C   -0.062975
    22  C   -0.086157
    23  C   -0.368794
    24  C    0.030247
    25  C   -0.116014
    26  C   -0.334414
    27  C    0.023077
    28  C   -0.099300
    29  C   -0.330898
    30  C   -0.087726
    31  C   -0.047431
    32  C   -0.095759
    33  C   -0.128838
    34  C    0.080956
    35  C   -0.100362
    36  C    0.059966
    37  C   -0.379270
    38  C   -0.113025
    39  C   -0.083243
    40  C   -0.336416
    41  C   -0.056793
    42  C   -0.104481
    43  H    0.101389
    44  H    0.081503
    45  H    0.080502
    46  H    0.100914
    47  H    0.110886
    48  H    0.082784
    49  H    0.112906
    50  H    0.124741
    51  H    0.062295
    52  H    0.093269
    53  H    0.111239
    54  H    0.074942
    55  H    0.044787
    56  H    0.072096
    57  H    0.055305
    58  H    0.101026
    59  H    0.117566
    60  H    0.095540
    61  H    0.109072
    62  H    0.098675
    63  H    0.088546
    64  H    0.120317
    65  H    0.099173
    66  H    0.118236
    67  H    0.105302
    68  H    0.116997
    69  H    0.300930
    70  H    0.071761
    71  H    0.080138
    72  H    0.096204
    73  H    0.124378
    74  H    0.121194
    75  H    0.310245
    76  H    0.083279
    77  H    0.111317
    78  H    0.119191
    79  H    0.106257
    80  H    0.077643
    81  H    0.113600
    82  H    0.124855
    83  H    0.110209
    84  H    0.071108
    85  H    0.092600
    86  H    0.095118
    87  H    0.094870
    88  H    0.086355
    89  H    0.087703
    90  H    0.122103
    91  H    0.112084
    92  H    0.062425
    93  H    0.070118
    94  H    0.106956
    95  H    0.097871
    96  H    0.114530
    97  H    0.089055
    98  H    0.090696
 Sum of Mulliken charges =  -0.00000

 Dipole moment (field-independent basis, Debye):
    X=              0.0937    Y=             -0.1013    Z=             -0.2756  Tot=              0.3082
 Quadrupole moment (field-independent basis, Debye-Ang):
   XX=           -289.6906   YY=           -237.3355   ZZ=           -265.2776
   XY=             15.0552   XZ=             33.4195   YZ=              3.6105

 Normal termination of Gaussian 16 at Fri Jul 12 17:33:48 2019.
