 Gaussian 16, Revision A.03,
 Gaussian 16:  ES64L-G16RevA.03 25-Dec-2016

 -------------------------------------
 # td=(NStates=1) CAM-B3LYP/6-31G(d,p)
 -------------------------------------

 --
 TD
 --
 Symbolic Z-matrix:
 Charge =  0 Multiplicity = 1

                         Standard orientation:
 ---------------------------------------------------------------------
 Center     Atomic      Atomic             Coordinates (Angstroms)
 Number     Number       Type             X           Y           Z
 ---------------------------------------------------------------------
      1          8           0      -14.212408   -1.690943    0.858567
      2          8           0       14.725878    1.138100    0.607508
      3          6           0      -11.711905    0.046698    1.447180
      4          6           0      -10.922217    0.347082    0.066584
      5          6           0      -11.953522   -1.448577    1.578361
      6          6           0      -12.816375   -2.027197    0.540073
      7          6           0      -11.699541   -0.351421   -0.955994
      8          6           0       10.913379    1.106834    1.139296
      9          6           0      -10.795515    0.574783    2.667663
     10          6           0      -12.962571    0.958491    1.379342
     11          6           0       12.309820    1.679036    0.878573
     12          6           0      -12.432429   -1.438807   -0.869427
     13          6           0       13.401543    0.651492    0.640036
     14          6           0       10.665845   -0.052783    0.147208
     15          6           0       -9.439334   -0.053494    0.023616
     16          6           0       13.056501   -0.186479   -0.580418
     17          6           0       11.615606   -0.591172   -0.733361
     18          6           0        9.827088    2.168771    0.952832
     19          6           0       10.860184    0.535934    2.588515
     20          6           0      -11.316863    0.158425   -2.398742
     21          6           0       -8.459274    0.766227   -0.262898
     22          6           0        9.320028   -0.548475    0.088992
     23          6           0       11.311442   -1.474259   -1.840019
     24          6           0       -6.987563    0.464628   -0.231256
     25          6           0        8.797070   -1.757309   -0.199289
     26          6           0       -6.614923   -0.961730    0.027436
     27          6           0        7.454322   -2.182157   -0.114014
     28          6           0       -6.087546    1.427951   -0.627012
     29          6           0        7.141720   -3.663074   -0.039300
     30          6           0        6.444618   -1.196316   -0.349435
     31          6           0       -4.701882    1.296369   -0.690121
     32          6           0        4.982257   -1.512030   -0.288475
     33          6           0       -4.008686    2.459507   -0.915325
     34          6           0       -2.518751    2.542095   -0.938949
     35          6           0        4.002119   -0.626258   -0.365793
     36          6           0        2.620440   -0.887959   -0.360915
     37          6           0       -1.863450    3.837351   -1.185041
     38          6           0       -1.763166    1.381406   -0.758498
     39          6           0        1.789035    0.185369   -0.627011
     40          6           0        2.157201   -2.259410   -0.178633
     41          6           0       -0.387208    1.250347   -0.743972
     42          6           0        0.359001    0.170982   -0.539075
     43          1           0      -10.957928    1.247922   -0.271274
     44          1           0      -12.530673   -1.563287    2.499066
     45          1           0      -10.935671   -2.088148    1.374913
     46          1           0      -12.674025   -3.100251    0.410353
     47          1           0       -9.878664   -0.009581    2.556381
     48          1           0      -10.394441    1.564374    2.540954
     49          1           0      -11.325629    0.271954    3.544851
     50          1           0      -13.628962    0.835841    0.441280
     51          1           0      -13.602910    0.853469    2.181221
     52          1           0      -12.789811    2.037673    1.346085
     53          1           0       12.508861    2.191305   -0.118575
     54          1           0       12.349976    2.356726    1.753831
     55          1           0      -12.746014   -1.875998   -1.670066
     56          1           0       13.451202   -0.091876    1.484116
     57          1           0       -9.159331   -1.156559    0.178048
     58          1           0       13.539103   -1.278091   -0.616134
     59          1           0       13.094050    0.394538   -1.510664
     60          1           0        8.764609    1.857379    1.164418
     61          1           0        9.990593    2.683339   -0.076775
     62          1           0       10.049865    3.114814    1.748493
     63          1           0       11.606907   -0.218016    2.769854
     64          1           0        9.844963    0.050940    2.548790
     65          1           0       11.004727    1.262385    3.367202
     66          1           0      -10.209135    0.072264   -2.328182
     67          1           0      -11.506731    1.303634   -2.328770
     68          1           0      -11.824179   -0.389616   -3.212484
     69          1           0      -14.602547   -1.962255    0.025846
     70          1           0        8.475843    0.174072    0.352225
     71          1           0       -8.641529    1.805656   -0.451826
     72          1           0       11.328059   -2.685286   -1.442197
     73          1           0       10.313999   -1.325656   -2.266297
     74          1           0       12.148266   -1.439621   -2.752698
     75          1           0       14.975875    1.612678    1.373861
     76          1           0        9.477784   -2.581722   -0.536543
     77          1           0       -5.594583   -0.997405    0.315722
     78          1           0       -7.478766   -1.428132    0.757565
     79          1           0       -6.854142   -1.663213   -0.844294
     80          1           0       -6.426091    2.565295   -0.736002
     81          1           0        6.544810   -4.066488    0.841408
     82          1           0        6.501469   -3.800182   -0.927165
     83          1           0        7.938714   -4.313066   -0.058742
     84          1           0        6.720310   -0.185428   -0.629742
     85          1           0       -4.143238    0.501023   -0.681639
     86          1           0        4.833925   -2.386594   -0.006340
     87          1           0       -4.542478    3.305178   -1.107345
     88          1           0        4.106495    0.543836   -0.442198
     89          1           0       -1.154669    3.675420   -2.008309
     90          1           0       -1.195486    4.056433   -0.330079
     91          1           0       -2.448500    4.784396   -1.306284
     92          1           0       -2.454867    0.487547   -0.471226
     93          1           0        2.403450    1.043488   -0.935430
     94          1           0        2.316828   -2.594208    0.841249
     95          1           0        1.123651   -2.320861   -0.316998
     96          1           0        2.651201   -3.027758   -0.780466
     97          1           0        0.096335    2.297588   -0.956968
     98          1           0       -0.087614   -0.724359   -0.261013
 ---------------------------------------------------------------------

 SCF Done:  E(RCAM-B3LYP) =  -1707.01492235     A.U. after   14 cycles

 Excitation energies and oscillator strengths:

 Excited State   1:      Singlet-A      2.3504 eV  527.50 nm  f=2.9582  <S**2>=0.000
     155 ->158        -0.17854
     156 ->157         0.67879
 This state for optimization and/or second-order correction.
 Total Energy, E(TD-HF/TD-DFT) =  -1706.92854581
 Copying the excited state density for this state as the 1-particle RhoCI density.

 The electronic state is 1-A.
 Alpha  occ. eigenvalues --  -19.20717 -19.20692 -10.31061 -10.30113 -10.28116
 Alpha  occ. eigenvalues --  -10.27951 -10.27927 -10.27462 -10.27462 -10.27457
 Alpha  occ. eigenvalues --  -10.27299 -10.27237 -10.27089 -10.26796 -10.26577
 Alpha  occ. eigenvalues --  -10.26485 -10.26437 -10.26283 -10.26204 -10.26156
 Alpha  occ. eigenvalues --  -10.26093 -10.26039 -10.25979 -10.25853 -10.25835
 Alpha  occ. eigenvalues --  -10.25823 -10.25786 -10.25785 -10.25717 -10.25709
 Alpha  occ. eigenvalues --  -10.25622 -10.25603 -10.25420 -10.25305 -10.25178
 Alpha  occ. eigenvalues --  -10.25000 -10.24524 -10.24494 -10.24333 -10.23535
 Alpha  occ. eigenvalues --  -10.22982 -10.22976  -1.09937  -1.08357  -0.93869
 Alpha  occ. eigenvalues --   -0.93679  -0.92711  -0.92106  -0.90502  -0.89979
 Alpha  occ. eigenvalues --   -0.87911  -0.87712  -0.86310  -0.85667  -0.84965
 Alpha  occ. eigenvalues --   -0.83643  -0.82805  -0.80635  -0.80348  -0.78824
 Alpha  occ. eigenvalues --   -0.76738  -0.76231  -0.76037  -0.75842  -0.75642
 Alpha  occ. eigenvalues --   -0.75293  -0.75066  -0.74564  -0.73169  -0.70482
 Alpha  occ. eigenvalues --   -0.69381  -0.67825  -0.67287  -0.65413  -0.64300
 Alpha  occ. eigenvalues --   -0.63145  -0.62861  -0.61828  -0.60771  -0.60245
 Alpha  occ. eigenvalues --   -0.59484  -0.58651  -0.58122  -0.57562  -0.56895
 Alpha  occ. eigenvalues --   -0.56690  -0.55903  -0.54937  -0.54840  -0.53912
 Alpha  occ. eigenvalues --   -0.53339  -0.53018  -0.52627  -0.51954  -0.51483
 Alpha  occ. eigenvalues --   -0.51027  -0.50247  -0.49728  -0.49288  -0.48815
 Alpha  occ. eigenvalues --   -0.48697  -0.48458  -0.48361  -0.48044  -0.47898
 Alpha  occ. eigenvalues --   -0.47799  -0.47110  -0.46904  -0.46440  -0.46340
 Alpha  occ. eigenvalues --   -0.46179  -0.45988  -0.45950  -0.45676  -0.45203
 Alpha  occ. eigenvalues --   -0.44840  -0.44694  -0.44110  -0.43869  -0.43518
 Alpha  occ. eigenvalues --   -0.43391  -0.43320  -0.42964  -0.42706  -0.42331
 Alpha  occ. eigenvalues --   -0.42167  -0.41950  -0.41418  -0.41115  -0.40711
 Alpha  occ. eigenvalues --   -0.40381  -0.40322  -0.40283  -0.39843  -0.39511
 Alpha  occ. eigenvalues --   -0.39066  -0.38718  -0.38584  -0.38354  -0.37958
 Alpha  occ. eigenvalues --   -0.37731  -0.37454  -0.36869  -0.36289  -0.36091
 Alpha  occ. eigenvalues --   -0.35334  -0.34742  -0.33110  -0.31922  -0.31640
 Alpha  occ. eigenvalues --   -0.31079  -0.29424  -0.29003  -0.26530  -0.23258
 Alpha  occ. eigenvalues --   -0.19927
 Alpha virt. eigenvalues --   -0.05070  -0.01040   0.02786   0.05901   0.07344
 Alpha virt. eigenvalues --    0.08918   0.11059   0.11734   0.11987   0.12678
 Alpha virt. eigenvalues --    0.13082   0.13196   0.13306   0.13674   0.14362

 Mulliken charges:
               1
     1  O   -0.541539
     2  O   -0.563571
     3  C    0.017749
     4  C   -0.086347
     5  C   -0.172865
     6  C    0.129034
     7  C    0.104843
     8  C   -0.018254
     9  C   -0.304888
    10  C   -0.296338
    11  C   -0.189888
    12  C   -0.145972
    13  C    0.187721
    14  C    0.082240
    15  C   -0.104475
    16  C   -0.218131
    17  C    0.065008
    18  C   -0.288299
    19  C   -0.296210
    20  C   -0.356191
    21  C   -0.064498
    22  C   -0.120729
    23  C   -0.362186
    24  C    0.088383
    25  C   -0.110577
    26  C   -0.366684
    27  C    0.069960
    28  C   -0.133751
    29  C   -0.376836
    30  C   -0.131027
    31  C   -0.004664
    32  C   -0.079745
    33  C   -0.128972
    34  C    0.095330
    35  C   -0.102530
    36  C    0.142860
    37  C   -0.401000
    38  C   -0.114343
    39  C   -0.137759
    40  C   -0.385888
    41  C   -0.074005
    42  C   -0.086398
    43  H    0.074675
    44  H    0.114144
    45  H    0.080873
    46  H    0.082316
    47  H    0.099014
    48  H    0.105456
    49  H    0.102333
    50  H    0.099201
    51  H    0.107899
    52  H    0.088632
    53  H    0.091943
    54  H    0.082988
    55  H    0.058597
    56  H    0.063042
    57  H    0.073998
    58  H    0.107620
    59  H    0.120794
    60  H    0.117362
    61  H    0.105834
    62  H    0.062822
    63  H    0.108831
    64  H    0.108392
    65  H    0.100541
    66  H    0.124793
    67  H    0.094377
    68  H    0.105540
    69  H    0.301749
    70  H    0.063532
    71  H    0.075733
    72  H    0.086970
    73  H    0.142307
    74  H    0.088835
    75  H    0.305294
    76  H    0.067257
    77  H    0.116739
    78  H    0.093937
    79  H    0.122104
    80  H    0.076398
    81  H    0.115389
    82  H    0.130790
    83  H    0.119866
    84  H    0.087084
    85  H    0.076041
    86  H    0.059445
    87  H    0.075409
    88  H    0.066276
    89  H    0.133873
    90  H    0.130287
    91  H    0.113494
    92  H    0.062315
    93  H    0.079129
    94  H    0.122095
    95  H    0.110169
    96  H    0.122457
    97  H    0.069793
    98  H    0.084648
 Sum of Mulliken charges =  -0.00000

 Dipole moment (field-independent basis, Debye):
    X=              1.0753    Y=             -0.5247    Z=             -0.5258  Tot=              1.3070
 Quadrupole moment (field-independent basis, Debye-Ang):
   XX=           -295.3017   YY=           -239.1625   ZZ=           -263.7711
   XY=              3.8065   XZ=             34.5946   YZ=              3.3198

 Normal termination of Gaussian 16 at Tue Jul 16 02:33:19 2019.
