 Gaussian 16, Revision A.03,
 Gaussian 16:  ES64L-G16RevA.03 25-Dec-2016

 -------------------------------------
 # td=(NStates=1) CAM-B3LYP/6-31G(d,p)
 -------------------------------------

 --
 TD
 --
 Symbolic Z-matrix:
 Charge =  0 Multiplicity = 1

                         Standard orientation:
 ---------------------------------------------------------------------
 Center     Atomic      Atomic             Coordinates (Angstroms)
 Number     Number       Type             X           Y           Z
 ---------------------------------------------------------------------
      1          8           0      -14.162223   -2.053285    0.236460
      2          8           0       14.750178    0.957320   -0.047119
      3          6           0      -11.814265    0.008702    1.291972
      4          6           0      -10.976952    0.350787   -0.028965
      5          6           0      -12.075589   -1.542789    1.162204
      6          6           0      -12.734624   -2.096224   -0.004156
      7          6           0      -11.691560   -0.192205   -1.247244
      8          6           0       11.149414    0.919326    1.077841
      9          6           0      -11.048521    0.273692    2.577158
     10          6           0      -13.216990    0.672820    1.236810
     11          6           0       12.545925    1.521331    0.689576
     12          6           0      -12.307097   -1.336298   -1.218709
     13          6           0       13.495838    0.372515    0.284355
     14          6           0       10.644092    0.023365   -0.083704
     15          6           0       -9.564788   -0.069789    0.004306
     16          6           0       13.010524   -0.233707   -1.028945
     17          6           0       11.502034   -0.493282   -0.951063
     18          6           0       10.148295    2.175427    1.193554
     19          6           0       11.231452    0.232026    2.347607
     20          6           0      -11.334737    0.512129   -2.507175
     21          6           0       -8.538562    0.791185   -0.071260
     22          6           0        9.332581   -0.541322    0.042457
     23          6           0       11.011406   -1.296224   -2.236079
     24          6           0       -7.145996    0.500986   -0.078327
     25          6           0        8.839748   -1.731477   -0.178344
     26          6           0       -6.589790   -0.941829    0.184343
     27          6           0        7.429874   -2.160401    0.051562
     28          6           0       -6.163886    1.485283   -0.224412
     29          6           0        7.196572   -3.627798    0.219031
     30          6           0        6.411258   -1.176958   -0.022073
     31          6           0       -4.786524    1.446650   -0.360417
     32          6           0        5.029299   -1.491314    0.098772
     33          6           0       -4.012606    2.521793   -0.518375
     34          6           0       -2.615377    2.543159   -0.501662
     35          6           0        4.033934   -0.532444   -0.246855
     36          6           0        2.642464   -0.811530   -0.162095
     37          6           0       -1.863314    3.841627   -0.791064
     38          6           0       -1.776475    1.454214   -0.200540
     39          6           0        1.814415    0.312501   -0.450775
     40          6           0        2.123904   -2.050270    0.256812
     41          6           0       -0.343841    1.532285   -0.364605
     42          6           0        0.442160    0.402331   -0.237807
     43          1           0      -10.850926    1.510126   -0.149070
     44          1           0      -12.701525   -1.720026    2.195998
     45          1           0      -11.095897   -2.062866    1.219633
     46          1           0      -12.396094   -3.276703   -0.062360
     47          1           0      -10.261367   -0.586886    2.840923
     48          1           0      -10.709217    1.292703    2.431348
     49          1           0      -11.819938    0.266967    3.456805
     50          1           0      -13.777116    0.463103    0.280459
     51          1           0      -13.781464    0.431022    1.959588
     52          1           0      -12.988436    1.873378    1.054763
     53          1           0       12.567804    2.162963   -0.123483
     54          1           0       13.088868    2.028408    1.473571
     55          1           0      -12.759138   -1.549988   -2.179329
     56          1           0       13.576211   -0.218453    1.175667
     57          1           0       -9.386183   -1.119965    0.154535
     58          1           0       13.457895   -1.140426   -1.346041
     59          1           0       13.192644    0.386056   -1.970527
     60          1           0        9.203267    1.978000    1.606218
     61          1           0        9.941870    2.701539    0.385019
     62          1           0       10.658827    2.946673    1.933542
     63          1           0       11.732460   -0.804355    2.204784
     64          1           0       10.263267   -0.071012    2.624976
     65          1           0       11.567468    0.741862    3.319243
     66          1           0      -10.060916    0.720476   -2.500973
     67          1           0      -11.937925    1.385036   -2.496892
     68          1           0      -11.763035   -0.157640   -3.172010
     69          1           0      -14.434618   -2.408581   -0.690971
     70          1           0        8.609741    0.091013    0.402987
     71          1           0       -8.920053    1.884990   -0.203477
     72          1           0       11.467923   -2.206908   -2.266411
     73          1           0        9.969159   -1.219991   -2.389872
     74          1           0       11.574931   -0.818859   -2.982452
     75          1           0       14.897388    1.342756    0.701768
     76          1           0        9.472557   -2.603948   -0.562403
     77          1           0       -5.472929   -1.233339    0.156086
     78          1           0       -7.012877   -1.354348    1.038428
     79          1           0       -6.847175   -1.676384   -0.589590
     80          1           0       -6.580499    2.554065   -0.239036
     81          1           0        7.157967   -3.884482    1.239095
     82          1           0        6.265224   -3.697851   -0.357933
     83          1           0        8.166779   -4.163474   -0.251690
     84          1           0        6.494158   -0.155746   -0.599028
     85          1           0       -4.183766    0.438902   -0.532342
     86          1           0        4.669183   -2.377865    0.409901
     87          1           0       -4.590696    3.573817   -0.565086
     88          1           0        4.451239    0.371101   -0.467307
     89          1           0       -1.222758    3.830791   -1.645507
     90          1           0       -1.237712    4.095786   -0.058489
     91          1           0       -2.632387    4.653243   -0.886039
     92          1           0       -2.410525    0.677019    0.092473
     93          1           0        2.468196    1.198862   -1.007673
     94          1           0        2.183168   -2.450579    1.288704
     95          1           0        0.977637   -2.187420    0.225657
     96          1           0        2.425330   -2.803283   -0.312098
     97          1           0        0.098433    2.298632   -0.779018
     98          1           0       -0.070212   -0.589851   -0.022046
 ---------------------------------------------------------------------

 SCF Done:  E(RCAM-B3LYP) =  -1706.94961849     A.U. after   15 cycles

 Excitation energies and oscillator strengths:

 Excited State   1:      Singlet-A      2.1005 eV  590.25 nm  f=3.1099  <S**2>=0.000
     155 ->158         0.14746
     156 ->157         0.69271
 This state for optimization and/or second-order correction.
 Total Energy, E(TD-HF/TD-DFT) =  -1706.87242542
 Copying the excited state density for this state as the 1-particle RhoCI density.

 The electronic state is 1-A.
 Alpha  occ. eigenvalues --  -19.22099 -19.19876 -10.31603 -10.30045 -10.28220
 Alpha  occ. eigenvalues --  -10.27988 -10.27973 -10.27743 -10.27545 -10.26999
 Alpha  occ. eigenvalues --  -10.26849 -10.26819 -10.26775 -10.26666 -10.26664
 Alpha  occ. eigenvalues --  -10.26652 -10.26617 -10.26615 -10.26590 -10.26533
 Alpha  occ. eigenvalues --  -10.26223 -10.25827 -10.25825 -10.25806 -10.25771
 Alpha  occ. eigenvalues --  -10.25764 -10.25750 -10.25717 -10.25665 -10.25665
 Alpha  occ. eigenvalues --  -10.25553 -10.25248 -10.25229 -10.25133 -10.24904
 Alpha  occ. eigenvalues --  -10.24626 -10.24328 -10.24130 -10.23986 -10.23784
 Alpha  occ. eigenvalues --  -10.23734 -10.23604  -1.12553  -1.08605  -0.94109
 Alpha  occ. eigenvalues --   -0.93894  -0.92486  -0.91878  -0.90378  -0.89882
 Alpha  occ. eigenvalues --   -0.87623  -0.87416  -0.87027  -0.85980  -0.85144
 Alpha  occ. eigenvalues --   -0.83418  -0.82720  -0.81139  -0.80821  -0.78687
 Alpha  occ. eigenvalues --   -0.77052  -0.76955  -0.76847  -0.76424  -0.76235
 Alpha  occ. eigenvalues --   -0.75970  -0.75628  -0.75101  -0.72967  -0.70482
 Alpha  occ. eigenvalues --   -0.68937  -0.67246  -0.66304  -0.65853  -0.64405
 Alpha  occ. eigenvalues --   -0.63430  -0.63018  -0.62005  -0.61520  -0.60109
 Alpha  occ. eigenvalues --   -0.59971  -0.59419  -0.57898  -0.57296  -0.56348
 Alpha  occ. eigenvalues --   -0.56228  -0.55622  -0.54709  -0.54372  -0.53677
 Alpha  occ. eigenvalues --   -0.53149  -0.53037  -0.52242  -0.51447  -0.51205
 Alpha  occ. eigenvalues --   -0.50798  -0.50544  -0.50442  -0.49673  -0.49577
 Alpha  occ. eigenvalues --   -0.49418  -0.49043  -0.48895  -0.48336  -0.48237
 Alpha  occ. eigenvalues --   -0.48047  -0.47747  -0.47371  -0.47131  -0.46483
 Alpha  occ. eigenvalues --   -0.46281  -0.45419  -0.45349  -0.45171  -0.44852
 Alpha  occ. eigenvalues --   -0.44582  -0.44190  -0.44085  -0.43723  -0.43544
 Alpha  occ. eigenvalues --   -0.43405  -0.43052  -0.42948  -0.42434  -0.42207
 Alpha  occ. eigenvalues --   -0.42048  -0.41637  -0.41422  -0.41245  -0.40940
 Alpha  occ. eigenvalues --   -0.40670  -0.40542  -0.39920  -0.39806  -0.39387
 Alpha  occ. eigenvalues --   -0.39272  -0.39209  -0.38961  -0.38533  -0.37806
 Alpha  occ. eigenvalues --   -0.37777  -0.37521  -0.37088  -0.36894  -0.36046
 Alpha  occ. eigenvalues --   -0.35487  -0.34820  -0.34177  -0.32139  -0.31664
 Alpha  occ. eigenvalues --   -0.31421  -0.30296  -0.29282  -0.27107  -0.23615
 Alpha  occ. eigenvalues --   -0.19188
 Alpha virt. eigenvalues --   -0.05984  -0.01205   0.02834   0.05651   0.06986
 Alpha virt. eigenvalues --    0.08739   0.10976   0.11557   0.12149   0.12275
 Alpha virt. eigenvalues --    0.12471   0.12983   0.13389   0.13984   0.14080

 Mulliken charges:
               1
     1  O   -0.533427
     2  O   -0.520274
     3  C    0.028896
     4  C   -0.154662
     5  C   -0.185528
     6  C    0.143656
     7  C    0.115498
     8  C   -0.009925
     9  C   -0.291234
    10  C   -0.267794
    11  C   -0.189947
    12  C   -0.125520
    13  C    0.122066
    14  C    0.083981
    15  C   -0.048211
    16  C   -0.208018
    17  C    0.000650
    18  C   -0.317197
    19  C   -0.304787
    20  C   -0.331907
    21  C   -0.113155
    22  C   -0.102613
    23  C   -0.356020
    24  C    0.110198
    25  C   -0.099567
    26  C   -0.384114
    27  C    0.044970
    28  C   -0.144269
    29  C   -0.353764
    30  C   -0.128160
    31  C   -0.056791
    32  C   -0.079739
    33  C   -0.104938
    34  C    0.065606
    35  C   -0.117056
    36  C    0.146458
    37  C   -0.377838
    38  C   -0.096020
    39  C   -0.133357
    40  C   -0.405765
    41  C   -0.067638
    42  C   -0.088220
    43  H    0.061201
    44  H    0.084649
    45  H    0.086309
    46  H    0.060517
    47  H    0.094712
    48  H    0.110865
    49  H    0.089173
    50  H    0.116430
    51  H    0.110906
    52  H    0.052303
    53  H    0.112045
    54  H    0.072001
    55  H    0.057764
    56  H    0.093748
    57  H    0.083798
    58  H    0.114035
    59  H    0.122161
    60  H    0.106883
    61  H    0.117497
    62  H    0.074912
    63  H    0.095252
    64  H    0.116192
    65  H    0.099280
    66  H    0.106014
    67  H    0.125397
    68  H    0.106748
    69  H    0.303412
    70  H    0.074720
    71  H    0.080725
    72  H    0.117211
    73  H    0.127947
    74  H    0.105006
    75  H    0.278188
    76  H    0.073518
    77  H    0.105047
    78  H    0.127699
    79  H    0.111420
    80  H    0.071889
    81  H    0.141268
    82  H    0.128326
    83  H    0.099999
    84  H    0.089319
    85  H    0.085466
    86  H    0.072809
    87  H    0.076082
    88  H    0.074822
    89  H    0.122835
    90  H    0.136093
    91  H    0.091409
    92  H    0.069332
    93  H    0.072047
    94  H    0.126452
    95  H    0.101219
    96  H    0.138020
    97  H    0.079206
    98  H    0.083194
 Sum of Mulliken charges =  -0.00000

 Dipole moment (field-independent basis, Debye):
    X=              1.1223    Y=             -1.4808    Z=             -0.4191  Tot=              1.9047
 Quadrupole moment (field-independent basis, Debye-Ang):
   XX=           -288.7932   YY=           -245.5403   ZZ=           -260.9483
   XY=             -0.9283   XZ=             33.8229   YZ=              1.6879

 Normal termination of Gaussian 16 at Mon Jul 15 09:11:40 2019.
