 Gaussian 16, Revision A.03,
 Gaussian 16:  ES64L-G16RevA.03 25-Dec-2016

 -------------------------------------
 # td=(NStates=1) CAM-B3LYP/6-31G(d,p)
 -------------------------------------

 --
 TD
 --
 Symbolic Z-matrix:
 Charge =  0 Multiplicity = 1

                         Standard orientation:
 ---------------------------------------------------------------------
 Center     Atomic      Atomic             Coordinates (Angstroms)
 Number     Number       Type             X           Y           Z
 ---------------------------------------------------------------------
      1          8           0      -14.270186   -1.755795    0.759874
      2          8           0       14.868057    0.722882    0.440890
      3          6           0      -11.729015    0.126527    1.394631
      4          6           0      -11.022016    0.317817    0.011787
      5          6           0      -12.029468   -1.359564    1.572128
      6          6           0      -12.861904   -2.017239    0.528843
      7          6           0      -11.747492   -0.496841   -1.114250
      8          6           0       11.125400    1.154719    1.018988
      9          6           0      -10.783984    0.658222    2.494312
     10          6           0      -13.068590    0.877719    1.426940
     11          6           0       12.605133    1.565923    0.791879
     12          6           0      -12.513122   -1.523646   -0.879397
     13          6           0       13.543203    0.440719    0.583259
     14          6           0       10.746186   -0.001771    0.053810
     15          6           0       -9.558654   -0.026827   -0.077963
     16          6           0       13.095999   -0.230926   -0.709134
     17          6           0       11.631904   -0.638045   -0.734362
     18          6           0       10.201823    2.364002    0.780331
     19          6           0       10.856455    0.660827    2.494101
     20          6           0      -11.347544    0.046499   -2.539568
     21          6           0       -8.513209    0.793891   -0.250752
     22          6           0        9.304503   -0.293441    0.095887
     23          6           0       11.282359   -1.568491   -1.857719
     24          6           0       -7.055322    0.405452   -0.323686
     25          6           0        8.836710   -1.589624   -0.016085
     26          6           0       -6.708435   -0.973334    0.003099
     27          6           0        7.486224   -2.135047   -0.069779
     28          6           0       -6.165217    1.321308   -0.575441
     29          6           0        7.328775   -3.621867    0.162949
     30          6           0        6.409153   -1.297818   -0.292052
     31          6           0       -4.701081    1.273539   -0.576899
     32          6           0        5.009037   -1.623641   -0.174576
     33          6           0       -4.000133    2.475120   -0.733611
     34          6           0       -2.535105    2.533126   -0.668243
     35          6           0        3.992992   -0.703995   -0.451537
     36          6           0        2.697383   -0.834010   -0.395271
     37          6           0       -1.998880    4.029226   -1.029990
     38          6           0       -1.796640    1.463926   -0.533868
     39          6           0        1.742576    0.223270   -0.657730
     40          6           0        1.971884   -2.177383   -0.012790
     41          6           0       -0.434793    1.388587   -0.739737
     42          6           0        0.365831    0.185710   -0.591187
     43          1           0      -11.217951    1.309205   -0.153717
     44          1           0      -12.659406   -1.409477    2.570168
     45          1           0      -11.137935   -1.899852    1.858115
     46          1           0      -12.505500   -3.073648    0.507089
     47          1           0       -9.738872    0.114495    2.426087
     48          1           0      -10.784955    1.842359    2.540733
     49          1           0      -11.231883    0.258300    3.522552
     50          1           0      -13.677359    0.837082    0.522062
     51          1           0      -13.714062    0.688786    2.129989
     52          1           0      -12.843483    2.034153    1.543254
     53          1           0       12.496457    2.413969   -0.003353
     54          1           0       12.691697    2.177725    1.641470
     55          1           0      -13.218457   -2.173268   -1.490840
     56          1           0       13.593168   -0.208589    1.455480
     57          1           0       -9.389510   -1.073381    0.304572
     58          1           0       13.900198   -1.074132   -0.989043
     59          1           0       13.186831    0.557969   -1.539160
     60          1           0        9.061466    2.269589    0.849248
     61          1           0       10.347580    2.999614   -0.104276
     62          1           0       10.443588    3.103537    1.657471
     63          1           0       11.301680   -0.298944    2.688106
     64          1           0        9.801896    0.553818    2.630997
     65          1           0       11.174010    1.375970    3.278592
     66          1           0      -10.298448    0.266967   -2.512094
     67          1           0      -11.934345    1.157142   -2.892698
     68          1           0      -11.645170   -0.837915   -3.385406
     69          1           0      -14.776808   -1.922189    0.015286
     70          1           0        8.462377    0.459922    0.520388
     71          1           0       -8.775868    1.852212   -0.414070
     72          1           0       11.522734   -2.532489   -1.593322
     73          1           0       10.174788   -1.638218   -2.227830
     74          1           0       11.870880   -1.164538   -2.794286
     75          1           0       15.366538    1.078101    1.405540
     76          1           0        9.675470   -2.324995   -0.108497
     77          1           0       -5.574802   -1.215297    0.014764
     78          1           0       -7.122776   -1.099247    0.963104
     79          1           0       -7.237768   -1.738752   -0.664774
     80          1           0       -6.468859    2.300186   -0.809377
     81          1           0        6.900048   -3.983166    1.126458
     82          1           0        6.779543   -4.117348   -0.605575
     83          1           0        8.334296   -4.137121    0.187925
     84          1           0        6.549624   -0.183330   -0.587736
     85          1           0       -4.205522    0.237014   -0.270101
     86          1           0        4.619210   -2.522723    0.220273
     87          1           0       -4.680108    3.418706   -1.064699
     88          1           0        4.244017    0.267693   -0.670983
     89          1           0       -1.545125    3.963842   -2.172464
     90          1           0       -1.032254    4.158007   -0.360416
     91          1           0       -2.849438    4.711176   -0.933353
     92          1           0       -2.255979    0.586538   -0.181154
     93          1           0        2.144021    1.286641   -0.740632
     94          1           0        1.589208   -2.329059    1.254093
     95          1           0        0.817551   -2.344091   -0.671213
     96          1           0        2.782431   -3.168972   -0.215225
     97          1           0        0.025448    2.047810   -1.264869
     98          1           0       -0.094637   -0.750215   -0.462687
 ---------------------------------------------------------------------

 SCF Done:  E(RCAM-B3LYP) =  -1706.92815817     A.U. after   15 cycles

 Excitation energies and oscillator strengths:

 Excited State   1:      Singlet-A      1.9157 eV  647.21 nm  f=2.8523  <S**2>=0.000
     155 ->158         0.12185
     156 ->157         0.70311
     156 <-157        -0.12525
 This state for optimization and/or second-order correction.
 Total Energy, E(TD-HF/TD-DFT) =  -1706.85775863
 Copying the excited state density for this state as the 1-particle RhoCI density.

 The electronic state is 1-A.
 Alpha  occ. eigenvalues --  -19.21862 -19.21299 -10.31273 -10.30982 -10.30055
 Alpha  occ. eigenvalues --  -10.28556 -10.28459 -10.28401 -10.28133 -10.27767
 Alpha  occ. eigenvalues --  -10.27736 -10.27530 -10.27514 -10.27360 -10.26965
 Alpha  occ. eigenvalues --  -10.26904 -10.26884 -10.26786 -10.26768 -10.26718
 Alpha  occ. eigenvalues --  -10.26667 -10.26579 -10.26558 -10.26518 -10.26367
 Alpha  occ. eigenvalues --  -10.26254 -10.26052 -10.26029 -10.25837 -10.25760
 Alpha  occ. eigenvalues --  -10.25699 -10.25665 -10.25604 -10.25599 -10.25435
 Alpha  occ. eigenvalues --  -10.25135 -10.24960 -10.24764 -10.24759 -10.24448
 Alpha  occ. eigenvalues --  -10.24047 -10.22999  -1.09934  -1.09065  -0.93571
 Alpha  occ. eigenvalues --   -0.93088  -0.92455  -0.91816  -0.91017  -0.89351
 Alpha  occ. eigenvalues --   -0.87097  -0.86555  -0.86091  -0.85531  -0.84241
 Alpha  occ. eigenvalues --   -0.83205  -0.81330  -0.80356  -0.79434  -0.77935
 Alpha  occ. eigenvalues --   -0.76433  -0.75866  -0.75632  -0.75577  -0.74769
 Alpha  occ. eigenvalues --   -0.74433  -0.74408  -0.73956  -0.72201  -0.70727
 Alpha  occ. eigenvalues --   -0.68744  -0.67762  -0.66696  -0.64845  -0.63882
 Alpha  occ. eigenvalues --   -0.63322  -0.62995  -0.62193  -0.60183  -0.59842
 Alpha  occ. eigenvalues --   -0.59566  -0.59472  -0.58129  -0.57116  -0.56435
 Alpha  occ. eigenvalues --   -0.55927  -0.54796  -0.54280  -0.53989  -0.53629
 Alpha  occ. eigenvalues --   -0.52769  -0.52233  -0.52166  -0.51878  -0.50938
 Alpha  occ. eigenvalues --   -0.50234  -0.50023  -0.49543  -0.49119  -0.49016
 Alpha  occ. eigenvalues --   -0.48649  -0.48329  -0.47989  -0.47725  -0.47565
 Alpha  occ. eigenvalues --   -0.46822  -0.46614  -0.46197  -0.45897  -0.45601
 Alpha  occ. eigenvalues --   -0.45541  -0.45204  -0.45160  -0.44475  -0.44180
 Alpha  occ. eigenvalues --   -0.44036  -0.43980  -0.43805  -0.43359  -0.43094
 Alpha  occ. eigenvalues --   -0.42841  -0.42253  -0.42196  -0.42143  -0.42050
 Alpha  occ. eigenvalues --   -0.41405  -0.41298  -0.41084  -0.40763  -0.40143
 Alpha  occ. eigenvalues --   -0.40094  -0.39564  -0.39427  -0.39344  -0.39083
 Alpha  occ. eigenvalues --   -0.38974  -0.38912  -0.38490  -0.37847  -0.37617
 Alpha  occ. eigenvalues --   -0.37400  -0.37345  -0.36861  -0.36196  -0.35555
 Alpha  occ. eigenvalues --   -0.35109  -0.34399  -0.33611  -0.32507  -0.31895
 Alpha  occ. eigenvalues --   -0.31624  -0.30643  -0.29646  -0.26676  -0.24446
 Alpha  occ. eigenvalues --   -0.18716
 Alpha virt. eigenvalues --   -0.06994  -0.00476   0.02474   0.05741   0.07421
 Alpha virt. eigenvalues --    0.07912   0.08871   0.10715   0.10948   0.11223
 Alpha virt. eigenvalues --    0.12165   0.12495   0.13091   0.13579   0.13864

 Mulliken charges:
               1
     1  O   -0.542056
     2  O   -0.573435
     3  C    0.025842
     4  C   -0.116080
     5  C   -0.192007
     6  C    0.152883
     7  C    0.095565
     8  C   -0.021858
     9  C   -0.290993
    10  C   -0.284943
    11  C   -0.196232
    12  C   -0.138752
    13  C    0.223935
    14  C    0.085166
    15  C   -0.087371
    16  C   -0.235287
    17  C    0.043681
    18  C   -0.314180
    19  C   -0.303930
    20  C   -0.324987
    21  C   -0.095732
    22  C   -0.107872
    23  C   -0.360199
    24  C    0.133583
    25  C   -0.126482
    26  C   -0.378777
    27  C    0.101975
    28  C   -0.130366
    29  C   -0.382977
    30  C   -0.132532
    31  C   -0.060698
    32  C   -0.083688
    33  C   -0.144965
    34  C    0.079253
    35  C   -0.093647
    36  C    0.131594
    37  C   -0.350561
    38  C   -0.077992
    39  C   -0.135392
    40  C   -0.323969
    41  C   -0.089516
    42  C   -0.070403
    43  H    0.095362
    44  H    0.095540
    45  H    0.093323
    46  H    0.085862
    47  H    0.095539
    48  H    0.095119
    49  H    0.080969
    50  H    0.109114
    51  H    0.121977
    52  H    0.055611
    53  H    0.089759
    54  H    0.083468
    55  H    0.075351
    56  H    0.073767
    57  H    0.079306
    58  H    0.095885
    59  H    0.117698
    60  H    0.101237
    61  H    0.109229
    62  H    0.080218
    63  H    0.107781
    64  H    0.112593
    65  H    0.091386
    66  H    0.132756
    67  H    0.074895
    68  H    0.084351
    69  H    0.299032
    70  H    0.083961
    71  H    0.082746
    72  H    0.129338
    73  H    0.116698
    74  H    0.094103
    75  H    0.303205
    76  H    0.077981
    77  H    0.098952
    78  H    0.130548
    79  H    0.116217
    80  H    0.069423
    81  H    0.121650
    82  H    0.129305
    83  H    0.104697
    84  H    0.084236
    85  H    0.085946
    86  H    0.081222
    87  H    0.091259
    88  H    0.069887
    89  H    0.105232
    90  H    0.115843
    91  H    0.121109
    92  H    0.077678
    93  H    0.073819
    94  H    0.082862
    95  H    0.079691
    96  H    0.075578
    97  H    0.079558
    98  H    0.074529
 Sum of Mulliken charges =  -0.00000

 Dipole moment (field-independent basis, Debye):
    X=             -0.2709    Y=              0.0185    Z=              0.5774  Tot=              0.6380
 Quadrupole moment (field-independent basis, Debye-Ang):
   XX=           -261.2499   YY=           -245.5099   ZZ=           -264.7679
   XY=              6.2770   XZ=             37.2877   YZ=             -0.1652

 Normal termination of Gaussian 16 at Sat Jul 13 20:15:03 2019.
