 Gaussian 16, Revision A.03,
 Gaussian 16:  ES64L-G16RevA.03 25-Dec-2016

 -------------------------------------
 # td=(NStates=1) CAM-B3LYP/6-31G(d,p)
 -------------------------------------

 --
 TD
 --
 Symbolic Z-matrix:
 Charge =  0 Multiplicity = 1

                         Standard orientation:
 ---------------------------------------------------------------------
 Center     Atomic      Atomic             Coordinates (Angstroms)
 Number     Number       Type             X           Y           Z
 ---------------------------------------------------------------------
      1          8           0      -14.225832   -1.825558    0.324884
      2          8           0       14.892395    0.619135    0.012364
      3          6           0      -11.860322   -0.065528    1.260035
      4          6           0      -11.058039    0.354524   -0.062350
      5          6           0      -12.006609   -1.628234    1.241215
      6          6           0      -12.823968   -2.126066    0.060932
      7          6           0      -11.708724   -0.281258   -1.322982
      8          6           0       11.256289    1.099100    0.950531
      9          6           0      -11.028107    0.383325    2.413219
     10          6           0      -13.152375    0.756135    1.320337
     11          6           0       12.747223    1.434706    0.516160
     12          6           0      -12.405869   -1.429704   -1.221383
     13          6           0       13.659233    0.177788    0.270905
     14          6           0       10.743657    0.035308   -0.182034
     15          6           0       -9.539303   -0.078872    0.082326
     16          6           0       13.068680   -0.472394   -0.951483
     17          6           0       11.555997   -0.551516   -0.978205
     18          6           0       10.420416    2.419369    0.893485
     19          6           0       11.162818    0.502760    2.334314
     20          6           0      -11.237335    0.264105   -2.666798
     21          6           0       -8.558860    0.747686   -0.110218
     22          6           0        9.265660   -0.408169    0.106577
     23          6           0       11.102390   -1.439917   -2.128613
     24          6           0       -7.134752    0.310134    0.013154
     25          6           0        8.780902   -1.648795   -0.074024
     26          6           0       -6.804880   -1.072223    0.096322
     27          6           0        7.397430   -2.032268    0.032448
     28          6           0       -6.326129    1.497324   -0.354639
     29          6           0        7.117421   -3.546146    0.461363
     30          6           0        6.450289   -1.125873   -0.161780
     31          6           0       -4.928718    1.331457   -0.329395
     32          6           0        5.056306   -1.370745    0.062026
     33          6           0       -4.121924    2.457182   -0.509666
     34          6           0       -2.704825    2.571315   -0.488986
     35          6           0        4.062668   -0.439888   -0.158546
     36          6           0        2.694886   -0.703771    0.030634
     37          6           0       -2.061379    3.973519   -0.750625
     38          6           0       -1.738862    1.553640   -0.361301
     39          6           0        1.785555    0.340168   -0.204935
     40          6           0        2.169147   -2.137053    0.199563
     41          6           0       -0.363640    1.529782   -0.379374
     42          6           0        0.395124    0.365102   -0.306944
     43          1           0      -10.991550    1.493278   -0.199601
     44          1           0      -12.417655   -1.904140    2.300054
     45          1           0      -10.921233   -2.010911    1.255786
     46          1           0      -12.622646   -3.185593    0.070000
     47          1           0       -9.967419    0.019518    2.687795
     48          1           0      -10.691818    1.390748    2.346549
     49          1           0      -11.701141    0.561872    3.235641
     50          1           0      -14.170017    0.364633    0.613418
     51          1           0      -13.617833    0.776043    2.432402
     52          1           0      -12.835278    1.741946    0.870413
     53          1           0       12.698584    2.348189   -0.197734
     54          1           0       13.189380    1.958852    1.433543
     55          1           0      -12.893878   -1.872446   -2.110582
     56          1           0       13.532408   -0.489928    1.207279
     57          1           0       -9.474426   -1.039976    0.371062
     58          1           0       13.466932   -1.651703   -1.275883
     59          1           0       13.331419    0.062859   -1.869086
     60          1           0        9.265832    2.396668    1.138962
     61          1           0       10.402646    2.734536   -0.174237
     62          1           0       10.924022    3.125906    1.677618
     63          1           0       11.935812   -0.531318    2.636158
     64          1           0       10.132403    0.275369    2.465990
     65          1           0       11.564313    1.308870    2.911656
     66          1           0      -10.260704    0.414463   -2.551847
     67          1           0      -11.703798    1.252225   -2.736875
     68          1           0      -11.744321   -0.234822   -3.410998
     69          1           0      -14.718656   -2.162822   -0.377636
     70          1           0        8.552987    0.272202    0.525119
     71          1           0       -8.647467    1.758295   -0.327205
     72          1           0       11.315199   -2.542602   -1.778807
     73          1           0       10.035976   -1.497856   -2.469273
     74          1           0       11.750224   -1.262669   -3.044844
     75          1           0       15.177289    1.211295    0.620977
     76          1           0        9.727576   -2.422129   -0.127376
     77          1           0       -5.820016   -1.251961   -0.215477
     78          1           0       -6.606258   -1.275486    1.379220
     79          1           0       -7.516668   -1.786855   -0.501821
     80          1           0       -6.827426    2.481018   -0.296147
     81          1           0        6.892975   -3.541701    1.584512
     82          1           0        6.271872   -3.976080   -0.073157
     83          1           0        7.987935   -4.129791    0.275731
     84          1           0        6.683598   -0.149569   -0.554918
     85          1           0       -4.545714    0.427379   -0.141926
     86          1           0        4.497376   -2.365554    0.407133
     87          1           0       -4.543545    3.468953   -0.833209
     88          1           0        4.415520    0.624692   -0.292058
     89          1           0       -1.607082    4.030167   -1.936078
     90          1           0       -1.260107    4.096327   -0.104164
     91          1           0       -2.753596    4.811953   -0.567942
     92          1           0       -2.248861    0.596928   -0.272290
     93          1           0        2.045325    1.505095   -0.509255
     94          1           0        2.548813   -2.732000    1.076058
     95          1           0        0.991340   -2.096226    0.118292
     96          1           0        2.572202   -2.779361   -0.554262
     97          1           0        0.156345    2.318536   -0.673703
     98          1           0       -0.254513   -0.559973   -0.008555
 ---------------------------------------------------------------------

 SCF Done:  E(RCAM-B3LYP) =  -1706.93573764     A.U. after   15 cycles

 Excitation energies and oscillator strengths:

 Excited State   1:      Singlet-A      2.0665 eV  599.98 nm  f=3.0324  <S**2>=0.000
     155 ->158         0.13438
     156 ->157         0.69785
     156 <-157        -0.10116
 This state for optimization and/or second-order correction.
 Total Energy, E(TD-HF/TD-DFT) =  -1706.85979563
 Copying the excited state density for this state as the 1-particle RhoCI density.

 The electronic state is 1-A.
 Alpha  occ. eigenvalues --  -19.21239 -19.20732 -10.31671 -10.30802 -10.28605
 Alpha  occ. eigenvalues --  -10.28350 -10.28039 -10.27821 -10.27604 -10.27518
 Alpha  occ. eigenvalues --  -10.27274 -10.27122 -10.27041 -10.26955 -10.26886
 Alpha  occ. eigenvalues --  -10.26880 -10.26862 -10.26852 -10.26823 -10.26783
 Alpha  occ. eigenvalues --  -10.26686 -10.26385 -10.26279 -10.26197 -10.26195
 Alpha  occ. eigenvalues --  -10.26079 -10.26036 -10.26002 -10.25955 -10.25933
 Alpha  occ. eigenvalues --  -10.25898 -10.25767 -10.25741 -10.25621 -10.25556
 Alpha  occ. eigenvalues --  -10.25488 -10.25424 -10.25031 -10.25015 -10.24720
 Alpha  occ. eigenvalues --  -10.23722 -10.23238  -1.14089  -1.09385  -0.92844
 Alpha  occ. eigenvalues --   -0.92660  -0.91860  -0.91407  -0.90653  -0.89593
 Alpha  occ. eigenvalues --   -0.87436  -0.86780  -0.86627  -0.85134  -0.84108
 Alpha  occ. eigenvalues --   -0.83003  -0.81889  -0.81313  -0.79581  -0.78079
 Alpha  occ. eigenvalues --   -0.76709  -0.76253  -0.75880  -0.75436  -0.75006
 Alpha  occ. eigenvalues --   -0.74762  -0.74100  -0.73501  -0.72743  -0.70318
 Alpha  occ. eigenvalues --   -0.69059  -0.67873  -0.67279  -0.65294  -0.63584
 Alpha  occ. eigenvalues --   -0.62465  -0.61700  -0.61655  -0.61097  -0.60180
 Alpha  occ. eigenvalues --   -0.59633  -0.59219  -0.58558  -0.57615  -0.55662
 Alpha  occ. eigenvalues --   -0.55075  -0.55010  -0.54551  -0.54217  -0.53866
 Alpha  occ. eigenvalues --   -0.53750  -0.53152  -0.52461  -0.51719  -0.50796
 Alpha  occ. eigenvalues --   -0.50438  -0.50377  -0.49694  -0.49299  -0.48940
 Alpha  occ. eigenvalues --   -0.48490  -0.48091  -0.47620  -0.47475  -0.47431
 Alpha  occ. eigenvalues --   -0.47209  -0.46723  -0.46478  -0.46246  -0.46019
 Alpha  occ. eigenvalues --   -0.45585  -0.45258  -0.45123  -0.44853  -0.44761
 Alpha  occ. eigenvalues --   -0.44664  -0.44197  -0.44025  -0.43929  -0.43639
 Alpha  occ. eigenvalues --   -0.43423  -0.43248  -0.42794  -0.42196  -0.41516
 Alpha  occ. eigenvalues --   -0.41428  -0.40997  -0.40639  -0.40615  -0.40145
 Alpha  occ. eigenvalues --   -0.39969  -0.39605  -0.39399  -0.39069  -0.38904
 Alpha  occ. eigenvalues --   -0.38664  -0.38440  -0.38323  -0.38279  -0.38168
 Alpha  occ. eigenvalues --   -0.37804  -0.36301  -0.36075  -0.36021  -0.35858
 Alpha  occ. eigenvalues --   -0.35299  -0.33870  -0.33372  -0.32155  -0.31959
 Alpha  occ. eigenvalues --   -0.31871  -0.29530  -0.28859  -0.26973  -0.23878
 Alpha  occ. eigenvalues --   -0.19063
 Alpha virt. eigenvalues --   -0.06225  -0.00778   0.02854   0.06245   0.07208
 Alpha virt. eigenvalues --    0.09754   0.10457   0.11122   0.11648   0.12080
 Alpha virt. eigenvalues --    0.12224   0.13249   0.13370   0.13511   0.13684

 Mulliken charges:
               1
     1  O   -0.532055
     2  O   -0.515263
     3  C    0.047182
     4  C   -0.162590
     5  C   -0.178727
     6  C    0.138828
     7  C    0.116854
     8  C   -0.020550
     9  C   -0.315868
    10  C   -0.286990
    11  C   -0.226355
    12  C   -0.149667
    13  C    0.204183
    14  C    0.057743
    15  C   -0.088048
    16  C   -0.204381
    17  C    0.051905
    18  C   -0.307013
    19  C   -0.257167
    20  C   -0.338168
    21  C   -0.063172
    22  C   -0.116110
    23  C   -0.356155
    24  C    0.102593
    25  C   -0.115937
    26  C   -0.371068
    27  C    0.084114
    28  C   -0.124716
    29  C   -0.358011
    30  C   -0.129390
    31  C   -0.054740
    32  C   -0.087929
    33  C   -0.131168
    34  C    0.078655
    35  C   -0.097737
    36  C    0.095769
    37  C   -0.361591
    38  C   -0.118243
    39  C   -0.120456
    40  C   -0.384953
    41  C   -0.059461
    42  C   -0.081437
    43  H    0.074363
    44  H    0.095714
    45  H    0.085858
    46  H    0.090405
    47  H    0.096087
    48  H    0.102342
    49  H    0.095425
    50  H    0.105141
    51  H    0.080821
    52  H    0.089729
    53  H    0.098977
    54  H    0.054164
    55  H    0.062995
    56  H    0.073638
    57  H    0.081696
    58  H    0.070574
    59  H    0.126660
    60  H    0.092644
    61  H    0.115306
    62  H    0.093066
    63  H    0.056605
    64  H    0.117073
    65  H    0.100722
    66  H    0.131750
    67  H    0.107136
    68  H    0.114247
    69  H    0.297062
    70  H    0.080744
    71  H    0.076668
    72  H    0.095608
    73  H    0.124456
    74  H    0.099067
    75  H    0.296200
    76  H    0.077629
    77  H    0.130775
    78  H    0.093763
    79  H    0.130347
    80  H    0.100194
    81  H    0.118895
    82  H    0.120075
    83  H    0.117547
    84  H    0.096104
    85  H    0.084310
    86  H    0.068041
    87  H    0.080312
    88  H    0.080160
    89  H    0.088496
    90  H    0.131133
    91  H    0.102261
    92  H    0.060624
    93  H    0.067952
    94  H    0.118578
    95  H    0.106523
    96  H    0.136255
    97  H    0.076141
    98  H    0.068240
 Sum of Mulliken charges =  -0.00000

 Dipole moment (field-independent basis, Debye):
    X=             -0.2765    Y=             -0.4391    Z=             -0.2952  Tot=              0.5970
 Quadrupole moment (field-independent basis, Debye-Ang):
   XX=           -272.4924   YY=           -243.4363   ZZ=           -264.9493
   XY=             18.5996   XZ=             35.0222   YZ=              1.8337

 Normal termination of Gaussian 16 at Sun Jul 14 08:03:15 2019.
