 Gaussian 16, Revision A.03,
 Gaussian 16:  ES64L-G16RevA.03 25-Dec-2016

 -------------------------------------
 # td=(NStates=1) CAM-B3LYP/6-31G(d,p)
 -------------------------------------

 --
 TD
 --
 Symbolic Z-matrix:
 Charge =  0 Multiplicity = 1

                         Standard orientation:
 ---------------------------------------------------------------------
 Center     Atomic      Atomic             Coordinates (Angstroms)
 Number     Number       Type             X           Y           Z
 ---------------------------------------------------------------------
      1          8           0      -14.123616   -1.912502    0.600483
      2          8           0       14.712056    0.993427   -0.020369
      3          6           0      -11.670114   -0.052840    1.341424
      4          6           0      -10.951552    0.324146    0.077126
      5          6           0      -11.951176   -1.537295    1.460628
      6          6           0      -12.756301   -1.998911    0.224752
      7          6           0      -11.546773   -0.279915   -1.229077
      8          6           0       11.136001    0.946633    1.134493
      9          6           0      -10.897738    0.490322    2.547656
     10          6           0      -12.952548    0.964642    1.289141
     11          6           0       12.424580    1.558256    0.833718
     12          6           0      -12.390625   -1.376052   -1.053847
     13          6           0       13.473661    0.499829    0.323762
     14          6           0       10.639790   -0.021129   -0.033427
     15          6           0       -9.536619   -0.114881    0.064632
     16          6           0       12.917678   -0.075146   -0.981222
     17          6           0       11.535960   -0.485190   -0.904144
     18          6           0       10.208174    2.123671    1.265702
     19          6           0       11.038275    0.198718    2.466714
     20          6           0      -11.136730    0.216371   -2.585148
     21          6           0       -8.491753    0.737708   -0.236716
     22          6           0        9.226302   -0.462725    0.002246
     23          6           0       11.055004   -1.282915   -2.155508
     24          6           0       -7.087140    0.390555   -0.231285
     25          6           0        8.759369   -1.692922   -0.060917
     26          6           0       -6.626793   -0.961077   -0.152669
     27          6           0        7.434560   -2.202504    0.038220
     28          6           0       -6.177138    1.480685   -0.398130
     29          6           0        7.163031   -3.623027    0.239902
     30          6           0        6.321936   -1.324771   -0.039467
     31          6           0       -4.763675    1.430492   -0.532252
     32          6           0        4.949983   -1.596756    0.050448
     33          6           0       -3.931898    2.568216   -0.631275
     34          6           0       -2.507750    2.582672   -0.671696
     35          6           0        3.931617   -0.631093   -0.192982
     36          6           0        2.567600   -0.855356   -0.277036
     37          6           0       -1.905565    3.926589   -0.684275
     38          6           0       -1.796334    1.394274   -0.591612
     39          6           0        1.729736    0.271696   -0.414867
     40          6           0        1.952474   -2.213116   -0.056439
     41          6           0       -0.433061    1.432777   -0.553601
     42          6           0        0.296718    0.284347   -0.340635
     43          1           0      -10.975098    1.277792   -0.098423
     44          1           0      -12.446319   -1.879359    2.422855
     45          1           0      -10.898374   -1.961972    1.559453
     46          1           0      -12.381744   -3.021911    0.212792
     47          1           0       -9.961974   -0.135624    2.647809
     48          1           0      -10.681647    1.478622    2.365037
     49          1           0      -11.548055    0.396726    3.528983
     50          1           0      -13.574725    0.788097    0.422216
     51          1           0      -13.520791    0.916374    2.198860
     52          1           0      -12.875307    2.097095    1.310070
     53          1           0       12.401952    2.317873   -0.016706
     54          1           0       12.680221    1.992942    1.796623
     55          1           0      -12.822073   -1.887522   -2.037791
     56          1           0       13.565164   -0.348412    0.908027
     57          1           0       -9.190912   -1.177953    0.075183
     58          1           0       13.603671   -0.781057   -1.164851
     59          1           0       12.946744    0.763197   -1.849165
     60          1           0        9.128319    2.080625    1.486964
     61          1           0       10.062185    2.618299    0.251638
     62          1           0       10.548873    3.066716    1.819596
     63          1           0       12.026606   -0.486805    2.612085
     64          1           0       10.122555   -0.339653    2.599505
     65          1           0       11.259327    0.958037    3.326361
     66          1           0      -10.005970    0.508833   -2.531080
     67          1           0      -11.403737    1.249091   -2.857971
     68          1           0      -11.616952   -0.334221   -3.383689
     69          1           0      -14.535667   -1.694143   -0.260639
     70          1           0        8.750384    0.503018    0.174885
     71          1           0       -8.710344    1.799057   -0.336745
     72          1           0       11.371013   -2.261997   -2.083854
     73          1           0        9.891999   -1.105934   -2.225158
     74          1           0       11.662158   -0.942596   -2.985585
     75          1           0       15.158011    1.216386    0.733509
     76          1           0        9.502649   -2.462973   -0.054933
     77          1           0       -5.431309   -0.940809    0.201500
     78          1           0       -7.260989   -1.555160    0.677729
     79          1           0       -6.959889   -1.477113   -0.956996
     80          1           0       -6.582324    2.425788   -0.590534
     81          1           0        6.949884   -3.735145    1.300228
     82          1           0        6.395183   -4.221961   -0.502000
     83          1           0        8.166812   -3.996311    0.005390
     84          1           0        6.643145   -0.154756   -0.057913
     85          1           0       -4.326058    0.421192   -0.458312
     86          1           0        4.608311   -2.646054    0.092462
     87          1           0       -4.486408    3.431472   -0.707665
     88          1           0        4.501093    0.229413   -0.436308
     89          1           0       -1.157114    3.865724   -1.361181
     90          1           0       -1.419511    4.161108    0.127774
     91          1           0       -2.516952    4.632912   -0.889952
     92          1           0       -2.266617    0.293776   -0.678227
     93          1           0        2.228759    1.216857   -0.376666
     94          1           0        2.276689   -2.507696    0.786099
     95          1           0        0.752535   -2.285302    0.064612
     96          1           0        2.219987   -2.897538   -0.870798
     97          1           0        0.034636    2.275500   -0.592731
     98          1           0       -0.116510   -0.599824   -0.097305
 ---------------------------------------------------------------------

 SCF Done:  E(RCAM-B3LYP) =  -1706.96370507     A.U. after   15 cycles

 Excitation energies and oscillator strengths:

 Excited State   1:      Singlet-A      1.9311 eV  642.05 nm  f=3.1348  <S**2>=0.000
     155 ->158         0.14694
     156 ->157         0.69426
 This state for optimization and/or second-order correction.
 Total Energy, E(TD-HF/TD-DFT) =  -1706.89273988
 Copying the excited state density for this state as the 1-particle RhoCI density.

 The electronic state is 1-A.
 Alpha  occ. eigenvalues --  -19.21468 -19.20794 -10.30315 -10.29197 -10.28614
 Alpha  occ. eigenvalues --  -10.27728 -10.27256 -10.27194 -10.27068 -10.27052
 Alpha  occ. eigenvalues --  -10.26921 -10.26802 -10.26707 -10.26672 -10.26631
 Alpha  occ. eigenvalues --  -10.26447 -10.26368 -10.26319 -10.26246 -10.26011
 Alpha  occ. eigenvalues --  -10.25948 -10.25919 -10.25917 -10.25872 -10.25862
 Alpha  occ. eigenvalues --  -10.25843 -10.25699 -10.25694 -10.25437 -10.25246
 Alpha  occ. eigenvalues --  -10.25223 -10.25125 -10.25099 -10.24917 -10.24871
 Alpha  occ. eigenvalues --  -10.24856 -10.24645 -10.24299 -10.24013 -10.23935
 Alpha  occ. eigenvalues --  -10.23651 -10.22372  -1.12068  -1.09702  -0.94394
 Alpha  occ. eigenvalues --   -0.93859  -0.92899  -0.91545  -0.91046  -0.90357
 Alpha  occ. eigenvalues --   -0.87706  -0.87442  -0.86481  -0.85578  -0.85114
 Alpha  occ. eigenvalues --   -0.83706  -0.82833  -0.80875  -0.80063  -0.79563
 Alpha  occ. eigenvalues --   -0.77563  -0.77098  -0.76223  -0.75689  -0.75502
 Alpha  occ. eigenvalues --   -0.75361  -0.75241  -0.74496  -0.72688  -0.70593
 Alpha  occ. eigenvalues --   -0.69618  -0.68232  -0.66974  -0.65591  -0.64133
 Alpha  occ. eigenvalues --   -0.63698  -0.63369  -0.62866  -0.61365  -0.60078
 Alpha  occ. eigenvalues --   -0.59988  -0.59493  -0.58622  -0.57867  -0.56795
 Alpha  occ. eigenvalues --   -0.56482  -0.55686  -0.55150  -0.54412  -0.53864
 Alpha  occ. eigenvalues --   -0.53346  -0.52978  -0.52736  -0.51778  -0.51486
 Alpha  occ. eigenvalues --   -0.51058  -0.50533  -0.50378  -0.49901  -0.49770
 Alpha  occ. eigenvalues --   -0.49476  -0.49361  -0.48837  -0.48618  -0.48258
 Alpha  occ. eigenvalues --   -0.48082  -0.47914  -0.47651  -0.47321  -0.47235
 Alpha  occ. eigenvalues --   -0.46136  -0.45900  -0.45489  -0.45277  -0.45054
 Alpha  occ. eigenvalues --   -0.44514  -0.44368  -0.43691  -0.43418  -0.43321
 Alpha  occ. eigenvalues --   -0.43239  -0.42950  -0.42860  -0.42216  -0.41835
 Alpha  occ. eigenvalues --   -0.41673  -0.41494  -0.41297  -0.41094  -0.40956
 Alpha  occ. eigenvalues --   -0.40867  -0.40607  -0.40210  -0.39858  -0.39765
 Alpha  occ. eigenvalues --   -0.39603  -0.38886  -0.38769  -0.38567  -0.37703
 Alpha  occ. eigenvalues --   -0.37463  -0.37224  -0.37025  -0.36715  -0.36040
 Alpha  occ. eigenvalues --   -0.34699  -0.34076  -0.33513  -0.32130  -0.31616
 Alpha  occ. eigenvalues --   -0.31484  -0.29082  -0.28626  -0.26775  -0.22945
 Alpha  occ. eigenvalues --   -0.18474
 Alpha virt. eigenvalues --   -0.06303  -0.01487   0.02874   0.04921   0.07262
 Alpha virt. eigenvalues --    0.09483   0.11159   0.11525   0.12603   0.13158
 Alpha virt. eigenvalues --    0.13222   0.13627   0.14058   0.14325   0.14570

 Mulliken charges:
               1
     1  O   -0.535923
     2  O   -0.533714
     3  C    0.017150
     4  C   -0.093766
     5  C   -0.182548
     6  C    0.165497
     7  C    0.132581
     8  C    0.023124
     9  C   -0.282925
    10  C   -0.320356
    11  C   -0.189527
    12  C   -0.197272
    13  C    0.145249
    14  C    0.017517
    15  C   -0.091850
    16  C   -0.212290
    17  C    0.046102
    18  C   -0.332857
    19  C   -0.283035
    20  C   -0.377499
    21  C   -0.104062
    22  C   -0.109571
    23  C   -0.356557
    24  C    0.130295
    25  C   -0.093404
    26  C   -0.378509
    27  C    0.085346
    28  C   -0.129173
    29  C   -0.368653
    30  C   -0.115479
    31  C   -0.055805
    32  C   -0.103416
    33  C   -0.133422
    34  C    0.065749
    35  C   -0.104423
    36  C    0.088054
    37  C   -0.352345
    38  C   -0.106607
    39  C   -0.124500
    40  C   -0.363523
    41  C   -0.040588
    42  C   -0.075515
    43  H    0.095243
    44  H    0.114103
    45  H    0.084989
    46  H    0.088281
    47  H    0.088991
    48  H    0.107703
    49  H    0.085891
    50  H    0.097694
    51  H    0.101384
    52  H    0.081917
    53  H    0.104409
    54  H    0.079748
    55  H    0.068448
    56  H    0.082187
    57  H    0.082977
    58  H    0.111901
    59  H    0.097798
    60  H    0.104166
    61  H    0.090967
    62  H    0.095415
    63  H    0.070633
    64  H    0.125965
    65  H    0.084375
    66  H    0.120702
    67  H    0.116653
    68  H    0.123614
    69  H    0.305374
    70  H    0.086506
    71  H    0.076193
    72  H    0.116080
    73  H    0.116075
    74  H    0.100427
    75  H    0.293997
    76  H    0.084748
    77  H    0.102880
    78  H    0.093304
    79  H    0.147119
    80  H    0.072417
    81  H    0.136687
    82  H    0.105157
    83  H    0.103078
    84  H    0.061614
    85  H    0.066855
    86  H    0.074403
    87  H    0.071876
    88  H    0.085342
    89  H    0.128088
    90  H    0.138162
    91  H    0.112987
    92  H    0.086473
    93  H    0.078370
    94  H    0.142388
    95  H    0.091158
    96  H    0.122977
    97  H    0.062672
    98  H    0.062889
 Sum of Mulliken charges =  -0.00000

 Dipole moment (field-independent basis, Debye):
    X=             -0.3908    Y=              0.9013    Z=             -0.2383  Tot=              1.0108
 Quadrupole moment (field-independent basis, Debye-Ang):
   XX=           -274.5433   YY=           -244.4010   ZZ=           -263.6023
   XY=            -11.2846   XZ=             45.2672   YZ=              1.6602

 Normal termination of Gaussian 16 at Tue Jul 16 08:44:48 2019.
