 Gaussian 16, Revision A.03,
 Gaussian 16:  ES64L-G16RevA.03 25-Dec-2016

 -------------------------------------
 # td=(NStates=1) CAM-B3LYP/6-31G(d,p)
 -------------------------------------

 --
 TD
 --
 Symbolic Z-matrix:
 Charge =  0 Multiplicity = 1

                         Standard orientation:
 ---------------------------------------------------------------------
 Center     Atomic      Atomic             Coordinates (Angstroms)
 Number     Number       Type             X           Y           Z
 ---------------------------------------------------------------------
      1          8           0      -14.133324   -1.924720    0.552078
      2          8           0       14.798772    1.035534    0.392873
      3          6           0      -11.788726    0.081249    1.373664
      4          6           0      -10.923259    0.327347    0.016853
      5          6           0      -12.067048   -1.393162    1.546351
      6          6           0      -12.726195   -2.052469    0.369821
      7          6           0      -11.470388   -0.417732   -1.087067
      8          6           0       11.078979    0.925793    1.166473
      9          6           0      -11.060278    0.642240    2.603509
     10          6           0      -13.077465    0.798388    1.156151
     11          6           0       12.552679    1.446069    0.987313
     12          6           0      -12.282538   -1.460019   -0.899889
     13          6           0       13.517425    0.470368    0.592500
     14          6           0       10.727350   -0.016304    0.073777
     15          6           0       -9.424667    0.046991    0.227740
     16          6           0       13.031213   -0.037112   -0.776288
     17          6           0       11.671838   -0.436165   -0.831745
     18          6           0       10.177535    2.146584    1.196276
     19          6           0       10.913874    0.288156    2.514424
     20          6           0      -11.013647    0.025217   -2.477585
     21          6           0       -8.425480    0.852260   -0.071436
     22          6           0        9.304163   -0.547017    0.278600
     23          6           0       11.178263   -1.182428   -2.117244
     24          6           0       -7.069493    0.496816   -0.073567
     25          6           0        8.850222   -1.778781   -0.176158
     26          6           0       -6.497876   -0.900284    0.306582
     27          6           0        7.326576   -2.223080   -0.196390
     28          6           0       -6.229402    1.442639   -0.473376
     29          6           0        7.152678   -3.708216   -0.107764
     30          6           0        6.346060   -1.257372   -0.392055
     31          6           0       -4.724614    1.443374   -0.564151
     32          6           0        4.885177   -1.466528   -0.233291
     33          6           0       -4.058817    2.637140   -0.782073
     34          6           0       -2.577855    2.533306   -0.857101
     35          6           0        3.883877   -0.612994   -0.368199
     36          6           0        2.479176   -0.859079   -0.386613
     37          6           0       -2.023172    3.889308   -1.158628
     38          6           0       -1.798243    1.460032   -0.625935
     39          6           0        1.682690    0.114154   -0.593026
     40          6           0        2.052561   -2.214583   -0.004996
     41          6           0       -0.388281    1.407541   -0.688091
     42          6           0        0.255190    0.264685   -0.524233
     43          1           0      -11.076965    1.199018   -0.495421
     44          1           0      -12.724939   -1.672608    2.374731
     45          1           0      -11.078307   -2.014174    1.737710
     46          1           0      -12.713282   -3.197261    0.265196
     47          1           0       -9.956309    0.019088    3.011241
     48          1           0      -10.812829    1.559586    2.316240
     49          1           0      -11.866965    0.616230    3.420347
     50          1           0      -13.581604    0.545736    0.105308
     51          1           0      -13.757543    0.431129    1.993029
     52          1           0      -13.075564    1.937264    1.178169
     53          1           0       12.549746    2.201336    0.202351
     54          1           0       12.759593    1.905679    1.991341
     55          1           0      -12.864752   -1.840866   -1.849389
     56          1           0       13.699216   -0.454605    1.247668
     57          1           0       -9.090322   -1.031393    0.502255
     58          1           0       13.757142   -0.949391   -1.309700
     59          1           0       13.119999    0.786275   -1.608059
     60          1           0        9.099766    1.766793    1.502703
     61          1           0       10.202772    2.623152    0.206476
     62          1           0       10.554711    2.863560    1.887625
     63          1           0       11.580969   -0.433160    2.808799
     64          1           0        9.790355    0.004157    2.628512
     65          1           0       11.051508    1.114692    3.318632
     66          1           0       -9.942929   -0.034428   -2.518125
     67          1           0      -11.422797    1.147677   -2.749843
     68          1           0      -11.173597   -0.736831   -3.060426
     69          1           0      -14.391560   -1.926920   -0.401829
     70          1           0        8.645183    0.201608    0.821873
     71          1           0       -8.833815    1.970127   -0.393408
     72          1           0       11.539573   -2.244354   -2.046554
     73          1           0       10.180061   -1.076329   -2.177868
     74          1           0       11.650690   -0.521365   -2.865351
     75          1           0       15.205143    1.150540    1.256289
     76          1           0        9.421366   -2.571144   -0.515364
     77          1           0       -5.515446   -0.902487    0.237043
     78          1           0       -6.951804   -1.127447    1.261968
     79          1           0       -6.902033   -1.693325   -0.241428
     80          1           0       -6.665568    2.455204   -0.736196
     81          1           0        7.043115   -3.880922    0.962975
     82          1           0        6.266924   -4.014029   -0.665126
     83          1           0        8.043231   -4.045102   -0.499116
     84          1           0        6.510247   -0.220404   -0.764855
     85          1           0       -4.091463    0.571870   -0.308103
     86          1           0        4.590676   -2.594435   -0.001542
     87          1           0       -4.531670    3.577350   -0.898506
     88          1           0        4.088792    0.359879   -0.480674
     89          1           0       -1.233002    3.986277   -2.034314
     90          1           0       -1.562164    4.250178   -0.101028
     91          1           0       -2.902988    4.488160   -1.512498
     92          1           0       -2.410499    0.582292   -0.625175
     93          1           0        2.121696    1.055914   -0.850833
     94          1           0        2.128074   -2.388163    1.201312
     95          1           0        0.973356   -2.387567   -0.337951
     96          1           0        2.524561   -3.116021   -0.631502
     97          1           0        0.356279    2.381164   -0.862159
     98          1           0       -0.288110   -0.621736   -0.115863
 ---------------------------------------------------------------------

 SCF Done:  E(RCAM-B3LYP) =  -1706.97333818     A.U. after   14 cycles

 Excitation energies and oscillator strengths:

 Excited State   1:      Singlet-A      2.8875 eV  429.38 nm  f=2.7888  <S**2>=0.000
     155 ->158         0.19174
     156 ->157         0.66737
 This state for optimization and/or second-order correction.
 Total Energy, E(TD-HF/TD-DFT) =  -1706.86722423
 Copying the excited state density for this state as the 1-particle RhoCI density.

 The electronic state is 1-A.
 Alpha  occ. eigenvalues --  -19.21026 -19.20424 -10.30881 -10.30251 -10.27818
 Alpha  occ. eigenvalues --  -10.27572 -10.27357 -10.27285 -10.27258 -10.27196
 Alpha  occ. eigenvalues --  -10.27140 -10.27047 -10.26907 -10.26832 -10.26806
 Alpha  occ. eigenvalues --  -10.26759 -10.26683 -10.26516 -10.26467 -10.26449
 Alpha  occ. eigenvalues --  -10.26430 -10.26190 -10.26139 -10.26049 -10.26007
 Alpha  occ. eigenvalues --  -10.25842 -10.25635 -10.25567 -10.25543 -10.25487
 Alpha  occ. eigenvalues --  -10.25363 -10.25316 -10.25075 -10.25011 -10.24961
 Alpha  occ. eigenvalues --  -10.24951 -10.24830 -10.24730 -10.24560 -10.24554
 Alpha  occ. eigenvalues --  -10.24272 -10.23839  -1.10048  -1.09502  -0.94698
 Alpha  occ. eigenvalues --   -0.94403  -0.92781  -0.92029  -0.90980  -0.89041
 Alpha  occ. eigenvalues --   -0.87936  -0.87750  -0.87205  -0.85111  -0.84749
 Alpha  occ. eigenvalues --   -0.83292  -0.82183  -0.80960  -0.80281  -0.78335
 Alpha  occ. eigenvalues --   -0.77833  -0.76898  -0.76208  -0.75886  -0.75722
 Alpha  occ. eigenvalues --   -0.75586  -0.74830  -0.74520  -0.73968  -0.69369
 Alpha  occ. eigenvalues --   -0.68846  -0.67514  -0.66710  -0.64687  -0.63522
 Alpha  occ. eigenvalues --   -0.63279  -0.62152  -0.61618  -0.60151  -0.59283
 Alpha  occ. eigenvalues --   -0.59102  -0.58941  -0.57805  -0.56969  -0.56134
 Alpha  occ. eigenvalues --   -0.55936  -0.55064  -0.54701  -0.54483  -0.54109
 Alpha  occ. eigenvalues --   -0.53277  -0.53103  -0.52500  -0.52298  -0.51794
 Alpha  occ. eigenvalues --   -0.51062  -0.50115  -0.49965  -0.49601  -0.49370
 Alpha  occ. eigenvalues --   -0.49039  -0.48688  -0.48429  -0.48162  -0.47931
 Alpha  occ. eigenvalues --   -0.47588  -0.47305  -0.47134  -0.46826  -0.46400
 Alpha  occ. eigenvalues --   -0.46384  -0.45671  -0.45397  -0.45290  -0.45116
 Alpha  occ. eigenvalues --   -0.44786  -0.44564  -0.44318  -0.44018  -0.43870
 Alpha  occ. eigenvalues --   -0.43315  -0.43000  -0.42680  -0.42282  -0.41967
 Alpha  occ. eigenvalues --   -0.41701  -0.41373  -0.40968  -0.40359  -0.40193
 Alpha  occ. eigenvalues --   -0.40048  -0.39920  -0.39760  -0.39534  -0.39257
 Alpha  occ. eigenvalues --   -0.39037  -0.38875  -0.38624  -0.38252  -0.38082
 Alpha  occ. eigenvalues --   -0.37486  -0.37234  -0.36980  -0.36187  -0.35977
 Alpha  occ. eigenvalues --   -0.35002  -0.34538  -0.33657  -0.32784  -0.31951
 Alpha  occ. eigenvalues --   -0.31539  -0.29474  -0.28488  -0.26506  -0.24130
 Alpha  occ. eigenvalues --   -0.21241
 Alpha virt. eigenvalues --   -0.03504  -0.00351   0.03017   0.05260   0.06874
 Alpha virt. eigenvalues --    0.09159   0.11459   0.11630   0.11925   0.12189
 Alpha virt. eigenvalues --    0.12608   0.12806   0.13133   0.13690   0.13784

 Mulliken charges:
               1
     1  O   -0.546092
     2  O   -0.555132
     3  C    0.016550
     4  C   -0.119803
     5  C   -0.170564
     6  C    0.146375
     7  C    0.082891
     8  C   -0.057958
     9  C   -0.264960
    10  C   -0.288687
    11  C   -0.180792
    12  C   -0.149059
    13  C    0.174156
    14  C    0.106508
    15  C   -0.095320
    16  C   -0.233556
    17  C    0.033672
    18  C   -0.283867
    19  C   -0.274106
    20  C   -0.341432
    21  C   -0.077499
    22  C   -0.107377
    23  C   -0.337352
    24  C    0.117715
    25  C   -0.123119
    26  C   -0.354601
    27  C    0.029283
    28  C   -0.150299
    29  C   -0.350433
    30  C   -0.113851
    31  C   -0.087594
    32  C   -0.101513
    33  C   -0.101196
    34  C    0.076584
    35  C   -0.092728
    36  C    0.177188
    37  C   -0.361743
    38  C   -0.117243
    39  C   -0.147550
    40  C   -0.379122
    41  C   -0.077255
    42  C   -0.069798
    43  H    0.090978
    44  H    0.118278
    45  H    0.078341
    46  H    0.081781
    47  H    0.061018
    48  H    0.116716
    49  H    0.093369
    50  H    0.095135
    51  H    0.102979
    52  H    0.084790
    53  H    0.108026
    54  H    0.074339
    55  H    0.052552
    56  H    0.076104
    57  H    0.071255
    58  H    0.076501
    59  H    0.112008
    60  H    0.082287
    61  H    0.102271
    62  H    0.107505
    63  H    0.107411
    64  H    0.094874
    65  H    0.074209
    66  H    0.130387
    67  H    0.099675
    68  H    0.118123
    69  H    0.296460
    70  H    0.092526
    71  H    0.070200
    72  H    0.108871
    73  H    0.133902
    74  H    0.102333
    75  H    0.303534
    76  H    0.086059
    77  H    0.115463
    78  H    0.122420
    79  H    0.126900
    80  H    0.075763
    81  H    0.135670
    82  H    0.123036
    83  H    0.118077
    84  H    0.085071
    85  H    0.095057
    86  H    0.058769
    87  H    0.100080
    88  H    0.060742
    89  H    0.106083
    90  H    0.112873
    91  H    0.099417
    92  H    0.074275
    93  H    0.064764
    94  H    0.108721
    95  H    0.098260
    96  H    0.102560
    97  H    0.083024
    98  H    0.078857
 Sum of Mulliken charges =  -0.00000

 Dipole moment (field-independent basis, Debye):
    X=              0.6308    Y=             -0.1571    Z=             -0.2961  Tot=              0.7143
 Quadrupole moment (field-independent basis, Debye-Ang):
   XX=           -276.1279   YY=           -248.2745   ZZ=           -261.0701
   XY=             -9.5832   XZ=             41.8054   YZ=              1.1973

 Normal termination of Gaussian 16 at Mon Jul 15 03:05:25 2019.
