 Gaussian 16, Revision A.03,
 Gaussian 16:  ES64L-G16RevA.03 25-Dec-2016

 -------------------------------------
 # td=(NStates=1) CAM-B3LYP/6-31G(d,p)
 -------------------------------------

 --
 TD
 --
 Symbolic Z-matrix:
 Charge =  0 Multiplicity = 1

                         Standard orientation:
 ---------------------------------------------------------------------
 Center     Atomic      Atomic             Coordinates (Angstroms)
 Number     Number       Type             X           Y           Z
 ---------------------------------------------------------------------
      1          8           0      -14.189035   -1.767050    0.560041
      2          8           0       14.772662    0.924571    0.444173
      3          6           0      -11.799311    0.052060    1.306683
      4          6           0      -10.949782    0.352882    0.039335
      5          6           0      -11.997033   -1.513853    1.518779
      6          6           0      -12.718362   -2.123067    0.384932
      7          6           0      -11.580131   -0.436574   -1.068827
      8          6           0       11.061590    1.003237    1.196990
      9          6           0      -11.010868    0.544830    2.584959
     10          6           0      -13.087529    0.815520    1.284279
     11          6           0       12.431660    1.544280    0.807141
     12          6           0      -12.232136   -1.622904   -0.925098
     13          6           0       13.496291    0.390008    0.543901
     14          6           0       10.606857    0.099154    0.012034
     15          6           0       -9.508276    0.047099    0.126548
     16          6           0       13.059282   -0.199204   -0.737654
     17          6           0       11.583198   -0.456201   -0.835730
     18          6           0       10.102572    2.397904    1.286093
     19          6           0       10.908845    0.247510    2.539224
     20          6           0      -11.199851    0.034650   -2.517464
     21          6           0       -8.538532    0.935023   -0.004253
     22          6           0        9.318482   -0.396947    0.146359
     23          6           0       11.237017   -1.322719   -1.906196
     24          6           0       -7.095694    0.482144   -0.071089
     25          6           0        8.840423   -1.734280   -0.084546
     26          6           0       -6.740712   -0.848771    0.413445
     27          6           0        7.473716   -2.106015   -0.087545
     28          6           0       -6.321108    1.416338   -0.324775
     29          6           0        7.281859   -3.624989   -0.067888
     30          6           0        6.432531   -1.185717   -0.246359
     31          6           0       -4.834612    1.429918   -0.386356
     32          6           0        5.062218   -1.503300   -0.229963
     33          6           0       -4.073682    2.436842   -0.822649
     34          6           0       -2.681975    2.516807   -0.929163
     35          6           0        4.066326   -0.599720   -0.481411
     36          6           0        2.642536   -0.845869   -0.470108
     37          6           0       -1.950941    3.808105   -1.234560
     38          6           0       -1.746661    1.413132   -0.708847
     39          6           0        1.760404    0.169072   -0.669951
     40          6           0        2.146323   -2.260555   -0.145039
     41          6           0       -0.303173    1.449291   -0.909667
     42          6           0        0.385042    0.241342   -0.692159
     43          1           0      -10.932431    1.470069   -0.158945
     44          1           0      -12.576801   -1.720938    2.473517
     45          1           0      -11.095650   -2.055586    1.649838
     46          1           0      -12.502909   -3.227525    0.626667
     47          1           0      -10.153613    0.038364    2.708520
     48          1           0      -10.522954    1.702203    2.568581
     49          1           0      -11.559192    0.564045    3.498737
     50          1           0      -13.573708    0.713886    0.315002
     51          1           0      -13.649703    0.622729    2.195632
     52          1           0      -12.870783    2.011258    1.314429
     53          1           0       12.565505    2.288394    0.086760
     54          1           0       12.916931    2.146973    1.840342
     55          1           0      -12.829209   -2.038060   -1.796876
     56          1           0       13.476176   -0.467658    1.200353
     57          1           0       -9.134227   -0.935653    0.230151
     58          1           0       13.663380   -1.176174   -1.011934
     59          1           0       13.137714    0.397202   -1.724246
     60          1           0        8.973270    2.060667    1.464441
     61          1           0        9.764820    2.862416    0.460210
     62          1           0       10.636957    3.131629    2.027276
     63          1           0       11.617033   -0.599121    2.667603
     64          1           0        9.847303   -0.003040    2.480171
     65          1           0       11.193770    0.892888    3.263973
     66          1           0      -10.080771    0.354251   -2.494906
     67          1           0      -11.810164    0.946319   -2.560545
     68          1           0      -11.579982   -0.592878   -3.438030
     69          1           0      -14.455634   -1.829228   -0.450783
     70          1           0        8.480706    0.115452    0.313238
     71          1           0       -8.681942    1.930709   -0.206420
     72          1           0       11.360531   -2.513482   -1.534645
     73          1           0       10.223376   -1.353764   -1.954095
     74          1           0       11.935677   -1.187399   -2.800066
     75          1           0       14.826124    1.597022    1.323710
     76          1           0        9.493795   -2.414299   -0.113798
     77          1           0       -5.623610   -1.061778    0.159174
     78          1           0       -7.127383   -1.032845    1.565195
     79          1           0       -7.256588   -1.753491   -0.168497
     80          1           0       -6.673148    2.330589   -0.624202
     81          1           0        7.017920   -3.685662    1.010342
     82          1           0        6.693898   -4.014324   -0.795910
     83          1           0        8.131586   -4.199536   -0.204278
     84          1           0        6.645920   -0.082789   -0.377879
     85          1           0       -4.492054    0.549147    0.075650
     86          1           0        4.560082   -2.452949    0.013859
     87          1           0       -4.388481    3.533867   -1.269695
     88          1           0        4.345298    0.435168   -0.820477
     89          1           0       -1.458720    3.747749   -2.193509
     90          1           0       -1.411856    4.347045   -0.479276
     91          1           0       -2.770874    4.640557   -1.409542
     92          1           0       -2.225258    0.375721   -0.624288
     93          1           0        2.102327    1.178685   -0.629775
     94          1           0        2.280465   -2.394602    0.988740
     95          1           0        0.995395   -2.260821   -0.372049
     96          1           0        2.745216   -2.923394   -0.799033
     97          1           0        0.242617    2.164878   -0.953915
     98          1           0       -0.265981   -0.711835   -0.388649
 ---------------------------------------------------------------------

 SCF Done:  E(RCAM-B3LYP) =  -1706.87766624     A.U. after   15 cycles

 Excitation energies and oscillator strengths:

 Excited State   1:      Singlet-A      2.1780 eV  569.27 nm  f=2.9789  <S**2>=0.000
     155 ->158        -0.17431
     156 ->157         0.68516
 This state for optimization and/or second-order correction.
 Total Energy, E(TD-HF/TD-DFT) =  -1706.79762804
 Copying the excited state density for this state as the 1-particle RhoCI density.

 The electronic state is 1-A.
 Alpha  occ. eigenvalues --  -19.22313 -19.21323 -10.30477 -10.30390 -10.28837
 Alpha  occ. eigenvalues --  -10.28456 -10.28266 -10.27795 -10.27523 -10.27456
 Alpha  occ. eigenvalues --  -10.27352 -10.27327 -10.27293 -10.27216 -10.27215
 Alpha  occ. eigenvalues --  -10.27184 -10.27068 -10.27056 -10.26907 -10.26768
 Alpha  occ. eigenvalues --  -10.26699 -10.26384 -10.26213 -10.26192 -10.26091
 Alpha  occ. eigenvalues --  -10.26079 -10.25865 -10.25725 -10.25688 -10.25623
 Alpha  occ. eigenvalues --  -10.25460 -10.25412 -10.25167 -10.25047 -10.24884
 Alpha  occ. eigenvalues --  -10.24882 -10.24803 -10.24767 -10.24392 -10.23946
 Alpha  occ. eigenvalues --  -10.23883 -10.23721  -1.08930  -1.05494  -0.94053
 Alpha  occ. eigenvalues --   -0.94033  -0.92510  -0.92135  -0.91010  -0.89892
 Alpha  occ. eigenvalues --   -0.87691  -0.87509  -0.86143  -0.85695  -0.85274
 Alpha  occ. eigenvalues --   -0.83607  -0.82497  -0.80854  -0.80669  -0.78058
 Alpha  occ. eigenvalues --   -0.77093  -0.76973  -0.76606  -0.75716  -0.75683
 Alpha  occ. eigenvalues --   -0.75276  -0.75191  -0.74630  -0.72830  -0.70723
 Alpha  occ. eigenvalues --   -0.69534  -0.67352  -0.66594  -0.66358  -0.63793
 Alpha  occ. eigenvalues --   -0.63497  -0.63172  -0.62385  -0.61068  -0.60290
 Alpha  occ. eigenvalues --   -0.60063  -0.58977  -0.58640  -0.57078  -0.56010
 Alpha  occ. eigenvalues --   -0.55604  -0.55207  -0.54627  -0.54221  -0.53565
 Alpha  occ. eigenvalues --   -0.53319  -0.52798  -0.52624  -0.52255  -0.51612
 Alpha  occ. eigenvalues --   -0.51047  -0.50944  -0.50330  -0.50210  -0.49419
 Alpha  occ. eigenvalues --   -0.49354  -0.49184  -0.48647  -0.48301  -0.48123
 Alpha  occ. eigenvalues --   -0.47539  -0.47295  -0.47260  -0.46647  -0.46492
 Alpha  occ. eigenvalues --   -0.46183  -0.45815  -0.45677  -0.45191  -0.44747
 Alpha  occ. eigenvalues --   -0.44385  -0.44209  -0.43952  -0.43692  -0.43450
 Alpha  occ. eigenvalues --   -0.43055  -0.42806  -0.42644  -0.42381  -0.42155
 Alpha  occ. eigenvalues --   -0.42036  -0.41341  -0.41141  -0.40955  -0.40718
 Alpha  occ. eigenvalues --   -0.40256  -0.39985  -0.39600  -0.39559  -0.39360
 Alpha  occ. eigenvalues --   -0.39160  -0.38956  -0.38776  -0.38611  -0.38045
 Alpha  occ. eigenvalues --   -0.37431  -0.36811  -0.36769  -0.36332  -0.36270
 Alpha  occ. eigenvalues --   -0.35791  -0.34712  -0.33809  -0.32086  -0.31395
 Alpha  occ. eigenvalues --   -0.31161  -0.29740  -0.28995  -0.27275  -0.23568
 Alpha  occ. eigenvalues --   -0.19645
 Alpha virt. eigenvalues --   -0.05861  -0.01550   0.02858   0.04534   0.06674
 Alpha virt. eigenvalues --    0.08459   0.08778   0.10769   0.11773   0.11831
 Alpha virt. eigenvalues --    0.12214   0.12421   0.12733   0.13386   0.13945

 Mulliken charges:
               1
     1  O   -0.550604
     2  O   -0.564889
     3  C    0.024833
     4  C   -0.142053
     5  C   -0.185101
     6  C    0.138945
     7  C    0.117468
     8  C   -0.014677
     9  C   -0.298148
    10  C   -0.254004
    11  C   -0.193138
    12  C   -0.162933
    13  C    0.203413
    14  C    0.074361
    15  C   -0.061034
    16  C   -0.223972
    17  C    0.075951
    18  C   -0.320555
    19  C   -0.279362
    20  C   -0.351382
    21  C   -0.084371
    22  C   -0.107954
    23  C   -0.355656
    24  C    0.160257
    25  C   -0.099641
    26  C   -0.386086
    27  C    0.056292
    28  C   -0.112178
    29  C   -0.360191
    30  C   -0.140718
    31  C   -0.109143
    32  C   -0.077271
    33  C   -0.079093
    34  C    0.065482
    35  C   -0.108231
    36  C    0.093484
    37  C   -0.380058
    38  C   -0.128400
    39  C   -0.132401
    40  C   -0.366867
    41  C   -0.030317
    42  C   -0.075796
    43  H    0.095182
    44  H    0.106815
    45  H    0.100734
    46  H    0.077037
    47  H    0.106675
    48  H    0.051600
    49  H    0.101402
    50  H    0.101207
    51  H    0.109649
    52  H    0.054505
    53  H    0.129680
    54  H    0.006405
    55  H    0.070294
    56  H    0.085022
    57  H    0.075759
    58  H    0.101601
    59  H    0.113547
    60  H    0.072261
    61  H    0.121076
    62  H    0.099450
    63  H    0.098852
    64  H    0.119761
    65  H    0.111231
    66  H    0.120744
    67  H    0.117920
    68  H    0.105105
    69  H    0.298276
    70  H    0.065766
    71  H    0.074813
    72  H    0.079199
    73  H    0.135713
    74  H    0.104818
    75  H    0.304122
    76  H    0.059070
    77  H    0.104090
    78  H    0.115595
    79  H    0.106792
    80  H    0.068971
    81  H    0.132602
    82  H    0.129495
    83  H    0.115615
    84  H    0.093668
    85  H    0.083943
    86  H    0.083163
    87  H    0.071086
    88  H    0.070876
    89  H    0.133665
    90  H    0.134879
    91  H    0.073562
    92  H    0.076796
    93  H    0.076569
    94  H    0.127327
    95  H    0.102842
    96  H    0.123519
    97  H    0.054696
    98  H    0.070698
 Sum of Mulliken charges =  -0.00000

 Dipole moment (field-independent basis, Debye):
    X=              2.4052    Y=             -0.5899    Z=             -0.4431  Tot=              2.5158
 Quadrupole moment (field-independent basis, Debye-Ang):
   XX=           -305.4582   YY=           -245.0416   ZZ=           -261.1911
   XY=             -1.6127   XZ=             32.3993   YZ=              0.5439

 Normal termination of Gaussian 16 at Mon Jul 15 11:19:38 2019.
