 Gaussian 16, Revision A.03,
 Gaussian 16:  ES64L-G16RevA.03 25-Dec-2016

 -------------------------------------
 # td=(NStates=1) CAM-B3LYP/6-31G(d,p)
 -------------------------------------

 --
 TD
 --
 Symbolic Z-matrix:
 Charge =  0 Multiplicity = 1

                         Standard orientation:
 ---------------------------------------------------------------------
 Center     Atomic      Atomic             Coordinates (Angstroms)
 Number     Number       Type             X           Y           Z
 ---------------------------------------------------------------------
      1          8           0      -14.069280   -1.964743    0.671777
      2          8           0       14.644664    1.016052    0.315578
      3          6           0      -11.761806    0.064577    1.272248
      4          6           0      -10.957061    0.283414   -0.129745
      5          6           0      -11.973656   -1.346556    1.602152
      6          6           0      -12.775855   -2.088863    0.403519
      7          6           0      -11.593116   -0.559157   -1.199078
      8          6           0       11.013302    0.941822    1.135918
      9          6           0      -10.872713    0.703273    2.458406
     10          6           0      -13.205152    0.902390    1.142224
     11          6           0       12.420595    1.490393    0.965070
     12          6           0      -12.323862   -1.671927   -0.950658
     13          6           0       13.460094    0.428801    0.461274
     14          6           0       10.619051   -0.065583    0.002919
     15          6           0       -9.535299    0.016171   -0.018689
     16          6           0       13.034960   -0.184905   -0.861078
     17          6           0       11.601136   -0.594179   -0.899645
     18          6           0       10.192968    2.226764    1.097631
     19          6           0       10.870157    0.344948    2.586692
     20          6           0      -11.203454   -0.107544   -2.585063
     21          6           0       -8.530257    0.859829   -0.219963
     22          6           0        9.254082   -0.437717    0.026990
     23          6           0       11.387621   -1.343660   -2.120426
     24          6           0       -7.055229    0.563107   -0.131356
     25          6           0        8.862386   -1.742816   -0.067955
     26          6           0       -6.708788   -0.846806    0.389814
     27          6           0        7.401710   -2.166627   -0.110103
     28          6           0       -6.161677    1.530669   -0.442913
     29          6           0        6.997507   -3.630226    0.045130
     30          6           0        6.369838   -1.320234   -0.337973
     31          6           0       -4.763146    1.440532   -0.364175
     32          6           0        5.040433   -1.543963   -0.277313
     33          6           0       -3.973380    2.539177   -0.757480
     34          6           0       -2.575454    2.605140   -0.844149
     35          6           0        4.018443   -0.643985   -0.453278
     36          6           0        2.621329   -0.745881   -0.189907
     37          6           0       -2.008389    3.970246   -1.138209
     38          6           0       -1.801297    1.422123   -0.507198
     39          6           0        1.866800    0.351642   -0.412733
     40          6           0        2.101121   -2.147838    0.190037
     41          6           0       -0.383965    1.457208   -0.632908
     42          6           0        0.503092    0.316043   -0.283389
     43          1           0      -11.316138    1.248689   -0.504166
     44          1           0      -12.583423   -1.489969    2.450238
     45          1           0      -10.980026   -2.029595    1.636777
     46          1           0      -12.554086   -3.059318    0.547528
     47          1           0       -9.928689   -0.009150    2.751684
     48          1           0      -10.525556    1.755761    2.190037
     49          1           0      -11.569624    0.879571    3.355469
     50          1           0      -13.768058    0.784308    0.355477
     51          1           0      -13.744498    0.557569    2.110714
     52          1           0      -13.034329    2.007557    1.268096
     53          1           0       12.693134    2.413912    0.142235
     54          1           0       12.660667    1.975969    2.169272
     55          1           0      -12.746703   -2.009987   -1.842321
     56          1           0       13.430057   -0.353274    1.335131
     57          1           0       -9.233529   -0.931880    0.319504
     58          1           0       13.562159   -1.007635   -1.033985
     59          1           0       13.681202    0.557246   -1.437317
     60          1           0        9.313775    1.999500    1.317821
     61          1           0       10.271549    2.808462    0.033967
     62          1           0       10.645224    2.809269    1.645814
     63          1           0       11.644195   -0.515673    2.814558
     64          1           0        9.889532   -0.087403    2.630547
     65          1           0       11.123566    1.142160    3.391746
     66          1           0      -10.146102    0.315559   -2.664304
     67          1           0      -11.781121    0.833132   -2.953737
     68          1           0      -11.310849   -1.020422   -3.188428
     69          1           0      -14.546017   -2.228406   -0.199264
     70          1           0        8.440860    0.316169    0.116984
     71          1           0       -8.805386    1.947933   -0.637629
     72          1           0       11.553436   -2.355973   -2.010342
     73          1           0       10.404021   -1.353375   -2.853786
     74          1           0       11.937762   -0.808255   -2.748456
     75          1           0       14.874306    1.503147    1.121644
     76          1           0        9.533595   -2.562739   -0.273505
     77          1           0       -5.639489   -1.048605    0.041590
     78          1           0       -6.930764   -0.775016    1.610602
     79          1           0       -7.303932   -1.669163   -0.074442
     80          1           0       -6.552986    2.538094   -0.965881
     81          1           0        6.360080   -3.926246    1.020984
     82          1           0        6.386014   -4.163401   -0.751463
     83          1           0        7.803011   -4.422409   -0.138713
     84          1           0        6.500145   -0.392050   -0.744774
     85          1           0       -4.359387    0.554088   -0.057284
     86          1           0        4.673413   -2.597721   -0.218545
     87          1           0       -4.735881    3.271015   -1.100102
     88          1           0        4.397645    0.331958   -0.752828
     89          1           0       -1.243178    4.017992   -2.027215
     90          1           0       -1.454923    4.164826   -0.209909
     91          1           0       -2.603101    4.490715   -1.425439
     92          1           0       -2.164455    0.470485   -0.196706
     93          1           0        2.326944    1.177834   -0.675168
     94          1           0        2.540665   -2.453493    1.243448
     95          1           0        0.981022   -2.054319    0.317055
     96          1           0        2.495715   -3.193464   -0.492282
     97          1           0        0.250436    2.232622   -0.881946
     98          1           0       -0.253383   -0.615878    0.154331
 ---------------------------------------------------------------------

 SCF Done:  E(RCAM-B3LYP) =  -1706.77277711     A.U. after   15 cycles

 Excitation energies and oscillator strengths:

 Excited State   1:      Singlet-A      1.9418 eV  638.51 nm  f=2.9193  <S**2>=0.000
     155 ->158        -0.13349
     156 ->157         0.69971
     156 <-157        -0.11189
 This state for optimization and/or second-order correction.
 Total Energy, E(TD-HF/TD-DFT) =  -1706.70141871
 Copying the excited state density for this state as the 1-particle RhoCI density.

 The electronic state is 1-A.
 Alpha  occ. eigenvalues --  -19.21742 -19.21581 -10.30134 -10.28828 -10.28380
 Alpha  occ. eigenvalues --  -10.28380 -10.28255 -10.28225 -10.27801 -10.27799
 Alpha  occ. eigenvalues --  -10.27601 -10.27516 -10.27494 -10.27371 -10.27189
 Alpha  occ. eigenvalues --  -10.26979 -10.26844 -10.26840 -10.26732 -10.26722
 Alpha  occ. eigenvalues --  -10.26602 -10.26600 -10.26589 -10.26405 -10.26268
 Alpha  occ. eigenvalues --  -10.26160 -10.26103 -10.26033 -10.25990 -10.25737
 Alpha  occ. eigenvalues --  -10.25584 -10.25344 -10.25126 -10.25100 -10.24980
 Alpha  occ. eigenvalues --  -10.24456 -10.24281 -10.24278 -10.24237 -10.24137
 Alpha  occ. eigenvalues --  -10.23935 -10.21873  -1.12933  -1.12041  -0.93173
 Alpha  occ. eigenvalues --   -0.93001  -0.92375  -0.91682  -0.90339  -0.89580
 Alpha  occ. eigenvalues --   -0.88576  -0.86633  -0.85919  -0.85795  -0.84517
 Alpha  occ. eigenvalues --   -0.82523  -0.82096  -0.80935  -0.79619  -0.78671
 Alpha  occ. eigenvalues --   -0.76775  -0.76256  -0.75485  -0.75394  -0.75122
 Alpha  occ. eigenvalues --   -0.74971  -0.74651  -0.73893  -0.72849  -0.70400
 Alpha  occ. eigenvalues --   -0.68935  -0.68301  -0.66582  -0.64940  -0.63754
 Alpha  occ. eigenvalues --   -0.63290  -0.62209  -0.61901  -0.61749  -0.60432
 Alpha  occ. eigenvalues --   -0.59335  -0.58970  -0.58746  -0.58545  -0.57246
 Alpha  occ. eigenvalues --   -0.56565  -0.55964  -0.55236  -0.54227  -0.54002
 Alpha  occ. eigenvalues --   -0.53272  -0.53110  -0.52820  -0.52208  -0.51990
 Alpha  occ. eigenvalues --   -0.51744  -0.50862  -0.49931  -0.49705  -0.49218
 Alpha  occ. eigenvalues --   -0.49041  -0.48414  -0.48112  -0.47883  -0.47274
 Alpha  occ. eigenvalues --   -0.46900  -0.46703  -0.46599  -0.46271  -0.46054
 Alpha  occ. eigenvalues --   -0.45661  -0.45609  -0.45252  -0.45185  -0.44960
 Alpha  occ. eigenvalues --   -0.44772  -0.44622  -0.44304  -0.43837  -0.43653
 Alpha  occ. eigenvalues --   -0.43051  -0.42987  -0.42589  -0.42278  -0.41722
 Alpha  occ. eigenvalues --   -0.41301  -0.41214  -0.40816  -0.40602  -0.40385
 Alpha  occ. eigenvalues --   -0.40178  -0.39706  -0.39466  -0.39273  -0.39009
 Alpha  occ. eigenvalues --   -0.38787  -0.38268  -0.38143  -0.37898  -0.37611
 Alpha  occ. eigenvalues --   -0.37519  -0.36951  -0.36420  -0.36068  -0.35679
 Alpha  occ. eigenvalues --   -0.34686  -0.34168  -0.33263  -0.31623  -0.31203
 Alpha  occ. eigenvalues --   -0.30178  -0.29511  -0.28564  -0.26644  -0.23681
 Alpha  occ. eigenvalues --   -0.18626
 Alpha virt. eigenvalues --   -0.06452  -0.00947   0.02779   0.05240   0.06642
 Alpha virt. eigenvalues --    0.08524   0.10911   0.10964   0.11130   0.11505
 Alpha virt. eigenvalues --    0.12135   0.12424   0.13300   0.13447   0.13650

 Mulliken charges:
               1
     1  O   -0.524597
     2  O   -0.535864
     3  C    0.036257
     4  C   -0.138036
     5  C   -0.177629
     6  C    0.166706
     7  C    0.100022
     8  C   -0.035078
     9  C   -0.299564
    10  C   -0.307960
    11  C   -0.175318
    12  C   -0.154676
    13  C    0.175501
    14  C    0.065939
    15  C   -0.049811
    16  C   -0.236205
    17  C    0.035376
    18  C   -0.237115
    19  C   -0.298416
    20  C   -0.361177
    21  C   -0.084543
    22  C   -0.125724
    23  C   -0.359093
    24  C    0.077682
    25  C   -0.085889
    26  C   -0.359478
    27  C    0.076607
    28  C   -0.126373
    29  C   -0.383642
    30  C   -0.100671
    31  C   -0.032679
    32  C   -0.062676
    33  C   -0.132808
    34  C    0.050565
    35  C   -0.142302
    36  C    0.134078
    37  C   -0.290055
    38  C   -0.114868
    39  C   -0.084612
    40  C   -0.351918
    41  C   -0.079574
    42  C   -0.113881
    43  H    0.094025
    44  H    0.116796
    45  H    0.071514
    46  H    0.070528
    47  H    0.083841
    48  H    0.097380
    49  H    0.089228
    50  H    0.120219
    51  H    0.095702
    52  H    0.086912
    53  H    0.063360
    54  H    0.027011
    55  H    0.061347
    56  H    0.044354
    57  H    0.082225
    58  H    0.125859
    59  H    0.127764
    60  H    0.093169
    61  H    0.074890
    62  H    0.105496
    63  H    0.095128
    64  H    0.119648
    65  H    0.094019
    66  H    0.120698
    67  H    0.106071
    68  H    0.111495
    69  H    0.302372
    70  H    0.105245
    71  H    0.059444
    72  H    0.128687
    73  H    0.086141
    74  H    0.138263
    75  H    0.313343
    76  H    0.087477
    77  H    0.106418
    78  H    0.112474
    79  H    0.126160
    80  H    0.074442
    81  H    0.107470
    82  H    0.112919
    83  H    0.092963
    84  H    0.074943
    85  H    0.074481
    86  H    0.068286
    87  H    0.076333
    88  H    0.062070
    89  H    0.096246
    90  H    0.137383
    91  H    0.091362
    92  H    0.091322
    93  H    0.085152
    94  H    0.113063
    95  H    0.105856
    96  H    0.091836
    97  H    0.076661
    98  H    0.066004
 Sum of Mulliken charges =  -0.00000

 Dipole moment (field-independent basis, Debye):
    X=             -0.7337    Y=             -0.0316    Z=             -1.0374  Tot=              1.2710
 Quadrupole moment (field-independent basis, Debye-Ang):
   XX=           -260.2785   YY=           -244.8225   ZZ=           -261.6913
   XY=              5.4292   XZ=             31.5401   YZ=              1.3239

 Normal termination of Gaussian 16 at Sat Jul 13 01:21:33 2019.
