 Gaussian 16, Revision A.03,
 Gaussian 16:  ES64L-G16RevA.03 25-Dec-2016

 -------------------------------------
 # td=(NStates=1) CAM-B3LYP/6-31G(d,p)
 -------------------------------------

 --
 TD
 --
 Symbolic Z-matrix:
 Charge =  0 Multiplicity = 1

                         Standard orientation:
 ---------------------------------------------------------------------
 Center     Atomic      Atomic             Coordinates (Angstroms)
 Number     Number       Type             X           Y           Z
 ---------------------------------------------------------------------
      1          8           0      -14.131210   -1.950871    0.254322
      2          8           0       14.729926    1.028310    0.056867
      3          6           0      -11.780688    0.109909    1.152003
      4          6           0      -10.959457    0.334188   -0.127150
      5          6           0      -11.935381   -1.502035    1.338365
      6          6           0      -12.780275   -2.089769    0.176089
      7          6           0      -11.527062   -0.436845   -1.323406
      8          6           0       11.073297    1.075432    0.915233
      9          6           0      -10.987227    0.474401    2.438388
     10          6           0      -13.174750    0.685345    1.148557
     11          6           0       12.482902    1.542502    0.579120
     12          6           0      -12.194047   -1.583090   -1.170225
     13          6           0       13.519339    0.350536    0.319852
     14          6           0       10.731897   -0.117851   -0.054949
     15          6           0       -9.454728   -0.024127    0.028459
     16          6           0       12.976731   -0.258806   -0.984290
     17          6           0       11.510448   -0.723513   -0.962261
     18          6           0       10.176190    2.265359    0.804234
     19          6           0       10.973068    0.454684    2.297522
     20          6           0      -11.068667    0.096185   -2.609199
     21          6           0       -8.495202    0.841596   -0.211442
     22          6           0        9.324798   -0.528482   -0.053124
     23          6           0       11.169677   -1.601256   -2.060700
     24          6           0       -7.049478    0.598734    0.017611
     25          6           0        8.757991   -1.732200   -0.056160
     26          6           0       -6.711866   -0.873425    0.266171
     27          6           0        7.421694   -2.066409    0.090027
     28          6           0       -6.214978    1.629693   -0.222950
     29          6           0        7.143045   -3.601348    0.395953
     30          6           0        6.307570   -1.183983    0.005145
     31          6           0       -4.830304    1.555623   -0.218893
     32          6           0        4.984152   -1.490644    0.110422
     33          6           0       -3.967478    2.704929   -0.480645
     34          6           0       -2.577965    2.653448   -0.564244
     35          6           0        3.965358   -0.645998   -0.195951
     36          6           0        2.640985   -0.849733   -0.125474
     37          6           0       -1.826970    3.877539   -0.950470
     38          6           0       -1.841432    1.507895   -0.343373
     39          6           0        1.724757    0.305359   -0.358189
     40          6           0        1.989757   -2.191065    0.322021
     41          6           0       -0.381839    1.379629   -0.431840
     42          6           0        0.425715    0.315614   -0.164932
     43          1           0      -10.977488    1.445968   -0.365991
     44          1           0      -12.596693   -1.603594    2.166691
     45          1           0      -10.880317   -1.857846    1.460758
     46          1           0      -12.394098   -3.071353    0.059345
     47          1           0      -10.244196    0.073637    2.633448
     48          1           0      -11.023377    1.669339    2.389964
     49          1           0      -11.694619    0.454094    3.310956
     50          1           0      -13.918844    0.276492    0.367675
     51          1           0      -13.737793    0.414461    2.043030
     52          1           0      -12.997040    1.715107    1.343991
     53          1           0       12.457670    2.134731   -0.382893
     54          1           0       12.795371    2.212629    1.506039
     55          1           0      -12.392559   -2.211255   -2.122446
     56          1           0       13.538790   -0.432858    1.158075
     57          1           0       -9.373373   -1.048704    0.322315
     58          1           0       13.643680   -1.195941   -1.041653
     59          1           0       13.023104    0.488896   -1.740581
     60          1           0        8.943486    2.145163    1.017127
     61          1           0       10.078562    2.725624   -0.283620
     62          1           0       10.622941    2.955339    1.557951
     63          1           0       11.817754   -0.277542    2.669166
     64          1           0       10.077227    0.186224    2.544490
     65          1           0       11.298773    1.296084    2.946306
     66          1           0       -9.969014    0.265332   -2.765575
     67          1           0      -11.429740    1.110366   -2.879821
     68          1           0      -11.509693   -0.427856   -3.439779
     69          1           0      -14.630131   -2.634867   -0.398604
     70          1           0        8.577674    0.380234   -0.115292
     71          1           0       -8.727379    1.843957   -0.465479
     72          1           0       11.444714   -2.732360   -1.860974
     73          1           0       10.020890   -1.354619   -2.312785
     74          1           0       11.663650   -1.348996   -2.956738
     75          1           0       15.014066    1.231734    0.922319
     76          1           0        9.321585   -2.559842   -0.198028
     77          1           0       -5.548036   -0.881924    0.357579
     78          1           0       -7.331128   -1.205491    1.275646
     79          1           0       -6.852801   -1.379609   -0.675687
     80          1           0       -6.483863    2.575160   -0.341368
     81          1           0        7.058574   -3.702222    1.382034
     82          1           0        6.176924   -3.989233   -0.160071
     83          1           0        7.815747   -4.210660    0.047058
     84          1           0        6.517636   -0.204173   -0.276381
     85          1           0       -4.409356    0.655065    0.192172
     86          1           0        4.611752   -2.647691    0.022458
     87          1           0       -4.503475    3.597625   -0.662758
     88          1           0        4.330313    0.490025   -0.246625
     89          1           0       -1.360158    3.805127   -1.881181
     90          1           0       -1.056856    4.164117   -0.164335
     91          1           0       -2.637169    4.827373   -0.905152
     92          1           0       -2.264326    0.480923   -0.202993
     93          1           0        2.180741    1.206617   -0.373861
     94          1           0        2.246039   -2.424952    1.386935
     95          1           0        1.006183   -2.094756    0.223270
     96          1           0        2.494630   -3.054715   -0.318462
     97          1           0        0.169032    2.180321   -0.731626
     98          1           0       -0.031177   -0.622326    0.062614
 ---------------------------------------------------------------------

 SCF Done:  E(RCAM-B3LYP) =  -1706.90434333     A.U. after   16 cycles

 Excitation energies and oscillator strengths:

 Excited State   1:      Singlet-A      1.8226 eV  680.24 nm  f=3.1031  <S**2>=0.000
     155 ->158         0.13085
     156 ->157         0.70295
     156 <-157        -0.12878
 This state for optimization and/or second-order correction.
 Total Energy, E(TD-HF/TD-DFT) =  -1706.83736246
 Copying the excited state density for this state as the 1-particle RhoCI density.

 The electronic state is 1-A.
 Alpha  occ. eigenvalues --  -19.23236 -19.21552 -10.31446 -10.30152 -10.27706
 Alpha  occ. eigenvalues --  -10.27610 -10.27467 -10.27437 -10.27255 -10.27156
 Alpha  occ. eigenvalues --  -10.26834 -10.26350 -10.26323 -10.26182 -10.26180
 Alpha  occ. eigenvalues --  -10.26151 -10.26143 -10.26143 -10.26134 -10.26079
 Alpha  occ. eigenvalues --  -10.26034 -10.26026 -10.25796 -10.25689 -10.25670
 Alpha  occ. eigenvalues --  -10.25636 -10.25469 -10.25285 -10.25192 -10.25112
 Alpha  occ. eigenvalues --  -10.24962 -10.24807 -10.24662 -10.24650 -10.24559
 Alpha  occ. eigenvalues --  -10.24447 -10.24328 -10.24248 -10.24228 -10.23964
 Alpha  occ. eigenvalues --  -10.22920 -10.22916  -1.11227  -1.10614  -0.93916
 Alpha  occ. eigenvalues --   -0.92751  -0.92177  -0.91537  -0.90684  -0.89844
 Alpha  occ. eigenvalues --   -0.88284  -0.87604  -0.86349  -0.85400  -0.84394
 Alpha  occ. eigenvalues --   -0.82531  -0.81796  -0.80232  -0.80014  -0.78059
 Alpha  occ. eigenvalues --   -0.76910  -0.76625  -0.76457  -0.76432  -0.76308
 Alpha  occ. eigenvalues --   -0.75297  -0.74307  -0.74002  -0.72400  -0.70382
 Alpha  occ. eigenvalues --   -0.69166  -0.67314  -0.66839  -0.64814  -0.63667
 Alpha  occ. eigenvalues --   -0.63306  -0.62804  -0.62462  -0.61205  -0.59976
 Alpha  occ. eigenvalues --   -0.59754  -0.59533  -0.58975  -0.57966  -0.56253
 Alpha  occ. eigenvalues --   -0.55961  -0.55151  -0.54529  -0.54283  -0.53475
 Alpha  occ. eigenvalues --   -0.52671  -0.52591  -0.52166  -0.51511  -0.51079
 Alpha  occ. eigenvalues --   -0.50866  -0.50736  -0.50214  -0.49973  -0.49743
 Alpha  occ. eigenvalues --   -0.49463  -0.49126  -0.48972  -0.48512  -0.48175
 Alpha  occ. eigenvalues --   -0.47804  -0.47430  -0.47048  -0.46709  -0.46221
 Alpha  occ. eigenvalues --   -0.46156  -0.46108  -0.45591  -0.45249  -0.45028
 Alpha  occ. eigenvalues --   -0.44669  -0.44383  -0.44094  -0.43713  -0.43630
 Alpha  occ. eigenvalues --   -0.43296  -0.42905  -0.42468  -0.42348  -0.42057
 Alpha  occ. eigenvalues --   -0.41603  -0.41401  -0.40827  -0.40691  -0.40640
 Alpha  occ. eigenvalues --   -0.40369  -0.40223  -0.39819  -0.39316  -0.39103
 Alpha  occ. eigenvalues --   -0.38813  -0.38625  -0.38303  -0.37968  -0.37919
 Alpha  occ. eigenvalues --   -0.37224  -0.36931  -0.36783  -0.35849  -0.35202
 Alpha  occ. eigenvalues --   -0.35052  -0.34330  -0.32814  -0.31535  -0.31188
 Alpha  occ. eigenvalues --   -0.30716  -0.29605  -0.28732  -0.27104  -0.23424
 Alpha  occ. eigenvalues --   -0.17845
 Alpha virt. eigenvalues --   -0.06702  -0.01120   0.03387   0.06303   0.07875
 Alpha virt. eigenvalues --    0.08847   0.09913   0.11496   0.11771   0.12473
 Alpha virt. eigenvalues --    0.12760   0.12990   0.13745   0.14073   0.14171

 Mulliken charges:
               1
     1  O   -0.539639
     2  O   -0.528530
     3  C    0.006087
     4  C   -0.125884
     5  C   -0.195372
     6  C    0.159269
     7  C    0.161636
     8  C    0.001953
     9  C   -0.256286
    10  C   -0.320033
    11  C   -0.185220
    12  C   -0.180172
    13  C    0.132255
    14  C    0.058687
    15  C   -0.077409
    16  C   -0.217216
    17  C    0.061586
    18  C   -0.286114
    19  C   -0.278915
    20  C   -0.376117
    21  C   -0.077745
    22  C   -0.143152
    23  C   -0.361670
    24  C    0.069050
    25  C   -0.056581
    26  C   -0.352023
    27  C    0.044365
    28  C   -0.076997
    29  C   -0.356412
    30  C   -0.109238
    31  C   -0.078379
    32  C   -0.074211
    33  C   -0.148505
    34  C    0.124751
    35  C   -0.110391
    36  C    0.077906
    37  C   -0.370623
    38  C   -0.121270
    39  C   -0.113760
    40  C   -0.346214
    41  C   -0.099835
    42  C   -0.051143
    43  H    0.071888
    44  H    0.105658
    45  H    0.089124
    46  H    0.084219
    47  H    0.086408
    48  H    0.067573
    49  H    0.091896
    50  H    0.136195
    51  H    0.100421
    52  H    0.089336
    53  H    0.105775
    54  H    0.054450
    55  H    0.058957
    56  H    0.082688
    57  H    0.086866
    58  H    0.092530
    59  H    0.126149
    60  H    0.076260
    61  H    0.098830
    62  H    0.106787
    63  H    0.088308
    64  H    0.127056
    65  H    0.081695
    66  H    0.116618
    67  H    0.108178
    68  H    0.102715
    69  H    0.324693
    70  H    0.071023
    71  H    0.080348
    72  H    0.104958
    73  H    0.108041
    74  H    0.123071
    75  H    0.304773
    76  H    0.072903
    77  H    0.091332
    78  H    0.111388
    79  H    0.143783
    80  H    0.070577
    81  H    0.140620
    82  H    0.093063
    83  H    0.114696
    84  H    0.074459
    85  H    0.084832
    86  H    0.062995
    87  H    0.080855
    88  H    0.062565
    89  H    0.140556
    90  H    0.121320
    91  H    0.075021
    92  H    0.076014
    93  H    0.074790
    94  H    0.125871
    95  H    0.116142
    96  H    0.099996
    97  H    0.063691
    98  H    0.066559
 Sum of Mulliken charges =  -0.00000

 Dipole moment (field-independent basis, Debye):
    X=              0.4353    Y=             -1.6877    Z=              0.3711  Tot=              1.7820
 Quadrupole moment (field-independent basis, Debye-Ang):
   XX=           -246.0625   YY=           -243.2616   ZZ=           -260.4306
   XY=             12.7806   XZ=             30.8064   YZ=              0.8742

 Normal termination of Gaussian 16 at Sat Jul 13 18:21:18 2019.
