 Gaussian 16, Revision A.03,
 Gaussian 16:  ES64L-G16RevA.03 25-Dec-2016

 -------------------------------------
 # td=(NStates=1) CAM-B3LYP/6-31G(d,p)
 -------------------------------------

 --
 TD
 --
 Symbolic Z-matrix:
 Charge =  0 Multiplicity = 1

                         Standard orientation:
 ---------------------------------------------------------------------
 Center     Atomic      Atomic             Coordinates (Angstroms)
 Number     Number       Type             X           Y           Z
 ---------------------------------------------------------------------
      1          8           0      -14.164006   -1.959493    0.815549
      2          8           0       14.864306    0.952955    0.115110
      3          6           0      -11.727901    0.308395    1.205117
      4          6           0      -11.011222    0.269096   -0.156314
      5          6           0      -11.938875   -1.182210    1.650087
      6          6           0      -12.643765   -2.017088    0.586429
      7          6           0      -11.676564   -0.632122   -1.237496
      8          6           0       11.168581    1.061444    1.011729
      9          6           0      -10.892779    1.002871    2.354082
     10          6           0      -13.140547    1.090157    1.150334
     11          6           0       12.577749    1.585844    0.754453
     12          6           0      -12.372570   -1.684829   -0.803594
     13          6           0       13.532689    0.474681    0.401606
     14          6           0       10.744667    0.031220   -0.006085
     15          6           0       -9.605283   -0.066740   -0.022159
     16          6           0       13.036533   -0.213518   -0.829967
     17          6           0       11.592440   -0.654397   -0.894477
     18          6           0       10.246922    2.333594    1.076783
     19          6           0       11.049450    0.376951    2.433556
     20          6           0      -11.280721   -0.303857   -2.663900
     21          6           0       -8.506953    0.684790   -0.268294
     22          6           0        9.283198   -0.342826    0.042555
     23          6           0       11.174369   -1.514635   -2.067952
     24          6           0       -7.150359    0.438764   -0.188702
     25          6           0        8.867176   -1.702326    0.033516
     26          6           0       -6.694864   -0.931486    0.158787
     27          6           0        7.365088   -2.098194    0.139310
     28          6           0       -6.208140    1.497078   -0.487601
     29          6           0        7.211913   -3.591756    0.257160
     30          6           0        6.404162   -1.240033   -0.097660
     31          6           0       -4.826804    1.336804   -0.479065
     32          6           0        5.006180   -1.567285   -0.076511
     33          6           0       -4.010473    2.519472   -0.643449
     34          6           0       -2.605355    2.533300   -0.750991
     35          6           0        3.974013   -0.679593   -0.276790
     36          6           0        2.519648   -0.910450   -0.216846
     37          6           0       -2.059955    3.895552   -1.182768
     38          6           0       -1.771409    1.479647   -0.568204
     39          6           0        1.779373    0.189663   -0.502852
     40          6           0        2.000476   -2.277676    0.079455
     41          6           0       -0.436235    1.509040   -0.614211
     42          6           0        0.356838    0.291232   -0.472834
     43          1           0      -11.180902    1.174274   -0.598766
     44          1           0      -12.529516   -1.198977    2.621313
     45          1           0      -11.092250   -1.569890    2.014420
     46          1           0      -12.492838   -3.046571    0.647123
     47          1           0      -10.046465    0.257999    2.633980
     48          1           0      -10.860575    2.039966    2.168260
     49          1           0      -11.581835    1.301634    3.231668
     50          1           0      -13.674901    0.491680    0.288493
     51          1           0      -13.653008    0.982226    2.135400
     52          1           0      -12.962596    2.049724    0.859570
     53          1           0       12.633137    2.447961   -0.049562
     54          1           0       12.839364    2.113501    1.636438
     55          1           0      -12.693396   -2.438128   -1.583555
     56          1           0       13.837095   -0.220830    1.265905
     57          1           0       -9.437931   -1.223413    0.224452
     58          1           0       13.742290   -0.972459   -1.068411
     59          1           0       13.268586    0.459979   -1.635612
     60          1           0        9.223638    2.257568    1.295823
     61          1           0       10.395111    2.685565    0.050819
     62          1           0       10.668925    3.116949    1.578681
     63          1           0       11.571242   -0.470966    2.731933
     64          1           0       10.014751    0.081402    2.665057
     65          1           0       11.303569    1.128026    3.221911
     66          1           0      -10.195487   -0.314678   -2.749773
     67          1           0      -11.631662    0.708093   -2.978597
     68          1           0      -11.608066   -1.027061   -3.469714
     69          1           0      -14.638583   -2.300099   -0.038873
     70          1           0        8.623662    0.590964    0.100579
     71          1           0       -8.815338    1.686304   -0.435382
     72          1           0       11.333749   -2.583419   -1.573509
     73          1           0       10.112957   -1.570929   -2.286799
     74          1           0       11.808218   -1.251691   -2.944709
     75          1           0       15.228570    1.394912    0.867753
     76          1           0        9.639696   -2.576441    0.052993
     77          1           0       -5.623078   -1.135648    0.455207
     78          1           0       -7.376430   -1.321646    1.119809
     79          1           0       -6.997091   -1.697866   -0.528556
     80          1           0       -6.625043    2.455646   -0.856417
     81          1           0        6.727586   -3.673158    1.244790
     82          1           0        6.545776   -4.114894   -0.285270
     83          1           0        8.037757   -4.400018    0.383765
     84          1           0        6.865076   -0.305085   -0.289419
     85          1           0       -4.275449    0.420968   -0.177456
     86          1           0        4.712149   -2.753176   -0.031878
     87          1           0       -4.661840    3.330202   -0.651891
     88          1           0        4.224345    0.392915   -0.427110
     89          1           0       -1.778654    4.013199   -2.124328
     90          1           0       -1.170834    4.220487   -0.343843
     91          1           0       -2.743888    4.807352   -1.151385
     92          1           0       -2.103921    0.459399   -0.249124
     93          1           0        2.248827    1.143525   -0.600150
     94          1           0        2.193921   -2.649834    1.104525
     95          1           0        0.808167   -2.219563   -0.211106
     96          1           0        2.408582   -2.951462   -0.646387
     97          1           0        0.008793    2.502081   -0.621843
     98          1           0       -0.160503   -0.465736   -0.393945
 ---------------------------------------------------------------------

 SCF Done:  E(RCAM-B3LYP) =  -1706.99153390     A.U. after   15 cycles

 Excitation energies and oscillator strengths:

 Excited State   1:      Singlet-A      2.0499 eV  604.84 nm  f=2.9218  <S**2>=0.000
     155 ->158         0.12620
     156 ->157         0.69980
     156 <-157        -0.10872
 This state for optimization and/or second-order correction.
 Total Energy, E(TD-HF/TD-DFT) =  -1706.91620295
 Copying the excited state density for this state as the 1-particle RhoCI density.

 The electronic state is 1-A.
 Alpha  occ. eigenvalues --  -19.20049 -19.20009 -10.30632 -10.29989 -10.28090
 Alpha  occ. eigenvalues --  -10.27993 -10.27727 -10.27590 -10.27469 -10.27451
 Alpha  occ. eigenvalues --  -10.27399 -10.27322 -10.27317 -10.27192 -10.27086
 Alpha  occ. eigenvalues --  -10.27033 -10.26971 -10.26766 -10.26761 -10.26681
 Alpha  occ. eigenvalues --  -10.26447 -10.26375 -10.26301 -10.26278 -10.26179
 Alpha  occ. eigenvalues --  -10.26125 -10.25983 -10.25729 -10.25537 -10.25493
 Alpha  occ. eigenvalues --  -10.25379 -10.25332 -10.25312 -10.25092 -10.24977
 Alpha  occ. eigenvalues --  -10.24908 -10.24681 -10.24337 -10.24214 -10.23905
 Alpha  occ. eigenvalues --  -10.23880 -10.23812  -1.08721  -1.04178  -0.93647
 Alpha  occ. eigenvalues --   -0.93079  -0.92424  -0.91402  -0.90679  -0.89958
 Alpha  occ. eigenvalues --   -0.86943  -0.86772  -0.86120  -0.85056  -0.84454
 Alpha  occ. eigenvalues --   -0.83214  -0.81934  -0.80283  -0.79697  -0.78932
 Alpha  occ. eigenvalues --   -0.77129  -0.76707  -0.76615  -0.76114  -0.76097
 Alpha  occ. eigenvalues --   -0.75727  -0.75050  -0.74382  -0.73416  -0.70633
 Alpha  occ. eigenvalues --   -0.68796  -0.68135  -0.66571  -0.64833  -0.64642
 Alpha  occ. eigenvalues --   -0.63500  -0.63056  -0.62788  -0.61034  -0.59929
 Alpha  occ. eigenvalues --   -0.58959  -0.58265  -0.57806  -0.57209  -0.56378
 Alpha  occ. eigenvalues --   -0.55827  -0.54768  -0.54310  -0.54191  -0.53539
 Alpha  occ. eigenvalues --   -0.52766  -0.52401  -0.52204  -0.51906  -0.51435
 Alpha  occ. eigenvalues --   -0.50832  -0.50268  -0.50098  -0.49594  -0.49363
 Alpha  occ. eigenvalues --   -0.49000  -0.48811  -0.48356  -0.48067  -0.47851
 Alpha  occ. eigenvalues --   -0.47198  -0.47017  -0.46816  -0.46714  -0.46342
 Alpha  occ. eigenvalues --   -0.46225  -0.45910  -0.45386  -0.45148  -0.44583
 Alpha  occ. eigenvalues --   -0.44110  -0.43906  -0.43770  -0.43449  -0.43216
 Alpha  occ. eigenvalues --   -0.43051  -0.42901  -0.42712  -0.42392  -0.42122
 Alpha  occ. eigenvalues --   -0.41915  -0.41615  -0.41511  -0.41103  -0.40591
 Alpha  occ. eigenvalues --   -0.40524  -0.40389  -0.39917  -0.39350  -0.39232
 Alpha  occ. eigenvalues --   -0.39083  -0.38897  -0.38509  -0.38326  -0.37741
 Alpha  occ. eigenvalues --   -0.37432  -0.36928  -0.36252  -0.35868  -0.35688
 Alpha  occ. eigenvalues --   -0.35202  -0.34296  -0.33504  -0.31962  -0.31781
 Alpha  occ. eigenvalues --   -0.31207  -0.29804  -0.28444  -0.26083  -0.23468
 Alpha  occ. eigenvalues --   -0.18973
 Alpha virt. eigenvalues --   -0.06263  -0.00744   0.02422   0.05637   0.06817
 Alpha virt. eigenvalues --    0.08870   0.10602   0.12120   0.12333   0.12515
 Alpha virt. eigenvalues --    0.12714   0.13041   0.13428   0.13660   0.14140

 Mulliken charges:
               1
     1  O   -0.583160
     2  O   -0.577142
     3  C    0.004720
     4  C   -0.122632
     5  C   -0.184670
     6  C    0.158644
     7  C    0.098248
     8  C   -0.014530
     9  C   -0.298279
    10  C   -0.303131
    11  C   -0.189460
    12  C   -0.144416
    13  C    0.165078
    14  C    0.037227
    15  C   -0.074106
    16  C   -0.228516
    17  C    0.054644
    18  C   -0.320485
    19  C   -0.305561
    20  C   -0.367817
    21  C   -0.095776
    22  C   -0.125099
    23  C   -0.344832
    24  C    0.137595
    25  C   -0.128900
    26  C   -0.382620
    27  C    0.089880
    28  C   -0.140491
    29  C   -0.395773
    30  C   -0.081158
    31  C   -0.055041
    32  C   -0.120083
    33  C   -0.133618
    34  C    0.088702
    35  C   -0.106265
    36  C    0.123824
    37  C   -0.367587
    38  C   -0.088555
    39  C   -0.117285
    40  C   -0.370046
    41  C   -0.082037
    42  C   -0.070896
    43  H    0.085304
    44  H    0.108798
    45  H    0.101778
    46  H    0.096707
    47  H    0.104932
    48  H    0.102790
    49  H    0.082680
    50  H    0.106314
    51  H    0.108684
    52  H    0.099257
    53  H    0.090898
    54  H    0.085869
    55  H    0.070932
    56  H    0.078189
    57  H    0.063937
    58  H    0.108725
    59  H    0.123909
    60  H    0.110667
    61  H    0.103183
    62  H    0.112226
    63  H    0.108691
    64  H    0.108724
    65  H    0.082503
    66  H    0.132755
    67  H    0.116258
    68  H    0.107662
    69  H    0.297928
    70  H    0.099623
    71  H    0.072924
    72  H    0.101201
    73  H    0.135114
    74  H    0.114318
    75  H    0.300574
    76  H    0.098333
    77  H    0.112284
    78  H    0.083302
    79  H    0.133851
    80  H    0.091007
    81  H    0.121884
    82  H    0.131043
    83  H    0.102623
    84  H    0.076158
    85  H    0.087808
    86  H    0.073276
    87  H    0.084560
    88  H    0.078834
    89  H    0.143612
    90  H    0.083673
    91  H    0.103355
    92  H    0.079708
    93  H    0.081738
    94  H    0.133008
    95  H    0.088255
    96  H    0.132075
    97  H    0.078406
    98  H    0.038558
 Sum of Mulliken charges =  -0.00000

 Dipole moment (field-independent basis, Debye):
    X=              1.0703    Y=             -0.2031    Z=             -0.4047  Tot=              1.1622
 Quadrupole moment (field-independent basis, Debye-Ang):
   XX=           -296.2140   YY=           -238.4613   ZZ=           -261.1612
   XY=              3.3799   XZ=             41.3595   YZ=              2.0840

 Normal termination of Gaussian 16 at Sun Jul 14 07:12:24 2019.
