 Gaussian 16, Revision A.03,
 Gaussian 16:  ES64L-G16RevA.03 25-Dec-2016

 -------------------------------------
 # td=(NStates=1) CAM-B3LYP/6-31G(d,p)
 -------------------------------------

 --
 TD
 --
 Symbolic Z-matrix:
 Charge =  0 Multiplicity = 1

                         Standard orientation:
 ---------------------------------------------------------------------
 Center     Atomic      Atomic             Coordinates (Angstroms)
 Number     Number       Type             X           Y           Z
 ---------------------------------------------------------------------
      1          8           0      -14.081200   -2.098945    0.194091
      2          8           0       14.755431    0.942846   -0.132163
      3          6           0      -11.733615   -0.004943    1.198301
      4          6           0      -10.949809    0.327729    0.015426
      5          6           0      -12.026544   -1.474241    1.231617
      6          6           0      -12.655954   -2.080608    0.045467
      7          6           0      -11.396949   -0.440393   -1.320036
      8          6           0       11.174245    0.802107    1.076624
      9          6           0      -11.142829    0.479299    2.478060
     10          6           0      -13.195878    0.678541    1.193539
     11          6           0       12.575478    1.395468    0.728259
     12          6           0      -12.189967   -1.525353   -1.198895
     13          6           0       13.518370    0.469885    0.164906
     14          6           0       10.570113    0.042845   -0.153497
     15          6           0       -9.549264    0.017442    0.056152
     16          6           0       12.801374   -0.042120   -1.222616
     17          6           0       11.332295   -0.234281   -1.128030
     18          6           0       10.216733    2.037773    1.594213
     19          6           0       11.381229   -0.226970    2.319532
     20          6           0      -10.929911    0.178917   -2.614183
     21          6           0       -8.482222    0.819926   -0.140813
     22          6           0        9.191126   -0.407979   -0.025072
     23          6           0       10.886436   -1.089856   -2.328456
     24          6           0       -7.074468    0.541166   -0.169921
     25          6           0        8.797923   -1.724898   -0.305150
     26          6           0       -6.695879   -0.902372    0.132473
     27          6           0        7.415851   -2.079347   -0.092861
     28          6           0       -6.237147    1.658340   -0.352824
     29          6           0        7.177373   -3.654212    0.136962
     30          6           0        6.340107   -1.258007   -0.156358
     31          6           0       -4.855477    1.614288   -0.350569
     32          6           0        4.952455   -1.607509    0.154659
     33          6           0       -3.939682    2.709228   -0.584371
     34          6           0       -2.589386    2.686280   -0.518620
     35          6           0        3.959349   -0.588299    0.060726
     36          6           0        2.551222   -0.858017    0.053912
     37          6           0       -1.870469    3.964981   -0.793813
     38          6           0       -1.807078    1.552494   -0.292587
     39          6           0        1.674963    0.268412   -0.062322
     40          6           0        1.992544   -2.208086    0.404614
     41          6           0       -0.381412    1.543653   -0.321017
     42          6           0        0.323739    0.342972   -0.065952
     43          1           0      -11.110565    1.459230   -0.114552
     44          1           0      -12.453965   -1.856488    2.185160
     45          1           0      -11.123656   -2.045824    1.240710
     46          1           0      -12.280748   -3.327798    0.011136
     47          1           0      -10.042811    0.055155    2.688164
     48          1           0      -10.887724    1.527791    2.453800
     49          1           0      -11.890082    0.209362    3.393345
     50          1           0      -13.707842    0.311860    0.233057
     51          1           0      -13.600339    0.542358    2.211497
     52          1           0      -12.939026    1.777939    1.349062
     53          1           0       12.496746    2.274445    0.006990
     54          1           0       13.052097    1.692342    1.700576
     55          1           0      -12.244278   -2.054051   -2.118446
     56          1           0       13.495957   -0.411665    0.928540
     57          1           0       -9.169633   -1.037804    0.154999
     58          1           0       13.388957   -1.032283   -1.657862
     59          1           0       13.047465    0.760080   -1.869856
     60          1           0        9.145575    1.653153    1.983419
     61          1           0        9.986788    2.646113    0.693890
     62          1           0       10.597857    2.632036    2.402682
     63          1           0       11.985990   -1.037812    2.107068
     64          1           0       10.446485   -0.776006    2.687483
     65          1           0       11.530724    0.385505    3.245367
     66          1           0       -9.831054    0.316160   -2.319718
     67          1           0      -11.272297    1.163070   -2.802873
     68          1           0      -11.159252   -0.358957   -3.549064
     69          1           0      -14.444452   -2.300896   -0.622545
     70          1           0        8.412770    0.292627    0.374150
     71          1           0       -8.648203    1.980016   -0.166713
     72          1           0       11.027551   -2.165572   -2.068947
     73          1           0        9.701841   -0.847452   -2.335766
     74          1           0       11.402740   -0.781922   -3.196978
     75          1           0       15.109224    1.471321    0.556957
     76          1           0        9.560508   -2.505476   -0.710656
     77          1           0       -5.714758   -1.031601   -0.383460
     78          1           0       -6.668154   -0.985188    1.343062
     79          1           0       -7.472883   -1.631314   -0.435548
     80          1           0       -6.680123    2.614472   -0.457689
     81          1           0        7.181148   -3.766189    1.236662
     82          1           0        6.251348   -4.108089   -0.546216
     83          1           0        8.155407   -4.125526   -0.311511
     84          1           0        6.363414   -0.136195   -0.503469
     85          1           0       -4.341401    0.863616    0.187141
     86          1           0        4.800304   -2.614975    0.572619
     87          1           0       -4.418033    3.590194   -1.165859
     88          1           0        4.337723    0.450960   -0.378415
     89          1           0       -1.417476    3.967270   -1.615898
     90          1           0       -0.911360    4.015469    0.019021
     91          1           0       -2.547767    4.853163   -0.710221
     92          1           0       -2.207211    0.606572   -0.351219
     93          1           0        2.158890    1.308323   -0.169311
     94          1           0        2.610011   -2.670125    1.168721
     95          1           0        0.904171   -2.113175    0.893986
     96          1           0        2.080030   -2.911351   -0.475873
     97          1           0        0.223074    2.589614   -0.637414
     98          1           0       -0.437450   -0.473218    0.066529
 ---------------------------------------------------------------------

 SCF Done:  E(RCAM-B3LYP) =  -1706.96588544     A.U. after   15 cycles

 Excitation energies and oscillator strengths:

 Excited State   1:      Singlet-A      1.8653 eV  664.69 nm  f=2.9399  <S**2>=0.000
     155 ->158         0.13020
     156 ->157         0.70164
     156 <-157        -0.11810
 This state for optimization and/or second-order correction.
 Total Energy, E(TD-HF/TD-DFT) =  -1706.89733767
 Copying the excited state density for this state as the 1-particle RhoCI density.

 The electronic state is 1-A.
 Alpha  occ. eigenvalues --  -19.21772 -19.20618 -10.31771 -10.30333 -10.29138
 Alpha  occ. eigenvalues --  -10.28568 -10.28171 -10.28098 -10.28076 -10.28028
 Alpha  occ. eigenvalues --  -10.27958 -10.27845 -10.27459 -10.27420 -10.27256
 Alpha  occ. eigenvalues --  -10.27050 -10.26922 -10.26872 -10.26791 -10.26769
 Alpha  occ. eigenvalues --  -10.26748 -10.26673 -10.26509 -10.26376 -10.26325
 Alpha  occ. eigenvalues --  -10.26289 -10.26281 -10.26159 -10.25952 -10.25918
 Alpha  occ. eigenvalues --  -10.25840 -10.25631 -10.25530 -10.25276 -10.25241
 Alpha  occ. eigenvalues --  -10.25209 -10.25097 -10.24978 -10.24874 -10.24679
 Alpha  occ. eigenvalues --  -10.24554 -10.23689  -1.12284  -1.10115  -0.95104
 Alpha  occ. eigenvalues --   -0.93511  -0.92412  -0.91111  -0.90571  -0.89555
 Alpha  occ. eigenvalues --   -0.87331  -0.87055  -0.86365  -0.85858  -0.84169
 Alpha  occ. eigenvalues --   -0.83433  -0.81897  -0.80595  -0.79123  -0.78380
 Alpha  occ. eigenvalues --   -0.76885  -0.76606  -0.75827  -0.75715  -0.75395
 Alpha  occ. eigenvalues --   -0.74940  -0.74388  -0.73786  -0.72285  -0.70703
 Alpha  occ. eigenvalues --   -0.68969  -0.67745  -0.66538  -0.65301  -0.64001
 Alpha  occ. eigenvalues --   -0.63571  -0.62701  -0.61302  -0.60408  -0.59270
 Alpha  occ. eigenvalues --   -0.58976  -0.58652  -0.58593  -0.57555  -0.56847
 Alpha  occ. eigenvalues --   -0.55770  -0.55355  -0.54682  -0.54418  -0.53629
 Alpha  occ. eigenvalues --   -0.53340  -0.52330  -0.51760  -0.51127  -0.50563
 Alpha  occ. eigenvalues --   -0.50419  -0.50303  -0.49469  -0.49270  -0.48956
 Alpha  occ. eigenvalues --   -0.48886  -0.48563  -0.48471  -0.48011  -0.47888
 Alpha  occ. eigenvalues --   -0.47478  -0.47154  -0.47046  -0.46635  -0.46437
 Alpha  occ. eigenvalues --   -0.45791  -0.45427  -0.44880  -0.44509  -0.44364
 Alpha  occ. eigenvalues --   -0.44205  -0.43936  -0.43896  -0.43744  -0.43586
 Alpha  occ. eigenvalues --   -0.43329  -0.43223  -0.42411  -0.42079  -0.41794
 Alpha  occ. eigenvalues --   -0.41517  -0.41219  -0.41181  -0.41016  -0.40620
 Alpha  occ. eigenvalues --   -0.40146  -0.39950  -0.39779  -0.39643  -0.39534
 Alpha  occ. eigenvalues --   -0.39256  -0.38869  -0.38722  -0.38125  -0.38012
 Alpha  occ. eigenvalues --   -0.37664  -0.37418  -0.36795  -0.36534  -0.35323
 Alpha  occ. eigenvalues --   -0.34445  -0.33693  -0.32906  -0.31956  -0.31902
 Alpha  occ. eigenvalues --   -0.31161  -0.29744  -0.29433  -0.27158  -0.23799
 Alpha  occ. eigenvalues --   -0.18642
 Alpha virt. eigenvalues --   -0.06952  -0.01391   0.02348   0.05027   0.07105
 Alpha virt. eigenvalues --    0.09096   0.11033   0.11505   0.11664   0.12272
 Alpha virt. eigenvalues --    0.12597   0.12900   0.13177   0.13678   0.13900

 Mulliken charges:
               1
     1  O   -0.528703
     2  O   -0.536150
     3  C    0.016740
     4  C   -0.132597
     5  C   -0.162895
     6  C    0.149626
     7  C    0.092781
     8  C   -0.011322
     9  C   -0.300129
    10  C   -0.281106
    11  C   -0.182857
    12  C   -0.139707
    13  C    0.192906
    14  C    0.100160
    15  C   -0.084261
    16  C   -0.240328
    17  C    0.043526
    18  C   -0.321717
    19  C   -0.320168
    20  C   -0.352940
    21  C   -0.082793
    22  C   -0.133196
    23  C   -0.356379
    24  C    0.102653
    25  C   -0.097770
    26  C   -0.362170
    27  C    0.050810
    28  C   -0.112013
    29  C   -0.358277
    30  C   -0.103308
    31  C   -0.093953
    32  C   -0.092611
    33  C   -0.151436
    34  C    0.124757
    35  C   -0.128360
    36  C    0.105811
    37  C   -0.362228
    38  C   -0.126668
    39  C   -0.128679
    40  C   -0.371255
    41  C   -0.085576
    42  C   -0.077623
    43  H    0.090222
    44  H    0.103388
    45  H    0.098066
    46  H    0.022467
    47  H    0.080286
    48  H    0.106342
    49  H    0.087077
    50  H    0.118712
    51  H    0.102914
    52  H    0.073671
    53  H    0.088724
    54  H    0.069951
    55  H    0.080201
    56  H    0.050036
    57  H    0.082469
    58  H    0.086957
    59  H    0.124292
    60  H    0.085192
    61  H    0.107778
    62  H    0.111557
    63  H    0.120766
    64  H    0.094177
    65  H    0.099372
    66  H    0.118255
    67  H    0.128960
    68  H    0.109657
    69  H    0.295090
    70  H    0.098725
    71  H    0.058501
    72  H    0.113013
    73  H    0.106131
    74  H    0.109452
    75  H    0.302159
    76  H    0.097573
    77  H    0.118318
    78  H    0.126007
    79  H    0.110225
    80  H    0.091043
    81  H    0.135871
    82  H    0.105249
    83  H    0.097444
    84  H    0.073998
    85  H    0.090280
    86  H    0.094827
    87  H    0.074093
    88  H    0.085172
    89  H    0.144852
    90  H    0.087640
    91  H    0.103622
    92  H    0.085822
    93  H    0.078796
    94  H    0.124543
    95  H    0.105093
    96  H    0.123443
    97  H    0.076249
    98  H    0.084689
 Sum of Mulliken charges =  -0.00000

 Dipole moment (field-independent basis, Debye):
    X=              1.3573    Y=              0.0555    Z=             -0.2333  Tot=              1.3783
 Quadrupole moment (field-independent basis, Debye-Ang):
   XX=           -286.8049   YY=           -247.9656   ZZ=           -260.6656
   XY=              3.3663   XZ=             38.3080   YZ=              1.6004

 Normal termination of Gaussian 16 at Sat Jul 13 02:55:31 2019.
