 Gaussian 16, Revision A.03,
 Gaussian 16:  ES64L-G16RevA.03 25-Dec-2016

 -------------------------------------
 # td=(NStates=1) CAM-B3LYP/6-31G(d,p)
 -------------------------------------

 --
 TD
 --
 Symbolic Z-matrix:
 Charge =  0 Multiplicity = 1

                         Standard orientation:
 ---------------------------------------------------------------------
 Center     Atomic      Atomic             Coordinates (Angstroms)
 Number     Number       Type             X           Y           Z
 ---------------------------------------------------------------------
      1          8           0      -14.109208   -1.968676    0.591445
      2          8           0       14.825836    0.898933    0.319935
      3          6           0      -11.900369    0.224193    1.194405
      4          6           0      -11.023483    0.285025    0.014228
      5          6           0      -12.012478   -1.230378    1.630296
      6          6           0      -12.652017   -2.096508    0.494761
      7          6           0      -11.508166   -0.594701   -1.108911
      8          6           0       11.136922    1.055577    1.071497
      9          6           0      -11.137632    0.970038    2.407044
     10          6           0      -13.258127    0.873635    0.919090
     11          6           0       12.532461    1.506764    0.795074
     12          6           0      -12.169314   -1.729264   -0.855158
     13          6           0       13.528448    0.310414    0.528682
     14          6           0       10.664255   -0.000907    0.013469
     15          6           0       -9.531738   -0.027859    0.130229
     16          6           0       13.100550   -0.245600   -0.819267
     17          6           0       11.583902   -0.447985   -0.936412
     18          6           0       10.281153    2.257075    1.080513
     19          6           0       10.955997    0.317091    2.471678
     20          6           0      -11.125492   -0.290558   -2.626985
     21          6           0       -8.537410    0.943153   -0.136892
     22          6           0        9.324771   -0.408033   -0.039145
     23          6           0       11.325070   -1.315084   -2.140768
     24          6           0       -7.100358    0.586762   -0.178012
     25          6           0        8.761488   -1.644381   -0.171533
     26          6           0       -6.734540   -0.875950    0.212477
     27          6           0        7.404579   -2.109269   -0.089421
     28          6           0       -6.161835    1.496509   -0.450791
     29          6           0        7.146886   -3.507256    0.054186
     30          6           0        6.339787   -1.250564   -0.112886
     31          6           0       -4.824478    1.395488   -0.406503
     32          6           0        4.975557   -1.575248    0.046422
     33          6           0       -4.021285    2.514068   -0.767637
     34          6           0       -2.658985    2.557137   -0.904888
     35          6           0        3.958148   -0.649787   -0.147849
     36          6           0        2.563031   -0.918608   -0.053708
     37          6           0       -2.045136    3.953319   -1.198132
     38          6           0       -1.841568    1.393410   -0.725663
     39          6           0        1.700849    0.275167   -0.240724
     40          6           0        2.069253   -2.294939    0.157693
     41          6           0       -0.425350    1.414850   -0.564087
     42          6           0        0.346991    0.241043   -0.443049
     43          1           0      -10.972733    1.363763   -0.215732
     44          1           0      -12.573402   -1.403639    2.566248
     45          1           0      -11.053250   -1.495290    1.765390
     46          1           0      -12.437235   -3.136100    0.808834
     47          1           0      -10.160796    0.517958    2.672319
     48          1           0      -10.855773    2.029820    2.373384
     49          1           0      -11.707217    0.821017    3.274886
     50          1           0      -13.571446    0.653523    0.115924
     51          1           0      -13.915807    0.771560    1.815155
     52          1           0      -12.926773    2.016839    0.908445
     53          1           0       12.538224    2.033013   -0.058182
     54          1           0       13.098177    2.158878    1.614898
     55          1           0      -12.300633   -2.302697   -1.898213
     56          1           0       13.641092   -0.276348    1.363951
     57          1           0       -9.177639   -1.088037    0.477375
     58          1           0       13.681324   -1.254726   -1.033614
     59          1           0       13.785940    0.367187   -1.714713
     60          1           0        9.120542    2.075976    1.238472
     61          1           0       10.391208    2.711690    0.140459
     62          1           0       10.604925    2.988770    1.688996
     63          1           0       11.518521   -0.590099    2.816347
     64          1           0        9.787360   -0.083672    2.504055
     65          1           0       11.289318    0.975139    3.269323
     66          1           0      -10.047943   -0.668426   -2.707637
     67          1           0      -11.496252    0.815651   -2.903299
     68          1           0      -11.512401   -1.051939   -3.287256
     69          1           0      -14.489176   -2.624321   -0.018980
     70          1           0        8.877086    0.701577   -0.024012
     71          1           0       -8.798098    1.856763   -0.464278
     72          1           0       11.599193   -2.357016   -2.068813
     73          1           0       10.239577   -1.253695   -2.494035
     74          1           0       11.993084   -0.886364   -3.097440
     75          1           0       14.777686    1.640638    1.083241
     76          1           0        9.457909   -2.436653   -0.400577
     77          1           0       -5.567319   -0.935526    0.262181
     78          1           0       -7.311913   -1.399232    1.060588
     79          1           0       -6.952577   -1.495906   -0.665801
     80          1           0       -6.705852    2.500010   -0.669778
     81          1           0        6.135672   -3.599300    0.759188
     82          1           0        6.648830   -3.888146   -1.040633
     83          1           0        8.252680   -4.061793    0.587807
     84          1           0        6.566473   -0.213152   -0.183508
     85          1           0       -4.407406    0.391620   -0.150520
     86          1           0        4.793648   -2.644509    0.286593
     87          1           0       -4.679182    3.360976   -0.769022
     88          1           0        4.327182    0.456695   -0.304659
     89          1           0       -1.320769    4.128732   -1.998824
     90          1           0       -1.397194    4.469429   -0.418862
     91          1           0       -2.708618    4.736189   -1.411850
     92          1           0       -2.264524    0.456035   -0.370854
     93          1           0        2.171006    1.123332   -0.520759
     94          1           0        2.872678   -2.813410    1.073582
     95          1           0        1.037588   -2.294166    0.640097
     96          1           0        2.221938   -2.928303   -0.833465
     97          1           0        0.166283    2.202171   -0.867334
     98          1           0       -0.198256   -0.731582   -0.486081
 ---------------------------------------------------------------------

 SCF Done:  E(RCAM-B3LYP) =  -1706.87771793     A.U. after   16 cycles

 Excitation energies and oscillator strengths:

 Excited State   1:      Singlet-A      1.7554 eV  706.31 nm  f=3.0587  <S**2>=0.000
     155 ->158        -0.13119
     156 ->157         0.70314
     156 <-157        -0.12657
 This state for optimization and/or second-order correction.
 Total Energy, E(TD-HF/TD-DFT) =  -1706.81320920
 Copying the excited state density for this state as the 1-particle RhoCI density.

 The electronic state is 1-A.
 Alpha  occ. eigenvalues --  -19.20935 -19.20630 -10.31009 -10.29833 -10.29415
 Alpha  occ. eigenvalues --  -10.29244 -10.28517 -10.28496 -10.28309 -10.27935
 Alpha  occ. eigenvalues --  -10.27517 -10.27409 -10.27373 -10.27347 -10.27149
 Alpha  occ. eigenvalues --  -10.27106 -10.27046 -10.27003 -10.26893 -10.26695
 Alpha  occ. eigenvalues --  -10.26678 -10.26672 -10.26574 -10.26428 -10.26387
 Alpha  occ. eigenvalues --  -10.26354 -10.26350 -10.26314 -10.26300 -10.26298
 Alpha  occ. eigenvalues --  -10.26176 -10.26157 -10.26099 -10.25766 -10.25698
 Alpha  occ. eigenvalues --  -10.25677 -10.25658 -10.24860 -10.24424 -10.23990
 Alpha  occ. eigenvalues --  -10.23557 -10.22509  -1.07732  -1.07414  -0.94357
 Alpha  occ. eigenvalues --   -0.94112  -0.92377  -0.92083  -0.90944  -0.89691
 Alpha  occ. eigenvalues --   -0.87593  -0.86901  -0.86193  -0.85319  -0.84790
 Alpha  occ. eigenvalues --   -0.82773  -0.81983  -0.79983  -0.79707  -0.78692
 Alpha  occ. eigenvalues --   -0.76743  -0.76670  -0.76562  -0.76123  -0.75533
 Alpha  occ. eigenvalues --   -0.74902  -0.74771  -0.74556  -0.72679  -0.70586
 Alpha  occ. eigenvalues --   -0.69034  -0.67842  -0.66750  -0.64752  -0.64322
 Alpha  occ. eigenvalues --   -0.64082  -0.62896  -0.62429  -0.61213  -0.59496
 Alpha  occ. eigenvalues --   -0.59318  -0.58668  -0.58018  -0.57482  -0.56358
 Alpha  occ. eigenvalues --   -0.55897  -0.55098  -0.54454  -0.54058  -0.53880
 Alpha  occ. eigenvalues --   -0.53265  -0.52562  -0.52198  -0.52108  -0.51298
 Alpha  occ. eigenvalues --   -0.50590  -0.50056  -0.49514  -0.49162  -0.48906
 Alpha  occ. eigenvalues --   -0.48630  -0.48380  -0.48155  -0.47537  -0.47330
 Alpha  occ. eigenvalues --   -0.47139  -0.47015  -0.46393  -0.46227  -0.46092
 Alpha  occ. eigenvalues --   -0.45687  -0.45605  -0.45361  -0.45057  -0.44970
 Alpha  occ. eigenvalues --   -0.44409  -0.44057  -0.43922  -0.43670  -0.43619
 Alpha  occ. eigenvalues --   -0.43320  -0.42782  -0.42479  -0.42415  -0.41964
 Alpha  occ. eigenvalues --   -0.41833  -0.41303  -0.41141  -0.40808  -0.40736
 Alpha  occ. eigenvalues --   -0.40218  -0.39976  -0.39951  -0.39915  -0.39668
 Alpha  occ. eigenvalues --   -0.39379  -0.38822  -0.38774  -0.38281  -0.37901
 Alpha  occ. eigenvalues --   -0.37884  -0.37491  -0.37141  -0.36206  -0.35496
 Alpha  occ. eigenvalues --   -0.34978  -0.34246  -0.33714  -0.32222  -0.31824
 Alpha  occ. eigenvalues --   -0.31333  -0.29836  -0.28841  -0.26642  -0.23457
 Alpha  occ. eigenvalues --   -0.18397
 Alpha virt. eigenvalues --   -0.07402  -0.01678   0.02048   0.04980   0.07003
 Alpha virt. eigenvalues --    0.08251   0.09859   0.10111   0.10820   0.11382
 Alpha virt. eigenvalues --    0.11746   0.12081   0.12554   0.13175   0.13543

 Mulliken charges:
               1
     1  O   -0.553883
     2  O   -0.568658
     3  C    0.000006
     4  C   -0.128748
     5  C   -0.167038
     6  C    0.106521
     7  C    0.097169
     8  C    0.002204
     9  C   -0.327762
    10  C   -0.229592
    11  C   -0.212892
    12  C   -0.111066
    13  C    0.183507
    14  C    0.034662
    15  C   -0.082224
    16  C   -0.227686
    17  C    0.073632
    18  C   -0.309495
    19  C   -0.301802
    20  C   -0.348813
    21  C   -0.094199
    22  C   -0.097246
    23  C   -0.363219
    24  C    0.103588
    25  C   -0.128811
    26  C   -0.378125
    27  C    0.139672
    28  C   -0.106760
    29  C   -0.365646
    30  C   -0.096051
    31  C   -0.066740
    32  C   -0.093573
    33  C   -0.134602
    34  C    0.112941
    35  C   -0.113136
    36  C    0.104693
    37  C   -0.394792
    38  C   -0.128652
    39  C   -0.108227
    40  C   -0.356269
    41  C   -0.077857
    42  C   -0.086020
    43  H    0.088418
    44  H    0.104885
    45  H    0.100440
    46  H    0.079721
    47  H    0.097560
    48  H    0.096155
    49  H    0.101356
    50  H    0.107272
    51  H    0.105679
    52  H    0.058590
    53  H    0.124584
    54  H    0.052013
    55  H    0.066083
    56  H    0.099011
    57  H    0.082707
    58  H    0.098032
    59  H    0.099705
    60  H    0.095022
    61  H    0.111336
    62  H    0.115010
    63  H    0.101505
    64  H    0.092279
    65  H    0.096251
    66  H    0.122836
    67  H    0.110365
    68  H    0.110596
    69  H    0.303742
    70  H    0.087803
    71  H    0.079301
    72  H    0.126130
    73  H    0.108079
    74  H    0.081173
    75  H    0.293792
    76  H    0.088307
    77  H    0.090443
    78  H    0.118427
    79  H    0.128158
    80  H    0.070744
    81  H    0.104251
    82  H    0.108937
    83  H    0.081149
    84  H    0.072866
    85  H    0.086187
    86  H    0.073264
    87  H    0.090677
    88  H    0.083172
    89  H    0.119873
    90  H    0.111612
    91  H    0.119386
    92  H    0.084703
    93  H    0.081641
    94  H    0.076053
    95  H    0.121422
    96  H    0.127952
    97  H    0.084259
    98  H    0.080079
 Sum of Mulliken charges =  -0.00000

 Dipole moment (field-independent basis, Debye):
    X=             -1.1179    Y=             -0.4140    Z=             -0.2987  Tot=              1.2290
 Quadrupole moment (field-independent basis, Debye-Ang):
   XX=           -312.9627   YY=           -240.3497   ZZ=           -262.8210
   XY=             20.7992   XZ=             27.8085   YZ=              2.0304

 Normal termination of Gaussian 16 at Sun Jul 14 22:58:02 2019.
