 Gaussian 16, Revision A.03,
 Gaussian 16:  ES64L-G16RevA.03 25-Dec-2016

 -------------------------------------
 # td=(NStates=1) CAM-B3LYP/6-31G(d,p)
 -------------------------------------

 --
 TD
 --
 Symbolic Z-matrix:
 Charge =  0 Multiplicity = 1

                         Standard orientation:
 ---------------------------------------------------------------------
 Center     Atomic      Atomic             Coordinates (Angstroms)
 Number     Number       Type             X           Y           Z
 ---------------------------------------------------------------------
      1          8           0      -14.212958   -1.796939    0.377209
      2          8           0       14.792053    1.080829    0.238906
      3          6           0      -11.743678   -0.009405    1.341182
      4          6           0      -11.018455    0.280030   -0.015814
      5          6           0      -12.051118   -1.567339    1.391143
      6          6           0      -12.804890   -2.009680    0.244923
      7          6           0      -11.632073   -0.367331   -1.261042
      8          6           0       11.121402    0.869278    1.130454
      9          6           0      -10.843063    0.446687    2.516120
     10          6           0      -13.088909    0.856268    1.389977
     11          6           0       12.442947    1.492035    0.838803
     12          6           0      -12.393506   -1.450327   -1.111897
     13          6           0       13.440024    0.494289    0.298717
     14          6           0       10.707106   -0.132787    0.050887
     15          6           0       -9.461503   -0.082333   -0.044005
     16          6           0       12.996064    0.028657   -1.060204
     17          6           0       11.518697   -0.417159   -0.954694
     18          6           0       10.075146    2.056928    1.314350
     19          6           0       11.139364    0.092626    2.477247
     20          6           0      -11.302304    0.256404   -2.536012
     21          6           0       -8.539792    0.839519   -0.070726
     22          6           0        9.317413   -0.476091    0.101675
     23          6           0       11.185829   -1.127734   -2.149080
     24          6           0       -7.092117    0.415177   -0.103719
     25          6           0        8.881749   -1.743182   -0.176183
     26          6           0       -6.666976   -0.972087    0.214209
     27          6           0        7.412444   -2.122760   -0.182031
     28          6           0       -6.202338    1.468936   -0.201629
     29          6           0        7.150580   -3.595122    0.077394
     30          6           0        6.431047   -1.217513   -0.237310
     31          6           0       -4.742469    1.420902   -0.404392
     32          6           0        5.048236   -1.517488   -0.042634
     33          6           0       -3.923983    2.586844   -0.500613
     34          6           0       -2.551733    2.546115   -0.671308
     35          6           0        3.950567   -0.628015   -0.245293
     36          6           0        2.580358   -0.809135   -0.252632
     37          6           0       -1.947597    3.907336   -1.037524
     38          6           0       -1.730297    1.513555   -0.523392
     39          6           0        1.741646    0.246789   -0.405511
     40          6           0        2.061213   -2.233650    0.018223
     41          6           0       -0.302693    1.470105   -0.473347
     42          6           0        0.315397    0.239364   -0.418052
     43          1           0      -10.951241    1.368558   -0.192666
     44          1           0      -12.528450   -1.675602    2.396220
     45          1           0      -11.086661   -1.889412    1.262419
     46          1           0      -12.539408   -3.002520    0.108093
     47          1           0       -9.916943   -0.130037    2.667262
     48          1           0      -10.695076    1.494591    2.303140
     49          1           0      -11.563727    0.368738    3.513754
     50          1           0      -13.731682    0.843825    0.341769
     51          1           0      -13.800805    0.503214    2.043550
     52          1           0      -12.787494    1.978779    1.595899
     53          1           0       12.194375    2.152071   -0.067597
     54          1           0       12.629755    2.118407    1.727597
     55          1           0      -13.001226   -1.999374   -1.974973
     56          1           0       13.199449   -0.297058    0.997109
     57          1           0       -9.196673   -1.302481   -0.016051
     58          1           0       13.613445   -0.959279   -1.416479
     59          1           0       13.153663    0.855768   -1.595085
     60          1           0        9.098311    1.645983    1.712810
     61          1           0       10.021759    2.248036    0.280763
     62          1           0       10.623291    2.943164    1.976166
     63          1           0       11.756709   -0.801336    2.294838
     64          1           0       10.189669   -0.234741    2.750456
     65          1           0       11.483471    0.802433    3.285318
     66          1           0       -9.950819    0.166480   -2.469733
     67          1           0      -11.611255    1.380317   -2.797304
     68          1           0      -11.788007   -0.193841   -3.435408
     69          1           0      -14.598254   -1.906924   -0.500376
     70          1           0        8.570186    0.182233    0.675340
     71          1           0       -8.702809    2.027724   -0.061048
     72          1           0       11.625546   -2.169435   -2.075541
     73          1           0       10.088027   -1.357845   -2.275486
     74          1           0       11.533023   -0.648909   -3.115364
     75          1           0       15.121933    1.072292    1.260784
     76          1           0        9.562788   -2.474298   -0.597940
     77          1           0       -5.551683   -0.970703    0.372252
     78          1           0       -6.908676   -1.562309    1.016600
     79          1           0       -7.075859   -1.739208   -0.494188
     80          1           0       -6.783326    2.447785   -0.323683
     81          1           0        7.152852   -3.943816    1.161795
     82          1           0        6.120214   -3.879464   -0.250801
     83          1           0        7.877023   -4.295557   -0.312220
     84          1           0        6.548138   -0.109669   -0.472825
     85          1           0       -4.116421    0.527591   -0.381565
     86          1           0        4.859880   -2.517370    0.489895
     87          1           0       -4.401658    3.381583   -0.563533
     88          1           0        4.409913    0.339545   -0.616151
     89          1           0       -1.585964    3.815860   -2.124173
     90          1           0       -0.902713    4.195999   -0.543088
     91          1           0       -2.649292    4.683981   -1.107863
     92          1           0       -2.286883    0.718785    0.047878
     93          1           0        2.298129    1.419049   -0.652248
     94          1           0        2.076729   -2.542421    1.147308
     95          1           0        0.971877   -2.190344   -0.297848
     96          1           0        2.614764   -2.985416   -0.601324
     97          1           0        0.271635    2.230575   -0.887370
     98          1           0       -0.452708   -0.697347   -0.095549
 ---------------------------------------------------------------------

 SCF Done:  E(RCAM-B3LYP) =  -1706.93921177     A.U. after   14 cycles

 Excitation energies and oscillator strengths:

 Excited State   1:      Singlet-A      2.3503 eV  527.53 nm  f=2.9411  <S**2>=0.000
     155 ->158        -0.15815
     156 ->157         0.68740
 This state for optimization and/or second-order correction.
 Total Energy, E(TD-HF/TD-DFT) =  -1706.85284122
 Copying the excited state density for this state as the 1-particle RhoCI density.

 The electronic state is 1-A.
 Alpha  occ. eigenvalues --  -19.22156 -19.20938 -10.29827 -10.29394 -10.28532
 Alpha  occ. eigenvalues --  -10.28402 -10.28372 -10.28187 -10.27845 -10.27699
 Alpha  occ. eigenvalues --  -10.27583 -10.27559 -10.27465 -10.27298 -10.27190
 Alpha  occ. eigenvalues --  -10.27116 -10.26912 -10.26905 -10.26896 -10.26608
 Alpha  occ. eigenvalues --  -10.26563 -10.26464 -10.26445 -10.26393 -10.26364
 Alpha  occ. eigenvalues --  -10.26340 -10.26100 -10.26092 -10.26037 -10.26019
 Alpha  occ. eigenvalues --  -10.25892 -10.25860 -10.25776 -10.25548 -10.25447
 Alpha  occ. eigenvalues --  -10.25339 -10.25306 -10.25034 -10.24998 -10.24593
 Alpha  occ. eigenvalues --  -10.24284 -10.23997  -1.09261  -1.06241  -0.94857
 Alpha  occ. eigenvalues --   -0.93213  -0.92623  -0.91515  -0.90578  -0.90065
 Alpha  occ. eigenvalues --   -0.87855  -0.87241  -0.86502  -0.85939  -0.85012
 Alpha  occ. eigenvalues --   -0.83040  -0.82047  -0.80956  -0.80047  -0.77917
 Alpha  occ. eigenvalues --   -0.77184  -0.76212  -0.76139  -0.75543  -0.75175
 Alpha  occ. eigenvalues --   -0.75080  -0.74828  -0.73985  -0.73544  -0.70290
 Alpha  occ. eigenvalues --   -0.69015  -0.67804  -0.66710  -0.65127  -0.63090
 Alpha  occ. eigenvalues --   -0.62382  -0.62081  -0.61686  -0.60758  -0.60065
 Alpha  occ. eigenvalues --   -0.59599  -0.59029  -0.58980  -0.57312  -0.55838
 Alpha  occ. eigenvalues --   -0.55210  -0.54744  -0.54139  -0.53949  -0.53624
 Alpha  occ. eigenvalues --   -0.53262  -0.52738  -0.52252  -0.51671  -0.51006
 Alpha  occ. eigenvalues --   -0.50693  -0.50036  -0.49433  -0.49190  -0.48991
 Alpha  occ. eigenvalues --   -0.48687  -0.48091  -0.47938  -0.47784  -0.47514
 Alpha  occ. eigenvalues --   -0.47261  -0.46640  -0.46451  -0.46363  -0.46029
 Alpha  occ. eigenvalues --   -0.45982  -0.45370  -0.45272  -0.45079  -0.44723
 Alpha  occ. eigenvalues --   -0.44599  -0.44165  -0.44122  -0.43767  -0.43506
 Alpha  occ. eigenvalues --   -0.43225  -0.43079  -0.42818  -0.42650  -0.42320
 Alpha  occ. eigenvalues --   -0.42123  -0.41485  -0.41259  -0.41001  -0.40820
 Alpha  occ. eigenvalues --   -0.40602  -0.40202  -0.39540  -0.39431  -0.38919
 Alpha  occ. eigenvalues --   -0.38667  -0.38546  -0.38258  -0.38049  -0.37984
 Alpha  occ. eigenvalues --   -0.37096  -0.36871  -0.36488  -0.36333  -0.35591
 Alpha  occ. eigenvalues --   -0.35401  -0.34856  -0.34206  -0.32610  -0.31523
 Alpha  occ. eigenvalues --   -0.31367  -0.29779  -0.29113  -0.27332  -0.24326
 Alpha  occ. eigenvalues --   -0.20281
 Alpha virt. eigenvalues --   -0.05567  -0.01080   0.02724   0.05546   0.06608
 Alpha virt. eigenvalues --    0.08679   0.09774   0.10265   0.10622   0.11079
 Alpha virt. eigenvalues --    0.11748   0.11792   0.12270   0.13045   0.13693

 Mulliken charges:
               1
     1  O   -0.552946
     2  O   -0.572306
     3  C    0.015436
     4  C   -0.143617
     5  C   -0.177892
     6  C    0.190022
     7  C    0.169877
     8  C   -0.076209
     9  C   -0.287507
    10  C   -0.285039
    11  C   -0.161082
    12  C   -0.200282
    13  C    0.147430
    14  C    0.084876
    15  C   -0.116741
    16  C   -0.197747
    17  C    0.059072
    18  C   -0.289288
    19  C   -0.285425
    20  C   -0.341446
    21  C   -0.073202
    22  C   -0.106375
    23  C   -0.383257
    24  C    0.134663
    25  C   -0.119148
    26  C   -0.384240
    27  C    0.079149
    28  C   -0.145758
    29  C   -0.377473
    30  C   -0.103467
    31  C   -0.090771
    32  C   -0.106705
    33  C   -0.072859
    34  C    0.133545
    35  C   -0.127014
    36  C    0.121212
    37  C   -0.386836
    38  C   -0.151423
    39  C   -0.123149
    40  C   -0.360156
    41  C   -0.074509
    42  C   -0.074619
    43  H    0.090841
    44  H    0.109479
    45  H    0.098309
    46  H    0.086157
    47  H    0.109108
    48  H    0.105226
    49  H    0.071128
    50  H    0.083533
    51  H    0.121156
    52  H    0.070660
    53  H    0.077454
    54  H    0.085699
    55  H    0.065128
    56  H    0.083468
    57  H    0.078344
    58  H    0.095759
    59  H    0.131968
    60  H    0.099743
    61  H    0.119952
    62  H    0.084139
    63  H    0.097221
    64  H    0.110479
    65  H    0.084050
    66  H    0.079130
    67  H    0.102883
    68  H    0.109460
    69  H    0.303455
    70  H    0.092540
    71  H    0.094215
    72  H    0.108687
    73  H    0.113075
    74  H    0.111764
    75  H    0.309359
    76  H    0.089267
    77  H    0.108006
    78  H    0.136210
    79  H    0.110190
    80  H    0.077620
    81  H    0.114568
    82  H    0.112082
    83  H    0.113534
    84  H    0.085461
    85  H    0.089262
    86  H    0.078359
    87  H    0.051911
    88  H    0.067486
    89  H    0.114489
    90  H    0.106990
    91  H    0.114414
    92  H    0.069790
    93  H    0.068155
    94  H    0.115002
    95  H    0.103855
    96  H    0.120674
    97  H    0.091926
    98  H    0.090386
 Sum of Mulliken charges =  -0.00000

 Dipole moment (field-independent basis, Debye):
    X=             -0.7282    Y=             -1.0443    Z=              0.0631  Tot=              1.2747
 Quadrupole moment (field-independent basis, Debye-Ang):
   XX=           -289.1030   YY=           -247.6624   ZZ=           -262.2971
   XY=             -9.1244   XZ=             35.9343   YZ=              0.0141

 Normal termination of Gaussian 16 at Sun Jul 14 08:14:32 2019.
