 Gaussian 16, Revision A.03,
 Gaussian 16:  ES64L-G16RevA.03 25-Dec-2016

 -------------------------------------
 # td=(NStates=1) CAM-B3LYP/6-31G(d,p)
 -------------------------------------

 --
 TD
 --
 Symbolic Z-matrix:
 Charge =  0 Multiplicity = 1

                         Standard orientation:
 ---------------------------------------------------------------------
 Center     Atomic      Atomic             Coordinates (Angstroms)
 Number     Number       Type             X           Y           Z
 ---------------------------------------------------------------------
      1          8           0      -14.160693   -1.800012    0.507513
      2          8           0       14.852642    0.946735    0.131098
      3          6           0      -11.797151    0.150535    1.298798
      4          6           0      -10.958809    0.393534   -0.020691
      5          6           0      -12.111026   -1.291981    1.549102
      6          6           0      -12.745947   -2.036027    0.359666
      7          6           0      -11.501866   -0.437128   -1.165465
      8          6           0       11.227960    1.028927    1.134009
      9          6           0      -10.995381    0.707439    2.437013
     10          6           0      -13.102637    0.973800    1.200431
     11          6           0       12.530475    1.558089    0.791673
     12          6           0      -12.331979   -1.561723   -0.962794
     13          6           0       13.512389    0.514992    0.312398
     14          6           0       10.713443    0.008919    0.068907
     15          6           0       -9.579217   -0.075427    0.139186
     16          6           0       12.987363   -0.135485   -0.911642
     17          6           0       11.518177   -0.558748   -0.875110
     18          6           0       10.209794    2.199007    1.197912
     19          6           0       11.105321    0.297337    2.495274
     20          6           0      -11.086088    0.066249   -2.512430
     21          6           0       -8.490318    0.670704   -0.200100
     22          6           0        9.285423   -0.411983    0.103407
     23          6           0       11.195028   -1.354768   -2.060837
     24          6           0       -7.071897    0.351969   -0.172397
     25          6           0        8.756816   -1.622761    0.063746
     26          6           0       -6.748826   -1.038579    0.152253
     27          6           0        7.475428   -2.112157   -0.018214
     28          6           0       -6.239995    1.397908   -0.306642
     29          6           0        7.129035   -3.610068    0.126247
     30          6           0        6.384570   -1.226003   -0.188905
     31          6           0       -4.862877    1.374920   -0.393124
     32          6           0        4.937996   -1.574000   -0.143616
     33          6           0       -4.005318    2.478004   -0.687138
     34          6           0       -2.577943    2.461800   -0.853249
     35          6           0        4.018758   -0.569130   -0.299557
     36          6           0        2.631089   -0.822598   -0.235110
     37          6           0       -1.824113    3.766534   -1.178310
     38          6           0       -1.851613    1.297337   -0.608536
     39          6           0        1.783160    0.337809   -0.318251
     40          6           0        2.082139   -2.121243   -0.015651
     41          6           0       -0.440090    1.294063   -0.569954
     42          6           0        0.393291    0.210557   -0.339959
     43          1           0      -10.955218    1.480721   -0.391558
     44          1           0      -12.767581   -1.431835    2.467102
     45          1           0      -11.219034   -1.921669    1.594884
     46          1           0      -12.646091   -3.201052    0.423561
     47          1           0      -10.027815    0.370633    2.441267
     48          1           0      -10.655205    1.704581    2.330323
     49          1           0      -11.463330    0.519637    3.448840
     50          1           0      -13.600894    0.667286    0.396421
     51          1           0      -13.998192    1.198693    1.897493
     52          1           0      -12.768906    2.024251    0.799037
     53          1           0       12.363115    2.141080   -0.068012
     54          1           0       12.952729    2.119564    1.567722
     55          1           0      -12.724892   -2.023914   -1.687588
     56          1           0       13.501991   -0.330683    1.209384
     57          1           0       -9.642456   -1.115103    0.578219
     58          1           0       13.621203   -0.986875   -1.065696
     59          1           0       13.176426    0.404770   -1.802570
     60          1           0        9.317576    1.785295    1.562723
     61          1           0       10.049944    2.478754    0.176339
     62          1           0       10.451783    2.984758    1.861154
     63          1           0       11.756422   -0.495778    2.586048
     64          1           0       10.042601    0.063420    2.665337
     65          1           0       11.358345    0.986980    3.348620
     66          1           0      -10.022787   -0.023269   -2.657451
     67          1           0      -11.231612    1.271401   -2.598649
     68          1           0      -11.790851   -0.234427   -3.336791
     69          1           0      -14.584623   -2.101471   -0.208901
     70          1           0        8.558679    0.396330    0.409103
     71          1           0       -8.731761    1.677031   -0.742503
     72          1           0       11.779386   -2.360603   -2.054221
     73          1           0       10.156264   -1.470067   -2.064915
     74          1           0       11.557744   -0.925414   -2.917229
     75          1           0       15.047647    1.694143    0.797088
     76          1           0        9.494320   -2.396108   -0.337122
     77          1           0       -5.668869   -1.244507   -0.144235
     78          1           0       -6.985959   -0.862668    1.386966
     79          1           0       -7.429775   -1.623825   -0.330868
     80          1           0       -6.850476    2.209807   -0.417477
     81          1           0        6.636371   -4.049404    1.162573
     82          1           0        6.292537   -3.968083   -0.511089
     83          1           0        8.088425   -3.940077    0.073679
     84          1           0        6.614551   -0.195447   -0.416281
     85          1           0       -4.413259    0.339961   -0.128962
     86          1           0        4.657646   -2.553661    0.152959
     87          1           0       -4.497782    3.416750   -0.814278
     88          1           0        4.171175    0.434230   -0.324629
     89          1           0       -1.125420    3.669336   -2.069534
     90          1           0       -1.475291    4.229542   -0.259385
     91          1           0       -2.773078    4.541322   -1.371825
     92          1           0       -2.146055    0.396953   -0.412165
     93          1           0        2.133811    1.313460   -0.776243
     94          1           0        2.138426   -2.669420    1.099622
     95          1           0        0.901918   -2.046478   -0.331607
     96          1           0        2.456055   -2.930287   -0.664553
     97          1           0        0.125581    2.255230   -0.805661
     98          1           0       -0.068448   -0.731306   -0.187393
 ---------------------------------------------------------------------

 SCF Done:  E(RCAM-B3LYP) =  -1706.97991909     A.U. after   15 cycles

 Excitation energies and oscillator strengths:

 Excited State   1:      Singlet-A      2.0526 eV  604.04 nm  f=3.0675  <S**2>=0.000
     155 ->158         0.14712
     156 ->157         0.69282
 This state for optimization and/or second-order correction.
 Total Energy, E(TD-HF/TD-DFT) =  -1706.90448854
 Copying the excited state density for this state as the 1-particle RhoCI density.

 The electronic state is 1-A.
 Alpha  occ. eigenvalues --  -19.21633 -19.19703 -10.31142 -10.30549 -10.28310
 Alpha  occ. eigenvalues --  -10.28110 -10.27792 -10.27619 -10.27434 -10.27222
 Alpha  occ. eigenvalues --  -10.27189 -10.27165 -10.27138 -10.27079 -10.27078
 Alpha  occ. eigenvalues --  -10.27021 -10.27003 -10.26928 -10.26902 -10.26876
 Alpha  occ. eigenvalues --  -10.26528 -10.26367 -10.26365 -10.26242 -10.26187
 Alpha  occ. eigenvalues --  -10.25861 -10.25843 -10.25763 -10.25581 -10.25348
 Alpha  occ. eigenvalues --  -10.25229 -10.25203 -10.24837 -10.24788 -10.24569
 Alpha  occ. eigenvalues --  -10.24174 -10.23727 -10.23707 -10.23564 -10.23342
 Alpha  occ. eigenvalues --  -10.23140 -10.22550  -1.10376  -1.08450  -0.94626
 Alpha  occ. eigenvalues --   -0.94152  -0.92633  -0.92266  -0.90841  -0.90222
 Alpha  occ. eigenvalues --   -0.87940  -0.87364  -0.86983  -0.85857  -0.84794
 Alpha  occ. eigenvalues --   -0.83606  -0.82218  -0.80850  -0.80424  -0.78411
 Alpha  occ. eigenvalues --   -0.77437  -0.77145  -0.76604  -0.76500  -0.76349
 Alpha  occ. eigenvalues --   -0.76159  -0.75639  -0.75387  -0.72523  -0.70597
 Alpha  occ. eigenvalues --   -0.69070  -0.67930  -0.66329  -0.65095  -0.64008
 Alpha  occ. eigenvalues --   -0.63801  -0.63215  -0.62713  -0.61248  -0.59708
 Alpha  occ. eigenvalues --   -0.59447  -0.59036  -0.58277  -0.57534  -0.57394
 Alpha  occ. eigenvalues --   -0.56531  -0.55582  -0.55210  -0.54712  -0.54558
 Alpha  occ. eigenvalues --   -0.54337  -0.53727  -0.53030  -0.52419  -0.51684
 Alpha  occ. eigenvalues --   -0.50848  -0.50373  -0.50171  -0.50022  -0.49831
 Alpha  occ. eigenvalues --   -0.49444  -0.49213  -0.48971  -0.48893  -0.48199
 Alpha  occ. eigenvalues --   -0.47747  -0.47635  -0.47148  -0.46727  -0.46363
 Alpha  occ. eigenvalues --   -0.46127  -0.45668  -0.45410  -0.45279  -0.44902
 Alpha  occ. eigenvalues --   -0.44658  -0.44358  -0.44028  -0.43806  -0.43343
 Alpha  occ. eigenvalues --   -0.43209  -0.43006  -0.42733  -0.42407  -0.42338
 Alpha  occ. eigenvalues --   -0.42073  -0.41417  -0.41385  -0.41043  -0.40496
 Alpha  occ. eigenvalues --   -0.40431  -0.40126  -0.39977  -0.39516  -0.39492
 Alpha  occ. eigenvalues --   -0.39267  -0.38961  -0.38354  -0.38165  -0.37990
 Alpha  occ. eigenvalues --   -0.37810  -0.37177  -0.37001  -0.36427  -0.35864
 Alpha  occ. eigenvalues --   -0.35802  -0.34738  -0.33770  -0.32365  -0.31557
 Alpha  occ. eigenvalues --   -0.31150  -0.29412  -0.28788  -0.26732  -0.23506
 Alpha  occ. eigenvalues --   -0.19094
 Alpha virt. eigenvalues --   -0.06135  -0.01223   0.02410   0.04441   0.07018
 Alpha virt. eigenvalues --    0.08583   0.10837   0.11372   0.11790   0.11951
 Alpha virt. eigenvalues --    0.12581   0.12962   0.13178   0.13750   0.14031

 Mulliken charges:
               1
     1  O   -0.530448
     2  O   -0.573177
     3  C    0.031884
     4  C   -0.164651
     5  C   -0.174087
     6  C    0.118119
     7  C    0.114783
     8  C   -0.022242
     9  C   -0.291740
    10  C   -0.290035
    11  C   -0.180288
    12  C   -0.097199
    13  C    0.194015
    14  C    0.056747
    15  C   -0.078277
    16  C   -0.229844
    17  C    0.050963
    18  C   -0.303805
    19  C   -0.294286
    20  C   -0.362150
    21  C   -0.132983
    22  C   -0.151831
    23  C   -0.352062
    24  C    0.090453
    25  C   -0.087956
    26  C   -0.335506
    27  C    0.077734
    28  C   -0.071678
    29  C   -0.343604
    30  C   -0.119445
    31  C   -0.087805
    32  C   -0.104031
    33  C   -0.125859
    34  C    0.074987
    35  C   -0.066695
    36  C    0.123007
    37  C   -0.366683
    38  C   -0.058066
    39  C   -0.139381
    40  C   -0.378179
    41  C   -0.104714
    42  C   -0.077913
    43  H    0.094843
    44  H    0.119313
    45  H    0.088451
    46  H    0.067132
    47  H    0.099066
    48  H    0.097823
    49  H    0.091589
    50  H    0.121165
    51  H    0.100887
    52  H    0.059217
    53  H    0.101803
    54  H    0.078752
    55  H    0.061090
    56  H    0.034948
    57  H    0.100082
    58  H    0.111554
    59  H    0.115090
    60  H    0.105627
    61  H    0.105017
    62  H    0.103458
    63  H    0.113823
    64  H    0.110930
    65  H    0.079969
    66  H    0.138618
    67  H    0.084013
    68  H    0.114560
    69  H    0.282282
    70  H    0.073012
    71  H    0.080160
    72  H    0.101483
    73  H    0.120234
    74  H    0.123451
    75  H    0.310020
    76  H    0.065627
    77  H    0.106151
    78  H    0.113432
    79  H    0.131448
    80  H    0.065484
    81  H    0.086585
    82  H    0.121980
    83  H    0.112114
    84  H    0.077069
    85  H    0.078748
    86  H    0.090571
    87  H    0.079123
    88  H    0.079227
    89  H    0.133293
    90  H    0.143877
    91  H    0.078355
    92  H    0.058828
    93  H    0.091900
    94  H    0.100085
    95  H    0.087614
    96  H    0.124749
    97  H    0.067242
    98  H    0.080959
 Sum of Mulliken charges =  -0.00000

 Dipole moment (field-independent basis, Debye):
    X=             -1.9598    Y=              0.2918    Z=             -1.1674  Tot=              2.2998
 Quadrupole moment (field-independent basis, Debye-Ang):
   XX=           -289.3115   YY=           -244.2845   ZZ=           -261.7228
   XY=             23.5283   XZ=             30.3403   YZ=              2.9137

 Normal termination of Gaussian 16 at Sat Jul 13 13:07:47 2019.
