 Gaussian 16, Revision A.03,
 Gaussian 16:  ES64L-G16RevA.03 25-Dec-2016

 -------------------------------------
 # td=(NStates=1) CAM-B3LYP/6-31G(d,p)
 -------------------------------------

 --
 TD
 --
 Symbolic Z-matrix:
 Charge =  0 Multiplicity = 1

                         Standard orientation:
 ---------------------------------------------------------------------
 Center     Atomic      Atomic             Coordinates (Angstroms)
 Number     Number       Type             X           Y           Z
 ---------------------------------------------------------------------
      1          8           0      -14.212499   -2.020768    0.687253
      2          8           0       14.792223    0.946178    0.214034
      3          6           0      -11.674647    0.130607    1.328513
      4          6           0      -10.968587    0.264426   -0.088220
      5          6           0      -12.057865   -1.357487    1.546341
      6          6           0      -12.768104   -2.141797    0.380727
      7          6           0      -11.574785   -0.481254   -1.162027
      8          6           0       11.128850    0.973838    1.076960
      9          6           0      -10.904436    0.725151    2.527659
     10          6           0      -13.008638    0.960401    1.258209
     11          6           0       12.659440    1.414313    0.962917
     12          6           0      -12.302224   -1.536286   -1.039093
     13          6           0       13.472160    0.375842    0.430214
     14          6           0       10.634900   -0.098461    0.003252
     15          6           0       -9.560513   -0.186834   -0.000264
     16          6           0       12.964252   -0.151128   -0.921853
     17          6           0       11.542012   -0.511273   -0.936337
     18          6           0       10.233035    2.186692    1.106048
     19          6           0       11.045829    0.260527    2.529819
     20          6           0      -11.247510   -0.022564   -2.569913
     21          6           0       -8.515706    0.648708   -0.168458
     22          6           0        9.283927   -0.423785    0.083066
     23          6           0       11.032680   -1.276463   -2.117978
     24          6           0       -7.039865    0.440079   -0.123931
     25          6           0        8.833699   -1.697492    0.014784
     26          6           0       -6.660273   -0.971717    0.042265
     27          6           0        7.397247   -2.099433   -0.147413
     28          6           0       -6.216066    1.516867   -0.358849
     29          6           0        7.226733   -3.553627    0.083602
     30          6           0        6.354974   -1.252598   -0.248967
     31          6           0       -4.823257    1.489484   -0.278477
     32          6           0        4.959661   -1.553824   -0.110087
     33          6           0       -3.904643    2.578904   -0.687516
     34          6           0       -2.604669    2.659112   -0.775038
     35          6           0        4.024249   -0.612105   -0.340332
     36          6           0        2.592787   -0.830636   -0.249928
     37          6           0       -2.023324    4.045326   -1.045644
     38          6           0       -1.794269    1.593867   -0.619372
     39          6           0        1.733122    0.252212   -0.477805
     40          6           0        1.995315   -2.177446    0.133003
     41          6           0       -0.386811    1.563557   -0.607752
     42          6           0        0.386060    0.435836   -0.509056
     43          1           0      -10.858346    1.304759   -0.436464
     44          1           0      -12.817832   -1.551616    2.320969
     45          1           0      -11.246357   -1.961199    1.833884
     46          1           0      -12.573552   -3.199844    0.486635
     47          1           0      -10.199565    0.097075    2.724485
     48          1           0      -10.511078    1.679320    2.310861
     49          1           0      -11.437884    0.573930    3.469258
     50          1           0      -13.741555    0.635431    0.327238
     51          1           0      -13.643782    0.912440    2.101291
     52          1           0      -12.747743    2.025187    1.230286
     53          1           0       12.687437    2.178817    0.077970
     54          1           0       12.917266    1.822571    2.045663
     55          1           0      -12.668070   -2.243459   -2.009906
     56          1           0       13.439018   -0.708422    1.149577
     57          1           0       -9.328607   -1.075945    0.216524
     58          1           0       13.543080   -1.022188   -1.014395
     59          1           0       13.221986    0.410708   -1.747170
     60          1           0        9.184864    1.664298    1.415439
     61          1           0       10.137131    2.735140    0.270574
     62          1           0       10.691282    2.840479    1.864940
     63          1           0       11.732124   -0.484477    2.357698
     64          1           0       10.321453   -0.183174    2.465219
     65          1           0       11.285270    1.005312    3.491401
     66          1           0      -10.155985   -0.225087   -2.824470
     67          1           0      -11.173428    1.105701   -2.683813
     68          1           0      -11.806894   -0.508140   -3.329394
     69          1           0      -14.719514   -2.100588   -0.199146
     70          1           0        8.566594    0.282642    0.159719
     71          1           0       -8.680821    1.749213   -0.308973
     72          1           0       11.369983   -2.375360   -2.133741
     73          1           0        9.928819   -1.067296   -2.042968
     74          1           0       11.725286   -0.974472   -3.007736
     75          1           0       15.188112    1.319568    1.030346
     76          1           0        9.430758   -2.642089   -0.284957
     77          1           0       -5.598904   -1.128939   -0.431659
     78          1           0       -6.875634   -1.255797    1.166371
     79          1           0       -7.285379   -1.679308   -0.734567
     80          1           0       -6.879692    2.333814   -0.592389
     81          1           0        7.354322   -3.743408    1.258794
     82          1           0        6.239856   -4.144713   -0.332551
     83          1           0        8.098381   -4.233316   -0.237589
     84          1           0        6.675647   -0.147575   -0.295937
     85          1           0       -4.309969    0.643422    0.051534
     86          1           0        4.821714   -2.566168    0.079797
     87          1           0       -4.592232    3.497549   -0.902813
     88          1           0        4.257175    0.388584   -0.649448
     89          1           0       -1.730651    3.944396   -2.103523
     90          1           0       -1.389897    4.327708   -0.337783
     91          1           0       -2.627229    4.845574   -0.908033
     92          1           0       -2.327553    0.540127   -0.253922
     93          1           0        2.014935    1.425769   -0.527681
     94          1           0        2.585529   -2.572850    1.060369
     95          1           0        0.792537   -2.191460    0.392815
     96          1           0        2.294146   -3.061161   -0.768446
     97          1           0        0.154989    2.521009   -0.621319
     98          1           0       -0.157781   -0.642992   -0.387584
 ---------------------------------------------------------------------

 SCF Done:  E(RCAM-B3LYP) =  -1706.83216973     A.U. after   15 cycles

 Excitation energies and oscillator strengths:

 Excited State   1:      Singlet-A      2.0583 eV  602.37 nm  f=2.9459  <S**2>=0.000
     155 ->158         0.13240
     156 ->157         0.69915
     156 <-157        -0.10700
 This state for optimization and/or second-order correction.
 Total Energy, E(TD-HF/TD-DFT) =  -1706.75652942
 Copying the excited state density for this state as the 1-particle RhoCI density.

 The electronic state is 1-A.
 Alpha  occ. eigenvalues --  -19.21169 -19.20903 -10.31984 -10.31154 -10.29741
 Alpha  occ. eigenvalues --  -10.28764 -10.28153 -10.27984 -10.27551 -10.27326
 Alpha  occ. eigenvalues --  -10.27306 -10.27235 -10.27233 -10.27174 -10.27134
 Alpha  occ. eigenvalues --  -10.27044 -10.26982 -10.26932 -10.26815 -10.26753
 Alpha  occ. eigenvalues --  -10.26585 -10.26546 -10.26467 -10.26389 -10.26366
 Alpha  occ. eigenvalues --  -10.26330 -10.26153 -10.26132 -10.26092 -10.26083
 Alpha  occ. eigenvalues --  -10.25998 -10.25738 -10.25603 -10.25585 -10.24659
 Alpha  occ. eigenvalues --  -10.24436 -10.24427 -10.24309 -10.23955 -10.23810
 Alpha  occ. eigenvalues --  -10.22657 -10.22441  -1.08226  -1.06056  -0.94296
 Alpha  occ. eigenvalues --   -0.94041  -0.93046  -0.91871  -0.90883  -0.90325
 Alpha  occ. eigenvalues --   -0.87885  -0.87410  -0.87126  -0.86221  -0.85401
 Alpha  occ. eigenvalues --   -0.83192  -0.81994  -0.80826  -0.80318  -0.78975
 Alpha  occ. eigenvalues --   -0.77713  -0.77433  -0.76520  -0.76428  -0.75361
 Alpha  occ. eigenvalues --   -0.75316  -0.75013  -0.74696  -0.73045  -0.71214
 Alpha  occ. eigenvalues --   -0.69101  -0.67753  -0.67221  -0.65130  -0.64579
 Alpha  occ. eigenvalues --   -0.63176  -0.62638  -0.62041  -0.60026  -0.59620
 Alpha  occ. eigenvalues --   -0.59252  -0.58148  -0.57977  -0.56770  -0.56491
 Alpha  occ. eigenvalues --   -0.56031  -0.55420  -0.54847  -0.53982  -0.53843
 Alpha  occ. eigenvalues --   -0.53154  -0.52936  -0.52497  -0.52225  -0.52075
 Alpha  occ. eigenvalues --   -0.51375  -0.50915  -0.50566  -0.49874  -0.49683
 Alpha  occ. eigenvalues --   -0.49364  -0.49055  -0.48550  -0.48067  -0.47770
 Alpha  occ. eigenvalues --   -0.47432  -0.47144  -0.46428  -0.46320  -0.46180
 Alpha  occ. eigenvalues --   -0.45956  -0.45531  -0.45370  -0.45237  -0.45065
 Alpha  occ. eigenvalues --   -0.44217  -0.43744  -0.43514  -0.43359  -0.43179
 Alpha  occ. eigenvalues --   -0.43049  -0.42626  -0.42442  -0.42396  -0.42112
 Alpha  occ. eigenvalues --   -0.41990  -0.41889  -0.41649  -0.41518  -0.40913
 Alpha  occ. eigenvalues --   -0.40675  -0.40543  -0.39824  -0.39549  -0.38984
 Alpha  occ. eigenvalues --   -0.38894  -0.38688  -0.38250  -0.37973  -0.37405
 Alpha  occ. eigenvalues --   -0.37366  -0.36946  -0.36355  -0.36218  -0.35313
 Alpha  occ. eigenvalues --   -0.34489  -0.34242  -0.33631  -0.31968  -0.31959
 Alpha  occ. eigenvalues --   -0.31540  -0.30347  -0.29518  -0.27224  -0.24242
 Alpha  occ. eigenvalues --   -0.19474
 Alpha virt. eigenvalues --   -0.06687  -0.01297   0.02343   0.05651   0.07383
 Alpha virt. eigenvalues --    0.08792   0.10683   0.11003   0.11700   0.11999
 Alpha virt. eigenvalues --    0.12410   0.12957   0.13186   0.13599   0.13806

 Mulliken charges:
               1
     1  O   -0.565564
     2  O   -0.574703
     3  C    0.027151
     4  C   -0.158687
     5  C   -0.208186
     6  C    0.145192
     7  C    0.194280
     8  C   -0.065137
     9  C   -0.297659
    10  C   -0.284297
    11  C   -0.166242
    12  C   -0.194326
    13  C    0.184821
    14  C    0.060554
    15  C   -0.038973
    16  C   -0.225645
    17  C    0.071547
    18  C   -0.271629
    19  C   -0.236625
    20  C   -0.363586
    21  C   -0.106507
    22  C   -0.148760
    23  C   -0.361947
    24  C    0.121064
    25  C   -0.091350
    26  C   -0.372523
    27  C    0.092278
    28  C   -0.101817
    29  C   -0.381086
    30  C   -0.111818
    31  C   -0.084808
    32  C   -0.076352
    33  C   -0.150269
    34  C    0.119281
    35  C   -0.084503
    36  C    0.104594
    37  C   -0.353543
    38  C   -0.121825
    39  C   -0.115261
    40  C   -0.352416
    41  C   -0.103425
    42  C   -0.061938
    43  H    0.091489
    44  H    0.122575
    45  H    0.089359
    46  H    0.092548
    47  H    0.107656
    48  H    0.109470
    49  H    0.102074
    50  H    0.080588
    51  H    0.108320
    52  H    0.082083
    53  H    0.092054
    54  H    0.077900
    55  H    0.058080
    56  H    0.035064
    57  H    0.065282
    58  H    0.126661
    59  H    0.129014
    60  H    0.075073
    61  H    0.110014
    62  H    0.094450
    63  H    0.094282
    64  H    0.083607
    65  H    0.076465
    66  H    0.114698
    67  H    0.104024
    68  H    0.118405
    69  H    0.303513
    70  H    0.099787
    71  H    0.056741
    72  H    0.103522
    73  H    0.131721
    74  H    0.092253
    75  H    0.308413
    76  H    0.091387
    77  H    0.104727
    78  H    0.120959
    79  H    0.103652
    80  H    0.080921
    81  H    0.114358
    82  H    0.098985
    83  H    0.107031
    84  H    0.067293
    85  H    0.081872
    86  H    0.086473
    87  H    0.071114
    88  H    0.094710
    89  H    0.132630
    90  H    0.126785
    91  H    0.113227
    92  H    0.072231
    93  H    0.055199
    94  H    0.119440
    95  H    0.108959
    96  H    0.085617
    97  H    0.090789
    98  H    0.045102
 Sum of Mulliken charges =  -0.00000

 Dipole moment (field-independent basis, Debye):
    X=              1.1588    Y=             -0.1737    Z=             -0.1089  Tot=              1.1768
 Quadrupole moment (field-independent basis, Debye-Ang):
   XX=           -289.7329   YY=           -243.8604   ZZ=           -262.3283
   XY=             -0.6297   XZ=             30.5960   YZ=              2.6784

 Normal termination of Gaussian 16 at Tue Jul 16 10:12:48 2019.
