 Gaussian 16, Revision A.03,
 Gaussian 16:  ES64L-G16RevA.03 25-Dec-2016

 -------------------------------------
 # td=(NStates=1) CAM-B3LYP/6-31G(d,p)
 -------------------------------------

 --
 TD
 --
 Symbolic Z-matrix:
 Charge =  0 Multiplicity = 1

                         Standard orientation:
 ---------------------------------------------------------------------
 Center     Atomic      Atomic             Coordinates (Angstroms)
 Number     Number       Type             X           Y           Z
 ---------------------------------------------------------------------
      1          8           0      -14.064267   -2.031508    0.349967
      2          8           0       14.890083    0.629443    0.226791
      3          6           0      -11.726503   -0.122796    1.272475
      4          6           0      -10.915673    0.237690    0.013626
      5          6           0      -11.819280   -1.672971    1.371424
      6          6           0      -12.683552   -2.278860    0.152011
      7          6           0      -11.551182   -0.246266   -1.193753
      8          6           0       11.179725    0.926861    1.085774
      9          6           0      -10.856780    0.255192    2.471518
     10          6           0      -13.132674    0.526971    1.459486
     11          6           0       12.684466    1.330229    0.926957
     12          6           0      -12.286749   -1.427585   -1.046629
     13          6           0       13.530679    0.217119    0.461291
     14          6           0       10.688387    0.003422   -0.025816
     15          6           0       -9.540471   -0.030513    0.039983
     16          6           0       13.085399   -0.365308   -0.969370
     17          6           0       11.501826   -0.455732   -0.982037
     18          6           0       10.283749    2.214564    1.023203
     19          6           0       10.954113    0.235343    2.439488
     20          6           0      -11.307544    0.362308   -2.571875
     21          6           0       -8.506864    0.804051   -0.008684
     22          6           0        9.261034   -0.357606    0.012282
     23          6           0       11.128336   -1.360131   -2.106107
     24          6           0       -7.114752    0.472883   -0.045295
     25          6           0        8.799696   -1.667504   -0.103345
     26          6           0       -6.697951   -0.944124    0.099968
     27          6           0        7.391720   -2.054310   -0.099453
     28          6           0       -6.314175    1.579974   -0.159598
     29          6           0        7.196104   -3.526842    0.119712
     30          6           0        6.330660   -1.168454   -0.276035
     31          6           0       -4.909037    1.593712   -0.375475
     32          6           0        4.905009   -1.381303   -0.069809
     33          6           0       -4.097681    2.689902   -0.405936
     34          6           0       -2.734370    2.699797   -0.609444
     35          6           0        4.049471   -0.401154   -0.494881
     36          6           0        2.620007   -0.661010   -0.307547
     37          6           0       -2.164810    4.075551   -0.793666
     38          6           0       -1.810512    1.631817   -0.654687
     39          6           0        1.780005    0.409812   -0.489513
     40          6           0        2.065858   -2.031152    0.090847
     41          6           0       -0.404587    1.560215   -0.660849
     42          6           0        0.392722    0.455713   -0.458857
     43          1           0      -10.975188    1.355461    0.053061
     44          1           0      -12.430116   -1.985997    2.114878
     45          1           0      -10.876920   -2.099617    1.518814
     46          1           0      -12.537607   -3.403582    0.047099
     47          1           0       -9.895900   -0.410380    2.485869
     48          1           0      -10.441450    1.287725    2.496357
     49          1           0      -11.373453    0.355501    3.502422
     50          1           0      -13.653118    0.448318    0.496768
     51          1           0      -13.714242    0.118668    2.250178
     52          1           0      -12.984304    1.686788    1.474947
     53          1           0       12.777773    2.210788    0.229814
     54          1           0       12.947309    1.643974    2.006261
     55          1           0      -12.824357   -1.759057   -2.005110
     56          1           0       13.615451   -0.618587    1.117082
     57          1           0       -9.179242   -1.040736   -0.098980
     58          1           0       13.576711   -1.450160   -0.736768
     59          1           0       13.496129    0.269240   -1.863171
     60          1           0        9.137496    1.997515    1.289038
     61          1           0       10.277232    2.883187    0.200229
     62          1           0       10.549569    3.100442    1.869543
     63          1           0       11.614921   -0.488325    2.572695
     64          1           0       10.082607   -0.179422    2.588284
     65          1           0       11.135300    0.918048    3.232357
     66          1           0      -10.144871    0.316433   -2.773053
     67          1           0      -11.947475    1.238702   -2.541280
     68          1           0      -11.695035   -0.288010   -3.337907
     69          1           0      -14.703824   -2.258109   -0.508443
     70          1           0        8.847589    0.579797    0.363624
     71          1           0       -8.892930    1.860985   -0.191770
     72          1           0       11.425240   -2.337825   -1.760878
     73          1           0       10.050353   -1.198486   -2.377017
     74          1           0       11.874392   -1.360445   -2.866482
     75          1           0       15.362789    0.856856    1.123879
     76          1           0        9.467756   -2.199226   -0.498688
     77          1           0       -5.641425   -1.312715    0.419617
     78          1           0       -7.238766   -1.605242    0.881553
     79          1           0       -7.041285   -1.501257   -0.715482
     80          1           0       -6.830907    2.496216   -0.304757
     81          1           0        6.606767   -3.656004    1.157785
     82          1           0        6.740422   -4.078020   -0.827705
     83          1           0        8.028869   -4.030804    0.179276
     84          1           0        6.368480   -0.092304   -0.430241
     85          1           0       -4.625103    0.636134   -0.479566
     86          1           0        4.481841   -2.385318    0.158965
     87          1           0       -4.838297    3.472297   -0.547861
     88          1           0        4.381021    0.670091   -0.617776
     89          1           0       -1.481414    4.183179   -1.594646
     90          1           0       -1.613507    4.213109    0.223467
     91          1           0       -3.061534    4.748071   -0.763249
     92          1           0       -2.150568    0.487209   -0.389487
     93          1           0        2.252256    1.408605   -0.571748
     94          1           0        2.282536   -2.417913    1.174517
     95          1           0        0.960217   -1.966035    0.025267
     96          1           0        2.331902   -2.792214   -0.588980
     97          1           0        0.082252    2.547095   -0.758694
     98          1           0       -0.091774   -0.635172   -0.506293
 ---------------------------------------------------------------------

 SCF Done:  E(RCAM-B3LYP) =  -1706.94987306     A.U. after   15 cycles

 Excitation energies and oscillator strengths:

 Excited State   1:      Singlet-A      2.2092 eV  561.21 nm  f=3.0501  <S**2>=0.000
     155 ->158        -0.15369
     156 ->157         0.69022
 This state for optimization and/or second-order correction.
 Total Energy, E(TD-HF/TD-DFT) =  -1706.86868550
 Copying the excited state density for this state as the 1-particle RhoCI density.

 The electronic state is 1-A.
 Alpha  occ. eigenvalues --  -19.21793 -19.20792 -10.31533 -10.29932 -10.28074
 Alpha  occ. eigenvalues --  -10.28016 -10.27500 -10.27490 -10.27472 -10.27226
 Alpha  occ. eigenvalues --  -10.26947 -10.26875 -10.26837 -10.26797 -10.26757
 Alpha  occ. eigenvalues --  -10.26707 -10.26573 -10.26528 -10.26184 -10.26181
 Alpha  occ. eigenvalues --  -10.26173 -10.26035 -10.25831 -10.25787 -10.25759
 Alpha  occ. eigenvalues --  -10.25746 -10.25722 -10.25643 -10.25618 -10.25614
 Alpha  occ. eigenvalues --  -10.25527 -10.25443 -10.25434 -10.25026 -10.24995
 Alpha  occ. eigenvalues --  -10.24911 -10.24629 -10.24575 -10.24178 -10.23853
 Alpha  occ. eigenvalues --  -10.23666 -10.21831  -1.07523  -1.07062  -0.94575
 Alpha  occ. eigenvalues --   -0.93276  -0.92328  -0.91476  -0.90567  -0.89522
 Alpha  occ. eigenvalues --   -0.87323  -0.86607  -0.86191  -0.85362  -0.84209
 Alpha  occ. eigenvalues --   -0.83142  -0.82189  -0.80092  -0.79958  -0.78249
 Alpha  occ. eigenvalues --   -0.77600  -0.77520  -0.76438  -0.75996  -0.75817
 Alpha  occ. eigenvalues --   -0.75022  -0.74258  -0.73510  -0.72550  -0.70561
 Alpha  occ. eigenvalues --   -0.68951  -0.67366  -0.66478  -0.64882  -0.63738
 Alpha  occ. eigenvalues --   -0.63111  -0.62584  -0.62376  -0.60941  -0.60750
 Alpha  occ. eigenvalues --   -0.59762  -0.58988  -0.57761  -0.57624  -0.55714
 Alpha  occ. eigenvalues --   -0.55430  -0.54769  -0.54160  -0.53968  -0.53450
 Alpha  occ. eigenvalues --   -0.53237  -0.52595  -0.52097  -0.51741  -0.51170
 Alpha  occ. eigenvalues --   -0.50408  -0.50195  -0.50085  -0.49968  -0.49682
 Alpha  occ. eigenvalues --   -0.48764  -0.48498  -0.48408  -0.48187  -0.48027
 Alpha  occ. eigenvalues --   -0.47725  -0.47563  -0.47420  -0.47241  -0.46197
 Alpha  occ. eigenvalues --   -0.45527  -0.45410  -0.45199  -0.44783  -0.44704
 Alpha  occ. eigenvalues --   -0.44569  -0.43639  -0.43294  -0.43061  -0.42950
 Alpha  occ. eigenvalues --   -0.42870  -0.42550  -0.42469  -0.42192  -0.42065
 Alpha  occ. eigenvalues --   -0.41713  -0.41658  -0.41049  -0.40788  -0.40190
 Alpha  occ. eigenvalues --   -0.39998  -0.39837  -0.39149  -0.39064  -0.38968
 Alpha  occ. eigenvalues --   -0.38819  -0.38564  -0.38528  -0.38372  -0.37585
 Alpha  occ. eigenvalues --   -0.37564  -0.36765  -0.36150  -0.36026  -0.34781
 Alpha  occ. eigenvalues --   -0.34261  -0.33605  -0.33378  -0.32137  -0.32080
 Alpha  occ. eigenvalues --   -0.31431  -0.28956  -0.28122  -0.26704  -0.23700
 Alpha  occ. eigenvalues --   -0.19441
 Alpha virt. eigenvalues --   -0.05584  -0.01076   0.02821   0.05521   0.06948
 Alpha virt. eigenvalues --    0.09236   0.10462   0.11064   0.11616   0.12397
 Alpha virt. eigenvalues --    0.12718   0.12908   0.13686   0.13750   0.14252

 Mulliken charges:
               1
     1  O   -0.558834
     2  O   -0.575707
     3  C    0.019649
     4  C   -0.138432
     5  C   -0.173523
     6  C    0.146342
     7  C    0.084442
     8  C   -0.023006
     9  C   -0.301628
    10  C   -0.286390
    11  C   -0.179731
    12  C   -0.118331
    13  C    0.165970
    14  C    0.061638
    15  C   -0.065250
    16  C   -0.220721
    17  C    0.022244
    18  C   -0.317665
    19  C   -0.296273
    20  C   -0.348493
    21  C   -0.098946
    22  C   -0.083502
    23  C   -0.362411
    24  C    0.149543
    25  C   -0.091289
    26  C   -0.410800
    27  C    0.061206
    28  C   -0.142470
    29  C   -0.352817
    30  C   -0.101953
    31  C   -0.043762
    32  C   -0.090095
    33  C   -0.125802
    34  C    0.092595
    35  C   -0.115144
    36  C    0.102752
    37  C   -0.369857
    38  C   -0.115008
    39  C   -0.114535
    40  C   -0.374426
    41  C   -0.083512
    42  C   -0.088568
    43  H    0.079414
    44  H    0.111834
    45  H    0.100495
    46  H    0.077296
    47  H    0.089075
    48  H    0.090994
    49  H    0.086872
    50  H    0.113401
    51  H    0.119706
    52  H    0.068082
    53  H    0.106390
    54  H    0.075798
    55  H    0.037980
    56  H    0.086330
    57  H    0.065532
    58  H    0.097808
    59  H    0.121447
    60  H    0.096378
    61  H    0.123734
    62  H    0.061927
    63  H    0.105484
    64  H    0.117424
    65  H    0.098714
    66  H    0.116876
    67  H    0.127282
    68  H    0.117389
    69  H    0.313632
    70  H    0.071084
    71  H    0.073060
    72  H    0.118409
    73  H    0.121567
    74  H    0.106903
    75  H    0.297822
    76  H    0.080100
    77  H    0.121081
    78  H    0.115106
    79  H    0.140140
    80  H    0.075756
    81  H    0.106375
    82  H    0.102258
    83  H    0.123141
    84  H    0.077879
    85  H    0.071709
    86  H    0.090746
    87  H    0.088035
    88  H    0.093889
    89  H    0.130686
    90  H    0.117069
    91  H    0.108217
    92  H    0.052931
    93  H    0.074810
    94  H    0.115539
    95  H    0.104166
    96  H    0.130823
    97  H    0.073589
    98  H    0.072316
 Sum of Mulliken charges =  -0.00000

 Dipole moment (field-independent basis, Debye):
    X=             -0.4651    Y=             -1.4745    Z=              0.0290  Tot=              1.5464
 Quadrupole moment (field-independent basis, Debye-Ang):
   XX=           -251.7066   YY=           -243.5213   ZZ=           -262.1171
   XY=              2.7991   XZ=             43.0985   YZ=              1.2143

 Normal termination of Gaussian 16 at Tue Jul 16 02:23:40 2019.
