 Gaussian 16, Revision A.03,
 Gaussian 16:  ES64L-G16RevA.03 25-Dec-2016

 -------------------------------------
 # td=(NStates=1) CAM-B3LYP/6-31G(d,p)
 -------------------------------------

 --
 TD
 --
 Symbolic Z-matrix:
 Charge =  0 Multiplicity = 1

                         Standard orientation:
 ---------------------------------------------------------------------
 Center     Atomic      Atomic             Coordinates (Angstroms)
 Number     Number       Type             X           Y           Z
 ---------------------------------------------------------------------
      1          8           0      -14.104537   -2.092419    0.606998
      2          8           0       14.780117    1.099151    0.053403
      3          6           0      -11.649088    0.149037    1.314169
      4          6           0      -10.952651    0.287327   -0.041947
      5          6           0      -12.006933   -1.473831    1.430562
      6          6           0      -12.742749   -2.163103    0.273997
      7          6           0      -11.635023   -0.367841   -1.265937
      8          6           0       11.010074    1.034009    0.970350
      9          6           0      -10.823766    0.580089    2.441645
     10          6           0      -13.062123    0.802162    1.417995
     11          6           0       12.433963    1.583657    0.673720
     12          6           0      -12.487274   -1.466911   -1.103676
     13          6           0       13.462581    0.530170    0.385970
     14          6           0       10.688462   -0.210250    0.104956
     15          6           0       -9.496445   -0.085978   -0.046213
     16          6           0       12.974092   -0.255565   -0.875963
     17          6           0       11.538463   -0.519552   -0.826577
     18          6           0       10.008541    2.141940    0.953609
     19          6           0       11.049053    0.460767    2.437049
     20          6           0      -11.307609    0.101044   -2.645063
     21          6           0       -8.538476    0.835862   -0.177909
     22          6           0        9.209714   -0.565762    0.217011
     23          6           0       11.165928   -1.449555   -2.005859
     24          6           0       -7.130274    0.606672   -0.284692
     25          6           0        8.753593   -1.775263   -0.083862
     26          6           0       -6.691699   -0.852542   -0.063177
     27          6           0        7.320160   -2.195221   -0.067373
     28          6           0       -6.265459    1.623307   -0.295961
     29          6           0        7.180595   -3.593034    0.262579
     30          6           0        6.310333   -1.244835   -0.127131
     31          6           0       -4.797676    1.546235   -0.315188
     32          6           0        4.945352   -1.596875   -0.071363
     33          6           0       -3.935353    2.623252   -0.425031
     34          6           0       -2.494135    2.633193   -0.722155
     35          6           0        4.020913   -0.679572   -0.233387
     36          6           0        2.668544   -0.847778   -0.183044
     37          6           0       -1.971656    3.984795   -0.974852
     38          6           0       -1.711480    1.521757   -0.469538
     39          6           0        1.798765    0.176332   -0.446583
     40          6           0        2.094300   -2.251830    0.139283
     41          6           0       -0.254116    1.485599   -0.570332
     42          6           0        0.366711    0.265985   -0.346240
     43          1           0      -10.897045    1.298114   -0.347365
     44          1           0      -12.534174   -1.575081    2.524464
     45          1           0      -10.920083   -2.308302    1.442200
     46          1           0      -12.458990   -3.091846    0.149871
     47          1           0      -10.085954   -0.273678    2.872186
     48          1           0      -10.420285    1.586927    2.456111
     49          1           0      -11.547308    0.631083    3.043592
     50          1           0      -13.799743    0.599586    0.605337
     51          1           0      -13.393325    0.700887    2.350160
     52          1           0      -13.034371    1.844825    1.197680
     53          1           0       12.644486    2.263529   -0.301819
     54          1           0       12.589248    2.426813    1.561848
     55          1           0      -12.890911   -2.000666   -2.039448
     56          1           0       13.435072   -0.315492    1.243800
     57          1           0       -9.325161   -1.109881    0.039700
     58          1           0       13.575396   -1.124977   -1.026822
     59          1           0       13.260652    0.445336   -1.672503
     60          1           0        9.061344    1.735562    1.410007
     61          1           0        9.852173    2.176926   -0.165985
     62          1           0       10.338669    2.965083    1.538339
     63          1           0       11.894326   -0.202803    2.534352
     64          1           0       10.169286   -0.085342    2.922129
     65          1           0       11.162837    1.320114    2.845973
     66          1           0      -10.107611    0.259789   -2.471537
     67          1           0      -11.738116    1.113671   -3.048780
     68          1           0      -11.181490   -0.906050   -3.477559
     69          1           0      -14.516574   -2.070990   -0.351826
     70          1           0        8.512914    0.146074    0.482463
     71          1           0       -8.847403    1.876946   -0.342389
     72          1           0       11.951284   -2.524078   -2.073747
     73          1           0        9.980321   -1.778020   -1.879563
     74          1           0       11.592558   -0.832832   -3.024021
     75          1           0       15.097161    1.644107    0.793385
     76          1           0        9.423621   -2.518832   -0.451163
     77          1           0       -5.570132   -0.628364    0.315591
     78          1           0       -7.242948   -1.375507    0.807054
     79          1           0       -7.042899   -1.532299   -0.760910
     80          1           0       -6.552218    2.622065   -0.385899
     81          1           0        7.411341   -4.099803    1.353423
     82          1           0        6.118035   -4.112822   -0.032930
     83          1           0        8.257583   -4.043696   -0.680741
     84          1           0        6.510610   -0.223321   -0.453493
     85          1           0       -4.337673    0.562783   -0.316256
     86          1           0        4.904778   -2.680470    0.257228
     87          1           0       -4.483451    3.576214   -0.726065
     88          1           0        4.335815    0.291200   -0.639831
     89          1           0       -1.200820    4.152583   -1.604574
     90          1           0       -1.528494    4.364452   -0.005237
     91          1           0       -2.615615    4.809487   -1.268932
     92          1           0       -2.048469    0.673919   -0.056767
     93          1           0        2.400591    1.222140   -0.554445
     94          1           0        2.201179   -2.455834    1.364241
     95          1           0        0.961576   -2.265718   -0.105493
     96          1           0        2.660854   -3.197045   -0.382057
     97          1           0        0.499391    2.405754   -0.523344
     98          1           0       -0.163366   -0.703423   -0.345862
 ---------------------------------------------------------------------

 SCF Done:  E(RCAM-B3LYP) =  -1706.78372693     A.U. after   14 cycles

 Excitation energies and oscillator strengths:

 Excited State   1:      Singlet-A      2.5494 eV  486.32 nm  f=3.0119  <S**2>=0.000
     155 ->158         0.16234
     156 ->157         0.68381
 This state for optimization and/or second-order correction.
 Total Energy, E(TD-HF/TD-DFT) =  -1706.69003687
 Copying the excited state density for this state as the 1-particle RhoCI density.

 The electronic state is 1-A.
 Alpha  occ. eigenvalues --  -19.21812 -19.21051 -10.31853 -10.31147 -10.29733
 Alpha  occ. eigenvalues --  -10.29073 -10.29031 -10.28713 -10.28610 -10.28242
 Alpha  occ. eigenvalues --  -10.28141 -10.28081 -10.27893 -10.27673 -10.27515
 Alpha  occ. eigenvalues --  -10.27250 -10.27244 -10.27186 -10.27179 -10.27170
 Alpha  occ. eigenvalues --  -10.27053 -10.26883 -10.26509 -10.26440 -10.26139
 Alpha  occ. eigenvalues --  -10.26074 -10.26074 -10.26066 -10.25897 -10.25854
 Alpha  occ. eigenvalues --  -10.25805 -10.25803 -10.25708 -10.25559 -10.25520
 Alpha  occ. eigenvalues --  -10.25324 -10.25181 -10.25072 -10.25031 -10.23285
 Alpha  occ. eigenvalues --  -10.23106 -10.22890  -1.08791  -1.08045  -0.94311
 Alpha  occ. eigenvalues --   -0.93509  -0.92839  -0.91790  -0.90924  -0.90312
 Alpha  occ. eigenvalues --   -0.87750  -0.87558  -0.87203  -0.85648  -0.84866
 Alpha  occ. eigenvalues --   -0.82975  -0.82056  -0.80267  -0.80038  -0.78268
 Alpha  occ. eigenvalues --   -0.76823  -0.76732  -0.76683  -0.76053  -0.75893
 Alpha  occ. eigenvalues --   -0.75015  -0.73236  -0.73221  -0.73162  -0.70329
 Alpha  occ. eigenvalues --   -0.68299  -0.67169  -0.66150  -0.65193  -0.64362
 Alpha  occ. eigenvalues --   -0.62728  -0.62660  -0.62219  -0.61213  -0.60730
 Alpha  occ. eigenvalues --   -0.60174  -0.58367  -0.57939  -0.57103  -0.56127
 Alpha  occ. eigenvalues --   -0.55786  -0.55348  -0.54702  -0.54554  -0.53828
 Alpha  occ. eigenvalues --   -0.53602  -0.53249  -0.52847  -0.51574  -0.51240
 Alpha  occ. eigenvalues --   -0.50778  -0.50240  -0.49829  -0.49362  -0.49139
 Alpha  occ. eigenvalues --   -0.48634  -0.48377  -0.48026  -0.47863  -0.47726
 Alpha  occ. eigenvalues --   -0.47474  -0.47177  -0.46492  -0.46317  -0.45991
 Alpha  occ. eigenvalues --   -0.45787  -0.45736  -0.45312  -0.45028  -0.44745
 Alpha  occ. eigenvalues --   -0.44585  -0.44223  -0.44009  -0.43628  -0.43580
 Alpha  occ. eigenvalues --   -0.43150  -0.43080  -0.42624  -0.42392  -0.41562
 Alpha  occ. eigenvalues --   -0.41449  -0.41249  -0.40840  -0.40545  -0.40111
 Alpha  occ. eigenvalues --   -0.39718  -0.39484  -0.39398  -0.39115  -0.38946
 Alpha  occ. eigenvalues --   -0.38723  -0.38295  -0.37955  -0.37718  -0.37638
 Alpha  occ. eigenvalues --   -0.37377  -0.37125  -0.36891  -0.36181  -0.35191
 Alpha  occ. eigenvalues --   -0.34696  -0.34343  -0.33997  -0.32474  -0.32127
 Alpha  occ. eigenvalues --   -0.31431  -0.29342  -0.28978  -0.27306  -0.24646
 Alpha  occ. eigenvalues --   -0.20780
 Alpha virt. eigenvalues --   -0.05037  -0.01015   0.02557   0.04524   0.05557
 Alpha virt. eigenvalues --    0.07311   0.08773   0.10790   0.11172   0.11638
 Alpha virt. eigenvalues --    0.11780   0.12176   0.12319   0.13017   0.13173

 Mulliken charges:
               1
     1  O   -0.542745
     2  O   -0.567780
     3  C    0.030652
     4  C   -0.128983
     5  C   -0.166280
     6  C    0.198830
     7  C    0.114921
     8  C   -0.060281
     9  C   -0.285557
    10  C   -0.307823
    11  C   -0.174002
    12  C   -0.202255
    13  C    0.150540
    14  C    0.062899
    15  C   -0.067562
    16  C   -0.218874
    17  C    0.077994
    18  C   -0.295159
    19  C   -0.282448
    20  C   -0.353570
    21  C   -0.085806
    22  C   -0.076773
    23  C   -0.322189
    24  C    0.122501
    25  C   -0.119328
    26  C   -0.367995
    27  C    0.080993
    28  C   -0.121065
    29  C   -0.315523
    30  C   -0.103791
    31  C   -0.081556
    32  C   -0.054888
    33  C   -0.137011
    34  C    0.099532
    35  C   -0.130975
    36  C    0.150409
    37  C   -0.384393
    38  C   -0.117502
    39  C   -0.151090
    40  C   -0.349692
    41  C   -0.086395
    42  C   -0.082843
    43  H    0.083462
    44  H    0.092676
    45  H    0.010882
    46  H    0.097808
    47  H    0.093268
    48  H    0.105262
    49  H    0.108176
    50  H    0.116408
    51  H    0.116215
    52  H    0.091023
    53  H    0.089577
    54  H    0.055713
    55  H    0.079906
    56  H    0.067315
    57  H    0.081005
    58  H    0.126464
    59  H    0.122012
    60  H    0.102063
    61  H    0.110234
    62  H    0.108907
    63  H    0.099552
    64  H    0.098510
    65  H    0.095072
    66  H    0.099673
    67  H    0.121970
    68  H    0.086797
    69  H    0.301617
    70  H    0.088151
    71  H    0.076321
    72  H    0.057915
    73  H    0.100809
    74  H    0.087177
    75  H    0.310530
    76  H    0.091482
    77  H    0.101532
    78  H    0.108209
    79  H    0.132491
    80  H    0.079092
    81  H    0.124749
    82  H    0.098513
    83  H    0.029463
    84  H    0.084050
    85  H    0.088144
    86  H    0.078428
    87  H    0.074670
    88  H    0.082631
    89  H    0.127677
    90  H    0.123666
    91  H    0.114785
    92  H    0.090797
    93  H    0.059020
    94  H    0.096419
    95  H    0.098789
    96  H    0.100475
    97  H    0.092754
    98  H    0.092558
 Sum of Mulliken charges =  -0.00000

 Dipole moment (field-independent basis, Debye):
    X=             -0.7183    Y=              1.5048    Z=              0.1778  Tot=              1.6769
 Quadrupole moment (field-independent basis, Debye-Ang):
   XX=           -292.7562   YY=           -245.4219   ZZ=           -265.7169
   XY=             -0.3848   XZ=             38.6276   YZ=              2.2062

 Normal termination of Gaussian 16 at Sat Jul 13 01:04:57 2019.
