 Gaussian 16, Revision A.03,
 Gaussian 16:  ES64L-G16RevA.03 25-Dec-2016

 -------------------------------------
 # td=(NStates=1) CAM-B3LYP/6-31G(d,p)
 -------------------------------------

 --
 TD
 --
 Symbolic Z-matrix:
 Charge =  0 Multiplicity = 1

                         Standard orientation:
 ---------------------------------------------------------------------
 Center     Atomic      Atomic             Coordinates (Angstroms)
 Number     Number       Type             X           Y           Z
 ---------------------------------------------------------------------
      1          8           0      -14.055693   -2.081617    0.533037
      2          8           0       14.872588    0.706111    0.040242
      3          6           0      -11.719367   -0.112822    1.430029
      4          6           0      -11.022816    0.400341    0.035326
      5          6           0      -11.833999   -1.636894    1.361788
      6          6           0      -12.727413   -2.136439    0.231886
      7          6           0      -11.618136   -0.461190   -1.095726
      8          6           0       11.115146    0.833167    1.177971
      9          6           0      -10.916814    0.435625    2.623836
     10          6           0      -13.069178    0.659488    1.557498
     11          6           0       12.696442    1.272758    0.963902
     12          6           0      -12.256447   -1.580142   -1.107994
     13          6           0       13.484466    0.211853    0.265521
     14          6           0       10.601785   -0.017970    0.084483
     15          6           0       -9.565687    0.029182   -0.009380
     16          6           0       12.948826   -0.200244   -0.983545
     17          6           0       11.369801   -0.535691   -0.928663
     18          6           0       10.394620    2.092069    1.316937
     19          6           0       11.135753    0.099503    2.444486
     20          6           0      -11.262098    0.155056   -2.501412
     21          6           0       -8.529748    0.849138   -0.151470
     22          6           0        9.239250   -0.419710    0.086793
     23          6           0       11.063567   -1.374159   -2.157444
     24          6           0       -7.130752    0.518879   -0.421748
     25          6           0        8.756853   -1.550769   -0.146100
     26          6           0       -6.720036   -0.976749   -0.226355
     27          6           0        7.353514   -1.964830   -0.018642
     28          6           0       -6.241984    1.631704   -0.496353
     29          6           0        7.028516   -3.467639    0.052239
     30          6           0        6.348470   -1.069418   -0.280343
     31          6           0       -4.857617    1.469713   -0.617927
     32          6           0        5.002820   -1.428061   -0.143957
     33          6           0       -4.008320    2.637326   -0.720615
     34          6           0       -2.623693    2.763941   -0.705564
     35          6           0        4.000995   -0.396615   -0.245483
     36          6           0        2.588436   -0.635950   -0.184155
     37          6           0       -1.994058    4.142204   -0.881313
     38          6           0       -1.791800    1.544433   -0.494269
     39          6           0        1.745445    0.449333   -0.267589
     40          6           0        2.110266   -2.046561   -0.075066
     41          6           0       -0.410015    1.532636   -0.411102
     42          6           0        0.356090    0.374615   -0.229138
     43          1           0      -11.101083    1.371510    0.068500
     44          1           0      -12.328646   -2.060660    2.408513
     45          1           0      -10.945593   -2.092803    1.366088
     46          1           0      -12.353067   -3.267583    0.321790
     47          1           0       -9.828785    0.043230    2.569977
     48          1           0      -10.838956    1.465573    2.451841
     49          1           0      -11.339540    0.119455    3.719606
     50          1           0      -13.937889    0.499545    0.739451
     51          1           0      -13.618934    0.197178    2.624019
     52          1           0      -12.908486    1.663950    1.704417
     53          1           0       12.561640    2.085530    0.206162
     54          1           0       13.179128    1.775810    1.838657
     55          1           0      -12.755155   -2.270935   -1.944047
     56          1           0       13.496685   -0.634848    1.014032
     57          1           0       -9.241664   -0.972397    0.320817
     58          1           0       13.450241   -1.017832   -1.586700
     59          1           0       12.926776    0.781453   -1.772820
     60          1           0        9.372010    2.136303    1.858497
     61          1           0       10.464618    2.902807    0.412234
     62          1           0       10.799103    2.756430    2.424295
     63          1           0       11.715342   -0.805207    2.623029
     64          1           0       10.202836   -0.263414    2.936872
     65          1           0       11.568112    0.676794    3.275187
     66          1           0      -10.229380    0.427288   -2.626124
     67          1           0      -12.074992    1.110597   -2.649206
     68          1           0      -11.487626   -0.496988   -3.450029
     69          1           0      -14.607317   -2.034413   -0.284752
     70          1           0        8.555030    0.277524    0.490579
     71          1           0       -8.548344    1.933615   -0.832263
     72          1           0       11.164632   -2.541874   -1.933169
     73          1           0       10.018649   -1.303681   -2.333552
     74          1           0       11.833882   -1.164184   -2.947683
     75          1           0       15.313409    0.993796    0.753378
     76          1           0        9.539153   -2.523008   -0.112794
     77          1           0       -5.551244   -0.878872   -0.205464
     78          1           0       -7.239652   -1.107802    0.885567
     79          1           0       -7.030918   -1.627983   -1.017320
     80          1           0       -6.663948    2.733849   -0.552555
     81          1           0        6.267395   -3.835573    0.758785
     82          1           0        6.466625   -3.818901   -0.911353
     83          1           0        8.166062   -4.050372    0.435419
     84          1           0        6.586452    0.054449   -0.599824
     85          1           0       -4.380515    0.490152   -0.643901
     86          1           0        4.511069   -2.450568    0.132551
     87          1           0       -4.781089    3.556112   -0.531871
     88          1           0        4.444863    0.363257   -0.588674
     89          1           0       -1.365190    3.956919   -1.710352
     90          1           0       -1.529717    4.318418    0.051540
     91          1           0       -2.935257    4.707562   -1.035263
     92          1           0       -2.446714    0.711817   -0.417372
     93          1           0        2.250543    1.257149   -0.455033
     94          1           0        2.394161   -2.556423    0.847255
     95          1           0        1.095721   -2.212808   -0.132853
     96          1           0        2.702010   -2.933137   -0.643988
     97          1           0        0.285700    2.539181   -0.657991
     98          1           0       -0.043813   -0.527607   -0.036400
 ---------------------------------------------------------------------

 SCF Done:  E(RCAM-B3LYP) =  -1706.77701730     A.U. after   16 cycles

 Excitation energies and oscillator strengths:

 Excited State   1:      Singlet-A      1.8441 eV  672.32 nm  f=2.9029  <S**2>=0.000
     155 ->158         0.12647
     156 ->157         0.70399
     156 <-157        -0.12557
 This state for optimization and/or second-order correction.
 Total Energy, E(TD-HF/TD-DFT) =  -1706.70924680
 Copying the excited state density for this state as the 1-particle RhoCI density.

 The electronic state is 1-A.
 Alpha  occ. eigenvalues --  -19.21889 -19.19214 -10.30588 -10.30548 -10.28556
 Alpha  occ. eigenvalues --  -10.28548 -10.28441 -10.28333 -10.28206 -10.28196
 Alpha  occ. eigenvalues --  -10.28091 -10.27945 -10.27830 -10.27815 -10.27672
 Alpha  occ. eigenvalues --  -10.27438 -10.27378 -10.27325 -10.27253 -10.27111
 Alpha  occ. eigenvalues --  -10.27103 -10.27090 -10.26974 -10.26869 -10.26690
 Alpha  occ. eigenvalues --  -10.26613 -10.26572 -10.26289 -10.26265 -10.26068
 Alpha  occ. eigenvalues --  -10.25973 -10.25906 -10.25814 -10.25752 -10.25712
 Alpha  occ. eigenvalues --  -10.25307 -10.25154 -10.24849 -10.24681 -10.24650
 Alpha  occ. eigenvalues --  -10.24402 -10.24030  -1.11004  -1.08120  -0.94830
 Alpha  occ. eigenvalues --   -0.93663  -0.92370  -0.91340  -0.90795  -0.89732
 Alpha  occ. eigenvalues --   -0.87825  -0.87235  -0.86482  -0.86266  -0.85290
 Alpha  occ. eigenvalues --   -0.83072  -0.82516  -0.80755  -0.79953  -0.79251
 Alpha  occ. eigenvalues --   -0.76871  -0.76416  -0.76002  -0.75854  -0.75588
 Alpha  occ. eigenvalues --   -0.74559  -0.74536  -0.73613  -0.72681  -0.70402
 Alpha  occ. eigenvalues --   -0.68661  -0.68269  -0.65997  -0.64772  -0.64375
 Alpha  occ. eigenvalues --   -0.63092  -0.62556  -0.62094  -0.61910  -0.60308
 Alpha  occ. eigenvalues --   -0.60064  -0.58694  -0.58240  -0.57543  -0.56266
 Alpha  occ. eigenvalues --   -0.55863  -0.55281  -0.54933  -0.54237  -0.53747
 Alpha  occ. eigenvalues --   -0.53310  -0.52363  -0.52225  -0.51973  -0.51698
 Alpha  occ. eigenvalues --   -0.50942  -0.50805  -0.50629  -0.50110  -0.49434
 Alpha  occ. eigenvalues --   -0.48782  -0.48564  -0.48194  -0.47873  -0.47311
 Alpha  occ. eigenvalues --   -0.47244  -0.47035  -0.46542  -0.46479  -0.46271
 Alpha  occ. eigenvalues --   -0.45856  -0.45450  -0.45183  -0.44635  -0.44510
 Alpha  occ. eigenvalues --   -0.44044  -0.43853  -0.43410  -0.43253  -0.43101
 Alpha  occ. eigenvalues --   -0.42479  -0.42331  -0.42190  -0.42077  -0.41657
 Alpha  occ. eigenvalues --   -0.41478  -0.41296  -0.40796  -0.40444  -0.40411
 Alpha  occ. eigenvalues --   -0.40137  -0.39833  -0.39660  -0.39582  -0.39502
 Alpha  occ. eigenvalues --   -0.39074  -0.38569  -0.37883  -0.37815  -0.37637
 Alpha  occ. eigenvalues --   -0.37587  -0.37096  -0.36498  -0.35959  -0.35649
 Alpha  occ. eigenvalues --   -0.34734  -0.34033  -0.33213  -0.32057  -0.31640
 Alpha  occ. eigenvalues --   -0.31517  -0.29891  -0.28972  -0.27087  -0.23577
 Alpha  occ. eigenvalues --   -0.18436
 Alpha virt. eigenvalues --   -0.06906  -0.01110   0.02992   0.05488   0.07083
 Alpha virt. eigenvalues --    0.08681   0.09734   0.10279   0.11102   0.11548
 Alpha virt. eigenvalues --    0.11681   0.12173   0.12344   0.12954   0.13119

 Mulliken charges:
               1
     1  O   -0.523087
     2  O   -0.572069
     3  C    0.014738
     4  C   -0.098470
     5  C   -0.172886
     6  C    0.171222
     7  C    0.122045
     8  C   -0.002897
     9  C   -0.288465
    10  C   -0.269645
    11  C   -0.194390
    12  C   -0.156411
    13  C    0.188432
    14  C    0.084208
    15  C   -0.095049
    16  C   -0.209385
    17  C    0.039308
    18  C   -0.294447
    19  C   -0.310904
    20  C   -0.339285
    21  C   -0.080262
    22  C   -0.094971
    23  C   -0.357038
    24  C    0.041914
    25  C   -0.095238
    26  C   -0.341597
    27  C    0.074632
    28  C   -0.107651
    29  C   -0.351244
    30  C   -0.125948
    31  C   -0.063827
    32  C   -0.076789
    33  C   -0.146147
    34  C    0.033558
    35  C   -0.112188
    36  C    0.124978
    37  C   -0.346998
    38  C   -0.088782
    39  C   -0.082785
    40  C   -0.400426
    41  C   -0.098475
    42  C   -0.058810
    43  H    0.092704
    44  H    0.073249
    45  H    0.106256
    46  H    0.033510
    47  H    0.083071
    48  H    0.106357
    49  H    0.088398
    50  H    0.086571
    51  H    0.066729
    52  H    0.103408
    53  H    0.095157
    54  H    0.095582
    55  H    0.089802
    56  H    0.080589
    57  H    0.091002
    58  H    0.112497
    59  H    0.088134
    60  H    0.110780
    61  H    0.105153
    62  H    0.038367
    63  H    0.108344
    64  H    0.098569
    65  H    0.097558
    66  H    0.126626
    67  H    0.078456
    68  H    0.094711
    69  H    0.308647
    70  H    0.083653
    71  H    0.054026
    72  H    0.103603
    73  H    0.131525
    74  H    0.114518
    75  H    0.288296
    76  H    0.062477
    77  H    0.095591
    78  H    0.112851
    79  H    0.139510
    80  H    0.091646
    81  H    0.123161
    82  H    0.121150
    83  H    0.068943
    84  H    0.093362
    85  H    0.091493
    86  H    0.070483
    87  H    0.068481
    88  H    0.060809
    89  H    0.138385
    90  H    0.139294
    91  H    0.111407
    92  H    0.073421
    93  H    0.062096
    94  H    0.127106
    95  H    0.117207
    96  H    0.101816
    97  H    0.077531
    98  H    0.077462
 Sum of Mulliken charges =  -0.00000

 Dipole moment (field-independent basis, Debye):
    X=             -0.5150    Y=             -0.3656    Z=             -0.0846  Tot=              0.6373
 Quadrupole moment (field-independent basis, Debye-Ang):
   XX=           -283.6902   YY=           -250.7153   ZZ=           -264.0158
   XY=             -3.9319   XZ=             42.4587   YZ=              3.4553

 Normal termination of Gaussian 16 at Mon Jul 15 13:53:30 2019.
