 Gaussian 16, Revision A.03,
 Gaussian 16:  ES64L-G16RevA.03 25-Dec-2016

 -------------------------------------
 # td=(NStates=1) CAM-B3LYP/6-31G(d,p)
 -------------------------------------

 --
 TD
 --
 Symbolic Z-matrix:
 Charge =  0 Multiplicity = 1

                         Standard orientation:
 ---------------------------------------------------------------------
 Center     Atomic      Atomic             Coordinates (Angstroms)
 Number     Number       Type             X           Y           Z
 ---------------------------------------------------------------------
      1          8           0      -14.202522   -1.798779    0.538963
      2          8           0       14.751928    1.146284    0.158438
      3          6           0      -11.774131    0.049673    1.295439
      4          6           0      -10.958911    0.320008   -0.038988
      5          6           0      -11.999970   -1.403698    1.341486
      6          6           0      -12.805614   -2.052313    0.203143
      7          6           0      -11.658138   -0.393680   -1.287007
      8          6           0       11.004547    1.055247    1.003995
      9          6           0      -10.867031    0.462591    2.494773
     10          6           0      -13.003837    0.889787    1.332044
     11          6           0       12.503950    1.578235    0.742119
     12          6           0      -12.454517   -1.403940   -1.152750
     13          6           0       13.451331    0.451548    0.318561
     14          6           0       10.609835    0.006057    0.016994
     15          6           0       -9.512027   -0.091734    0.020047
     16          6           0       12.993801   -0.208900   -0.864888
     17          6           0       11.471561   -0.486887   -0.953280
     18          6           0       10.069559    2.229386    1.030013
     19          6           0       10.985457    0.320034    2.465425
     20          6           0      -11.275261    0.274299   -2.616620
     21          6           0       -8.386500    0.754963   -0.243292
     22          6           0        9.253068   -0.496065    0.109993
     23          6           0       11.184113   -1.381284   -2.126884
     24          6           0       -7.035898    0.456128   -0.155362
     25          6           0        8.812491   -1.816757   -0.117176
     26          6           0       -6.644051   -0.908137    0.121787
     27          6           0        7.425377   -2.220653   -0.054401
     28          6           0       -6.199682    1.519623   -0.341832
     29          6           0        7.163253   -3.661866    0.115533
     30          6           0        6.401243   -1.387765   -0.258442
     31          6           0       -4.860725    1.396335   -0.446234
     32          6           0        5.046620   -1.692816   -0.009990
     33          6           0       -3.941463    2.490988   -0.635481
     34          6           0       -2.600997    2.610006   -0.647227
     35          6           0        4.118241   -0.730232   -0.143811
     36          6           0        2.647320   -0.810616   -0.006116
     37          6           0       -1.920664    3.970372   -0.908075
     38          6           0       -1.761416    1.429359   -0.529224
     39          6           0        1.782113    0.251632   -0.327126
     40          6           0        2.067010   -2.170540    0.128414
     41          6           0       -0.311747    1.444228   -0.534724
     42          6           0        0.443870    0.343412   -0.329895
     43          1           0      -11.093188    1.443868   -0.101604
     44          1           0      -12.436135   -1.894267    2.367102
     45          1           0      -10.981033   -2.082916    1.161637
     46          1           0      -12.736630   -3.029540    0.324368
     47          1           0       -9.962038   -0.081814    2.349258
     48          1           0      -10.716886    1.804393    2.549477
     49          1           0      -11.055985    0.058993    3.722584
     50          1           0      -13.929301    0.635762    0.533139
     51          1           0      -13.467340    0.477134    2.219306
     52          1           0      -12.703412    1.927711    1.566289
     53          1           0       12.374959    2.351771   -0.086580
     54          1           0       12.967211    2.016450    1.505592
     55          1           0      -13.018235   -1.860078   -1.978328
     56          1           0       13.564370   -0.331013    1.229764
     57          1           0       -9.363155   -1.056070    0.705853
     58          1           0       13.740453   -1.095713   -0.998875
     59          1           0       13.275243    0.569652   -1.768522
     60          1           0        9.023068    1.980759    1.259247
     61          1           0        9.917215    2.456399   -0.060692
     62          1           0       10.729851    3.096460    1.514061
     63          1           0       11.705784   -0.457181    2.676293
     64          1           0        9.880016   -0.005034    2.606956
     65          1           0       11.011192    1.188726    3.294175
     66          1           0      -10.296831    0.021902   -2.824606
     67          1           0      -11.534840    1.306736   -2.724106
     68          1           0      -11.737791   -0.696753   -3.470196
     69          1           0      -14.767648   -2.543389    0.008927
     70          1           0        8.547559    0.030311    0.342303
     71          1           0       -8.747022    1.672761   -0.408172
     72          1           0       11.792515   -2.374221   -2.155689
     73          1           0       10.148336   -1.449497   -2.327003
     74          1           0       11.524360   -0.641996   -2.883589
     75          1           0       15.034099    1.678382    1.030263
     76          1           0        9.662136   -2.432251   -0.202399
     77          1           0       -5.612392   -1.042680    0.024194
     78          1           0       -6.911058   -1.214428    1.163241
     79          1           0       -7.048496   -1.502183   -0.667112
     80          1           0       -6.587101    2.568908   -0.313502
     81          1           0        6.967610   -3.994658    1.062722
     82          1           0        6.405027   -4.036775   -0.307427
     83          1           0        8.146341   -4.315386   -0.256923
     84          1           0        6.649850   -0.338512   -0.227026
     85          1           0       -4.500722    0.457069   -0.162204
     86          1           0        4.818403   -2.750927    0.405666
     87          1           0       -4.359217    3.469062   -0.779296
     88          1           0        4.268479    0.140745   -0.484478
     89          1           0       -1.288864    3.903730   -1.788837
     90          1           0       -1.301230    4.270564   -0.129340
     91          1           0       -2.833535    4.607325   -1.119994
     92          1           0       -2.300848    0.523080   -0.297563
     93          1           0        2.224861    1.318082   -0.283150
     94          1           0        2.610567   -2.729568    1.123818
     95          1           0        1.009967   -2.130937    0.423914
     96          1           0        2.295406   -2.524542   -1.126096
     97          1           0        0.087093    2.435560   -0.870498
     98          1           0       -0.259381   -0.496200   -0.011198
 ---------------------------------------------------------------------

 SCF Done:  E(RCAM-B3LYP) =  -1706.79822296     A.U. after   15 cycles

 Excitation energies and oscillator strengths:

 Excited State   1:      Singlet-A      1.8934 eV  654.82 nm  f=3.0376  <S**2>=0.000
     155 ->158        -0.13203
     156 ->157         0.70077
     156 <-157        -0.11979
 This state for optimization and/or second-order correction.
 Total Energy, E(TD-HF/TD-DFT) =  -1706.72864148
 Copying the excited state density for this state as the 1-particle RhoCI density.

 The electronic state is 1-A.
 Alpha  occ. eigenvalues --  -19.21321 -19.21193 -10.31085 -10.29783 -10.28652
 Alpha  occ. eigenvalues --  -10.27915 -10.27870 -10.27868 -10.27814 -10.27265
 Alpha  occ. eigenvalues --  -10.27239 -10.27048 -10.27029 -10.27027 -10.27006
 Alpha  occ. eigenvalues --  -10.26970 -10.26952 -10.26854 -10.26817 -10.26610
 Alpha  occ. eigenvalues --  -10.26386 -10.26350 -10.26326 -10.26311 -10.26175
 Alpha  occ. eigenvalues --  -10.26108 -10.26075 -10.25961 -10.25852 -10.25703
 Alpha  occ. eigenvalues --  -10.25663 -10.25582 -10.25539 -10.25006 -10.24998
 Alpha  occ. eigenvalues --  -10.24953 -10.24941 -10.24815 -10.24639 -10.24626
 Alpha  occ. eigenvalues --  -10.24204 -10.24093  -1.06674  -1.05903  -0.93653
 Alpha  occ. eigenvalues --   -0.93456  -0.92660  -0.92434  -0.91360  -0.90203
 Alpha  occ. eigenvalues --   -0.87737  -0.86805  -0.86779  -0.85738  -0.84848
 Alpha  occ. eigenvalues --   -0.83222  -0.82365  -0.81173  -0.80248  -0.78360
 Alpha  occ. eigenvalues --   -0.77587  -0.77149  -0.76047  -0.75872  -0.75595
 Alpha  occ. eigenvalues --   -0.75203  -0.74636  -0.73529  -0.72399  -0.70852
 Alpha  occ. eigenvalues --   -0.69798  -0.67865  -0.67012  -0.64587  -0.63521
 Alpha  occ. eigenvalues --   -0.62919  -0.62391  -0.61244  -0.60397  -0.60235
 Alpha  occ. eigenvalues --   -0.60075  -0.58668  -0.57563  -0.57017  -0.56033
 Alpha  occ. eigenvalues --   -0.55816  -0.55175  -0.54440  -0.54123  -0.53867
 Alpha  occ. eigenvalues --   -0.53707  -0.53113  -0.52973  -0.52158  -0.51604
 Alpha  occ. eigenvalues --   -0.50880  -0.50478  -0.50257  -0.50140  -0.49827
 Alpha  occ. eigenvalues --   -0.49099  -0.48907  -0.48885  -0.48487  -0.48313
 Alpha  occ. eigenvalues --   -0.48089  -0.47323  -0.47131  -0.46590  -0.46444
 Alpha  occ. eigenvalues --   -0.46092  -0.45328  -0.44695  -0.44455  -0.44343
 Alpha  occ. eigenvalues --   -0.44121  -0.43651  -0.43495  -0.43321  -0.42964
 Alpha  occ. eigenvalues --   -0.42671  -0.42273  -0.41860  -0.41749  -0.41367
 Alpha  occ. eigenvalues --   -0.41229  -0.41072  -0.40999  -0.40368  -0.40251
 Alpha  occ. eigenvalues --   -0.40165  -0.39882  -0.39771  -0.39718  -0.39448
 Alpha  occ. eigenvalues --   -0.38969  -0.38508  -0.38310  -0.37838  -0.37545
 Alpha  occ. eigenvalues --   -0.37287  -0.37199  -0.36869  -0.35297  -0.35009
 Alpha  occ. eigenvalues --   -0.34953  -0.34604  -0.33752  -0.32744  -0.31400
 Alpha  occ. eigenvalues --   -0.31122  -0.30409  -0.29067  -0.26355  -0.23279
 Alpha  occ. eigenvalues --   -0.18512
 Alpha virt. eigenvalues --   -0.06708  -0.01749   0.02174   0.05729   0.07487
 Alpha virt. eigenvalues --    0.08394   0.10146   0.10533   0.10709   0.11079
 Alpha virt. eigenvalues --    0.11575   0.12219   0.12635   0.12723   0.12871

 Mulliken charges:
               1
     1  O   -0.558217
     2  O   -0.587447
     3  C    0.023678
     4  C   -0.134371
     5  C   -0.174591
     6  C    0.138723
     7  C    0.114958
     8  C   -0.021905
     9  C   -0.252485
    10  C   -0.293838
    11  C   -0.173051
    12  C   -0.102695
    13  C    0.180732
    14  C    0.081614
    15  C   -0.105036
    16  C   -0.208421
    17  C    0.023724
    18  C   -0.313026
    19  C   -0.299333
    20  C   -0.333596
    21  C   -0.094757
    22  C   -0.065562
    23  C   -0.346753
    24  C    0.109436
    25  C   -0.117495
    26  C   -0.368773
    27  C    0.097523
    28  C   -0.092762
    29  C   -0.368920
    30  C   -0.114363
    31  C   -0.076625
    32  C   -0.084665
    33  C   -0.132315
    34  C    0.077998
    35  C   -0.056802
    36  C    0.053756
    37  C   -0.368846
    38  C   -0.119711
    39  C   -0.133463
    40  C   -0.330566
    41  C   -0.085678
    42  C   -0.058194
    43  H    0.086783
    44  H    0.085703
    45  H    0.063086
    46  H    0.088514
    47  H    0.111225
    48  H    0.051539
    49  H    0.062521
    50  H    0.112510
    51  H    0.115328
    52  H    0.091671
    53  H    0.093945
    54  H    0.077503
    55  H    0.074759
    56  H    0.061505
    57  H    0.077418
    58  H    0.104946
    59  H    0.098575
    60  H    0.112223
    61  H    0.102325
    62  H    0.104421
    63  H    0.112472
    64  H    0.095384
    65  H    0.072896
    66  H    0.147815
    67  H    0.128964
    68  H    0.041381
    69  H    0.295624
    70  H    0.034220
    71  H    0.071850
    72  H    0.113913
    73  H    0.126761
    74  H    0.116293
    75  H    0.310287
    76  H    0.090132
    77  H    0.108812
    78  H    0.125220
    79  H    0.131403
    80  H    0.086226
    81  H    0.128189
    82  H    0.129039
    83  H    0.081175
    84  H    0.081082
    85  H    0.077234
    86  H    0.088886
    87  H    0.061697
    88  H    0.060089
    89  H    0.130715
    90  H    0.137171
    91  H    0.099683
    92  H    0.074076
    93  H    0.075712
    94  H    0.088096
    95  H    0.115337
    96  H    0.105995
    97  H    0.075675
    98  H    0.076118
 Sum of Mulliken charges =  -0.00000

 Dipole moment (field-independent basis, Debye):
    X=              0.1430    Y=             -1.4860    Z=              0.6723  Tot=              1.6373
 Quadrupole moment (field-independent basis, Debye-Ang):
   XX=           -286.8500   YY=           -240.5746   ZZ=           -265.4537
   XY=             19.2818   XZ=             27.7378   YZ=              0.3959

 Normal termination of Gaussian 16 at Sun Jul 14 14:19:55 2019.
