 Gaussian 16, Revision A.03,
 Gaussian 16:  ES64L-G16RevA.03 25-Dec-2016

 -------------------------------------
 # td=(NStates=1) CAM-B3LYP/6-31G(d,p)
 -------------------------------------

 --
 TD
 --
 Symbolic Z-matrix:
 Charge =  0 Multiplicity = 1

                         Standard orientation:
 ---------------------------------------------------------------------
 Center     Atomic      Atomic             Coordinates (Angstroms)
 Number     Number       Type             X           Y           Z
 ---------------------------------------------------------------------
      1          8           0      -14.121302   -2.209739    0.507855
      2          8           0       14.826474    0.978151    0.114626
      3          6           0      -11.788693   -0.007008    1.373167
      4          6           0      -10.993034    0.389933    0.000538
      5          6           0      -11.929760   -1.564573    1.437464
      6          6           0      -12.628865   -2.143059    0.150462
      7          6           0      -11.669238   -0.277698   -1.192650
      8          6           0       11.124279    0.927799    1.119316
      9          6           0      -10.943637    0.507119    2.531428
     10          6           0      -13.180343    0.563890    1.390379
     11          6           0       12.525281    1.474360    0.868184
     12          6           0      -12.329370   -1.365573   -1.084802
     13          6           0       13.572089    0.381942    0.347433
     14          6           0       10.754361   -0.026705    0.009154
     15          6           0       -9.542374   -0.012291    0.017394
     16          6           0       13.003929   -0.161772   -0.958551
     17          6           0       11.597661   -0.427817   -0.990754
     18          6           0       10.174987    2.037046    1.248497
     19          6           0       11.129391    0.102653    2.505322
     20          6           0      -11.293674    0.381530   -2.510403
     21          6           0       -8.561383    0.864520   -0.129703
     22          6           0        9.267012   -0.417569    0.072063
     23          6           0       11.191536   -1.305318   -2.126235
     24          6           0       -7.124087    0.489520   -0.134400
     25          6           0        8.777933   -1.685635   -0.084572
     26          6           0       -6.798767   -0.952393    0.079358
     27          6           0        7.419368   -2.145377   -0.050168
     28          6           0       -6.188404    1.526073   -0.440895
     29          6           0        7.108693   -3.561341    0.044540
     30          6           0        6.393303   -1.181333   -0.058143
     31          6           0       -4.754451    1.450484   -0.518644
     32          6           0        5.084223   -1.494945   -0.027720
     33          6           0       -4.074432    2.611443   -0.688686
     34          6           0       -2.645526    2.619416   -0.701484
     35          6           0        4.066735   -0.463111   -0.158370
     36          6           0        2.697975   -0.694178   -0.214450
     37          6           0       -1.872926    4.008211   -0.799696
     38          6           0       -1.887441    1.472812   -0.460493
     39          6           0        1.710591    0.314317   -0.375274
     40          6           0        2.213449   -2.176586   -0.144950
     41          6           0       -0.487592    1.404439   -0.420648
     42          6           0        0.257858    0.237630   -0.411839
     43          1           0      -11.091191    1.538623   -0.001308
     44          1           0      -12.763804   -1.672801    2.216906
     45          1           0      -10.929817   -1.919729    1.424923
     46          1           0      -12.495299   -3.241178    0.185103
     47          1           0      -10.019111   -0.043573    2.445659
     48          1           0      -10.714953    1.694030    2.545992
     49          1           0      -11.474779    0.415006    3.442485
     50          1           0      -13.971722    0.333781    0.581189
     51          1           0      -13.623474    0.114349    2.216500
     52          1           0      -13.271904    1.790705    1.406191
     53          1           0       12.473443    2.291289    0.060387
     54          1           0       13.142866    1.626669    1.727355
     55          1           0      -12.709507   -1.836924   -1.948286
     56          1           0       13.839532   -0.489835    1.013795
     57          1           0       -9.483208   -1.196297    0.365406
     58          1           0       13.454849   -1.117341   -1.053312
     59          1           0       13.375739    0.350101   -1.967942
     60          1           0        9.194889    1.666159    1.571540
     61          1           0       10.276645    2.712912    0.295732
     62          1           0       10.534207    2.590750    2.113353
     63          1           0       11.985191   -0.474373    2.530078
     64          1           0       10.183741   -0.436963    2.725392
     65          1           0       11.327844    0.979523    3.370120
     66          1           0      -10.297619    0.676008   -2.635667
     67          1           0      -11.880583    1.316297   -2.751893
     68          1           0      -11.810873   -0.197439   -3.335931
     69          1           0      -14.324097   -2.158608   -0.401645
     70          1           0        8.503478    0.466941    0.312150
     71          1           0       -8.822065    1.917540   -0.458003
     72          1           0       11.552775   -2.343217   -2.083300
     73          1           0       10.195229   -1.485959   -2.529387
     74          1           0       11.666736   -1.070359   -3.076023
     75          1           0       15.000254    1.609991    0.792200
     76          1           0        9.481572   -2.458301   -0.265117
     77          1           0       -5.891672   -1.176052   -0.265378
     78          1           0       -6.950204   -1.245547    1.203830
     79          1           0       -7.533457   -1.416996   -0.725442
     80          1           0       -6.547445    2.456132   -0.474419
     81          1           0        6.967288   -3.611841    1.099982
     82          1           0        6.110152   -3.612210   -0.747300
     83          1           0        7.892188   -4.246988   -0.358144
     84          1           0        6.479122   -0.207446   -0.252498
     85          1           0       -4.171433    0.571890   -0.485058
     86          1           0        4.626320   -2.587482   -0.167248
     87          1           0       -4.585966    3.613407   -0.968448
     88          1           0        4.463154    0.546502   -0.076063
     89          1           0       -1.358394    4.123607   -1.778410
     90          1           0       -1.223502    4.049352    0.211129
     91          1           0       -2.652466    4.629810   -1.057385
     92          1           0       -2.284482    0.428665   -0.689342
     93          1           0        2.092034    1.454897   -0.246722
     94          1           0        2.421757   -2.724669    0.897354
     95          1           0        1.207480   -2.268425   -0.155746
     96          1           0        2.684683   -2.768222   -0.917581
     97          1           0        0.041003    2.528775   -0.388463
     98          1           0       -0.192450   -0.837376   -0.540162
 ---------------------------------------------------------------------

 SCF Done:  E(RCAM-B3LYP) =  -1706.94557119     A.U. after   15 cycles

 Excitation energies and oscillator strengths:

 Excited State   1:      Singlet-A      1.9620 eV  631.92 nm  f=3.0320  <S**2>=0.000
     155 ->158        -0.14983
     156 ->157         0.69363
     156 <-157        -0.10056
 This state for optimization and/or second-order correction.
 Total Energy, E(TD-HF/TD-DFT) =  -1706.87346768
 Copying the excited state density for this state as the 1-particle RhoCI density.

 The electronic state is 1-A.
 Alpha  occ. eigenvalues --  -19.20873 -19.20038 -10.31046 -10.30959 -10.28087
 Alpha  occ. eigenvalues --  -10.27820 -10.27804 -10.27615 -10.27568 -10.27518
 Alpha  occ. eigenvalues --  -10.27459 -10.27375 -10.27174 -10.27165 -10.27039
 Alpha  occ. eigenvalues --  -10.27012 -10.26909 -10.26861 -10.26818 -10.26800
 Alpha  occ. eigenvalues --  -10.26767 -10.26736 -10.26528 -10.26308 -10.26291
 Alpha  occ. eigenvalues --  -10.26258 -10.25988 -10.25979 -10.25971 -10.25946
 Alpha  occ. eigenvalues --  -10.25903 -10.25878 -10.25420 -10.25371 -10.25329
 Alpha  occ. eigenvalues --  -10.25056 -10.24965 -10.24941 -10.24634 -10.24479
 Alpha  occ. eigenvalues --  -10.24268 -10.24008  -1.10344  -1.07763  -0.93920
 Alpha  occ. eigenvalues --   -0.93759  -0.91984  -0.91812  -0.90108  -0.89307
 Alpha  occ. eigenvalues --   -0.88232  -0.87671  -0.86990  -0.85137  -0.84190
 Alpha  occ. eigenvalues --   -0.82956  -0.82085  -0.80578  -0.80252  -0.77760
 Alpha  occ. eigenvalues --   -0.76834  -0.76480  -0.76357  -0.76249  -0.75928
 Alpha  occ. eigenvalues --   -0.75375  -0.75259  -0.75230  -0.72025  -0.69994
 Alpha  occ. eigenvalues --   -0.69021  -0.67636  -0.66319  -0.64467  -0.64210
 Alpha  occ. eigenvalues --   -0.63345  -0.62616  -0.61530  -0.60645  -0.59642
 Alpha  occ. eigenvalues --   -0.59131  -0.57400  -0.57154  -0.56539  -0.56190
 Alpha  occ. eigenvalues --   -0.55832  -0.55054  -0.54712  -0.54435  -0.54151
 Alpha  occ. eigenvalues --   -0.53577  -0.52993  -0.52561  -0.52200  -0.51329
 Alpha  occ. eigenvalues --   -0.51171  -0.50457  -0.49658  -0.49384  -0.49279
 Alpha  occ. eigenvalues --   -0.49175  -0.48932  -0.48478  -0.48245  -0.48005
 Alpha  occ. eigenvalues --   -0.47720  -0.47489  -0.46797  -0.46458  -0.45828
 Alpha  occ. eigenvalues --   -0.45636  -0.45542  -0.45104  -0.44907  -0.44821
 Alpha  occ. eigenvalues --   -0.44611  -0.44466  -0.44069  -0.43780  -0.43575
 Alpha  occ. eigenvalues --   -0.43340  -0.43210  -0.42633  -0.42174  -0.42032
 Alpha  occ. eigenvalues --   -0.41936  -0.41896  -0.41621  -0.41058  -0.40497
 Alpha  occ. eigenvalues --   -0.40386  -0.40078  -0.40014  -0.39451  -0.39219
 Alpha  occ. eigenvalues --   -0.38665  -0.38547  -0.38306  -0.37952  -0.37726
 Alpha  occ. eigenvalues --   -0.37224  -0.37115  -0.36869  -0.36397  -0.35544
 Alpha  occ. eigenvalues --   -0.34910  -0.34093  -0.33106  -0.32385  -0.31994
 Alpha  occ. eigenvalues --   -0.31475  -0.31000  -0.28671  -0.27005  -0.23330
 Alpha  occ. eigenvalues --   -0.18542
 Alpha virt. eigenvalues --   -0.06190  -0.01513   0.03126   0.05221   0.06576
 Alpha virt. eigenvalues --    0.08644   0.10690   0.11276   0.11337   0.12226
 Alpha virt. eigenvalues --    0.12321   0.12893   0.13110   0.13499   0.13895

 Mulliken charges:
               1
     1  O   -0.556599
     2  O   -0.558539
     3  C    0.005354
     4  C   -0.160146
     5  C   -0.190915
     6  C    0.098842
     7  C    0.166593
     8  C   -0.013598
     9  C   -0.277893
    10  C   -0.287893
    11  C   -0.213388
    12  C   -0.153026
    13  C    0.158927
    14  C    0.040655
    15  C   -0.080430
    16  C   -0.236570
    17  C    0.108402
    18  C   -0.283387
    19  C   -0.297142
    20  C   -0.371030
    21  C   -0.090686
    22  C   -0.124612
    23  C   -0.392297
    24  C    0.068356
    25  C   -0.092004
    26  C   -0.347974
    27  C    0.050009
    28  C   -0.119366
    29  C   -0.346946
    30  C   -0.070605
    31  C   -0.046065
    32  C   -0.091523
    33  C   -0.109835
    34  C    0.044677
    35  C   -0.141246
    36  C    0.105512
    37  C   -0.356612
    38  C   -0.117272
    39  C   -0.132977
    40  C   -0.362333
    41  C   -0.076638
    42  C   -0.098278
    43  H    0.086101
    44  H    0.126860
    45  H    0.091168
    46  H    0.108733
    47  H    0.104112
    48  H    0.076581
    49  H    0.103845
    50  H    0.105370
    51  H    0.110865
    52  H    0.058143
    53  H    0.106192
    54  H    0.082743
    55  H    0.077114
    56  H    0.085934
    57  H    0.086433
    58  H    0.117193
    59  H    0.106163
    60  H    0.106810
    61  H    0.091042
    62  H    0.101152
    63  H    0.113503
    64  H    0.116788
    65  H    0.060686
    66  H    0.135969
    67  H    0.111347
    68  H    0.100779
    69  H    0.295396
    70  H    0.088071
    71  H    0.089835
    72  H    0.110849
    73  H    0.125306
    74  H    0.104530
    75  H    0.300725
    76  H    0.074760
    77  H    0.118548
    78  H    0.120031
    79  H    0.110124
    80  H    0.071015
    81  H    0.149022
    82  H    0.098439
    83  H    0.111699
    84  H    0.078861
    85  H    0.090351
    86  H    0.076691
    87  H    0.084889
    88  H    0.078046
    89  H    0.124128
    90  H    0.130471
    91  H    0.109135
    92  H    0.078599
    93  H    0.067276
    94  H    0.098738
    95  H    0.106724
    96  H    0.121657
    97  H    0.074613
    98  H    0.090344
 Sum of Mulliken charges =  -0.00000

 Dipole moment (field-independent basis, Debye):
    X=              1.2375    Y=              0.2710    Z=             -1.2373  Tot=              1.7708
 Quadrupole moment (field-independent basis, Debye-Ang):
   XX=           -295.3288   YY=           -245.7833   ZZ=           -261.2772
   XY=            -10.1358   XZ=             39.0990   YZ=              3.1832

 Normal termination of Gaussian 16 at Mon Jul 15 19:37:52 2019.
