 Gaussian 16, Revision A.03,
 Gaussian 16:  ES64L-G16RevA.03 25-Dec-2016

 -------------------------------------
 # td=(NStates=1) CAM-B3LYP/6-31G(d,p)
 -------------------------------------

 --
 TD
 --
 Symbolic Z-matrix:
 Charge =  0 Multiplicity = 1

                         Standard orientation:
 ---------------------------------------------------------------------
 Center     Atomic      Atomic             Coordinates (Angstroms)
 Number     Number       Type             X           Y           Z
 ---------------------------------------------------------------------
      1          8           0      -14.139953   -2.024100    0.552814
      2          8           0       14.909808    0.718767    0.214275
      3          6           0      -11.649944   -0.062215    1.422497
      4          6           0      -10.966833    0.290566    0.088808
      5          6           0      -12.004132   -1.531543    1.411965
      6          6           0      -12.809901   -2.150946    0.245616
      7          6           0      -11.536217   -0.378249   -1.274402
      8          6           0       11.103060    0.976443    1.108159
      9          6           0      -10.906561    0.299146    2.590133
     10          6           0      -13.009806    0.755512    1.410362
     11          6           0       12.592426    1.474706    0.805182
     12          6           0      -12.378630   -1.378402   -0.996461
     13          6           0       13.507291    0.439611    0.551857
     14          6           0       10.723859   -0.038119    0.044085
     15          6           0       -9.478697   -0.124228   -0.015807
     16          6           0       13.111714   -0.292376   -0.779841
     17          6           0       11.601869   -0.645697   -0.847926
     18          6           0       10.220754    2.273952    1.063370
     19          6           0       10.955705    0.349921    2.513931
     20          6           0      -11.225086    0.206064   -2.512035
     21          6           0       -8.571205    0.846509   -0.060653
     22          6           0        9.294039   -0.434596    0.094453
     23          6           0       11.285218   -1.664506   -1.896460
     24          6           0       -7.119482    0.372503   -0.157496
     25          6           0        8.738349   -1.667343   -0.012780
     26          6           0       -6.672041   -0.999396   -0.095479
     27          6           0        7.282106   -2.119422   -0.108656
     28          6           0       -6.201505    1.522732   -0.307791
     29          6           0        7.126672   -3.593389    0.174268
     30          6           0        6.309153   -1.129180   -0.436963
     31          6           0       -4.777310    1.538715   -0.372748
     32          6           0        4.940633   -1.382131   -0.225740
     33          6           0       -3.986213    2.661326   -0.598174
     34          6           0       -2.618748    2.690546   -0.678809
     35          6           0        3.974832   -0.468645   -0.513763
     36          6           0        2.579335   -0.762979   -0.406175
     37          6           0       -2.017953    4.146776   -0.887246
     38          6           0       -1.780872    1.543119   -0.530781
     39          6           0        1.744867    0.326390   -0.636901
     40          6           0        2.038779   -2.030778   -0.036755
     41          6           0       -0.416107    1.607584   -0.651734
     42          6           0        0.348312    0.424838   -0.476689
     43          1           0      -11.163069    1.446044   -0.117279
     44          1           0      -12.646544   -1.690933    2.294979
     45          1           0      -11.036880   -1.966951    1.669199
     46          1           0      -12.571888   -3.278959    0.062581
     47          1           0      -10.075511   -0.315428    2.768756
     48          1           0      -10.633521    1.243118    2.570377
     49          1           0      -11.562988    0.302128    3.315927
     50          1           0      -13.428202    0.769077    0.466766
     51          1           0      -13.530761    0.149568    2.346612
     52          1           0      -12.907066    1.720075    1.732889
     53          1           0       12.428468    2.242953    0.026063
     54          1           0       12.907450    2.205448    1.682810
     55          1           0      -12.844531   -1.958465   -2.014492
     56          1           0       13.685014   -0.353743    1.407776
     57          1           0       -9.114183   -1.282723    0.077395
     58          1           0       13.667931   -1.149061   -0.951494
     59          1           0       13.349290    0.326088   -1.798092
     60          1           0        9.069859    1.925379    1.261534
     61          1           0        9.992598    2.557624    0.011045
     62          1           0       10.613140    2.895199    1.693421
     63          1           0       11.713669   -0.582792    2.558852
     64          1           0       10.138209   -0.214284    2.623443
     65          1           0       11.054003    1.058915    3.416781
     66          1           0      -10.152824    0.220029   -2.756710
     67          1           0      -11.822475    1.259468   -2.565580
     68          1           0      -11.733938   -0.417660   -3.468160
     69          1           0      -14.648994   -2.274007   -0.266225
     70          1           0        8.365733    0.316021    0.206057
     71          1           0       -8.717174    1.911033   -0.322313
     72          1           0       11.410954   -2.744207   -1.402628
     73          1           0       10.282260   -1.530482   -2.396187
     74          1           0       12.028163   -1.591753   -2.765421
     75          1           0       15.137514    1.196229    0.959058
     76          1           0        9.332389   -2.523109    0.030249
     77          1           0       -5.542786   -1.084883   -0.028223
     78          1           0       -7.142610   -1.471752    0.820937
     79          1           0       -7.059289   -1.522966   -0.871782
     80          1           0       -6.822266    2.418819   -0.303210
     81          1           0        7.083353   -3.869709    1.373234
     82          1           0        6.111118   -3.994466   -0.408138
     83          1           0        8.022013   -4.046090   -0.287674
     84          1           0        6.687660   -0.193694   -0.459346
     85          1           0       -4.375778    0.446131   -0.257202
     86          1           0        4.640834   -2.202146    0.084099
     87          1           0       -4.602803    3.650399   -0.707090
     88          1           0        4.238747    0.547133   -1.054718
     89          1           0       -1.233050    4.190761   -1.776331
     90          1           0       -1.304160    4.426002   -0.105373
     91          1           0       -2.675316    4.867130   -1.043218
     92          1           0       -2.344185    0.599997   -0.242637
     93          1           0        2.147264    1.212374   -0.843615
     94          1           0        1.459398   -1.898682    1.497021
     95          1           0        0.968711   -1.871685   -0.753640
     96          1           0        2.979749   -2.956454   -0.241131
     97          1           0        0.130264    2.467233   -0.869077
     98          1           0       -0.222180   -0.497525   -0.056106
 ---------------------------------------------------------------------

 SCF Done:  E(RCAM-B3LYP) =  -1706.77223264     A.U. after   16 cycles

 Excitation energies and oscillator strengths:

 Excited State   1:      Singlet-A      1.8712 eV  662.60 nm  f=2.7184  <S**2>=0.000
     155 ->158        -0.12200
     156 ->157         0.70289
     156 <-157        -0.11954
 This state for optimization and/or second-order correction.
 Total Energy, E(TD-HF/TD-DFT) =  -1706.70346803
 Copying the excited state density for this state as the 1-particle RhoCI density.

 The electronic state is 1-A.
 Alpha  occ. eigenvalues --  -19.22145 -19.20178 -10.32082 -10.32013 -10.31079
 Alpha  occ. eigenvalues --  -10.28760 -10.28521 -10.28295 -10.28030 -10.27945
 Alpha  occ. eigenvalues --  -10.27892 -10.27816 -10.27756 -10.27676 -10.27512
 Alpha  occ. eigenvalues --  -10.27191 -10.26975 -10.26910 -10.26893 -10.26760
 Alpha  occ. eigenvalues --  -10.26710 -10.26670 -10.26627 -10.26545 -10.26422
 Alpha  occ. eigenvalues --  -10.26406 -10.26356 -10.26282 -10.26245 -10.26086
 Alpha  occ. eigenvalues --  -10.25984 -10.25834 -10.25775 -10.25338 -10.25052
 Alpha  occ. eigenvalues --  -10.24984 -10.24964 -10.24459 -10.24409 -10.23852
 Alpha  occ. eigenvalues --  -10.23543 -10.21115  -1.11344  -1.09458  -0.94024
 Alpha  occ. eigenvalues --   -0.93099  -0.92250  -0.91380  -0.90312  -0.89386
 Alpha  occ. eigenvalues --   -0.88538  -0.87079  -0.86284  -0.85261  -0.84189
 Alpha  occ. eigenvalues --   -0.83249  -0.82123  -0.81487  -0.79931  -0.78087
 Alpha  occ. eigenvalues --   -0.77560  -0.76941  -0.76432  -0.75608  -0.75330
 Alpha  occ. eigenvalues --   -0.75084  -0.74882  -0.74689  -0.72289  -0.70088
 Alpha  occ. eigenvalues --   -0.68289  -0.67419  -0.66235  -0.64369  -0.63665
 Alpha  occ. eigenvalues --   -0.63095  -0.62647  -0.61833  -0.60260  -0.59676
 Alpha  occ. eigenvalues --   -0.59403  -0.58648  -0.57587  -0.56938  -0.56091
 Alpha  occ. eigenvalues --   -0.55421  -0.54924  -0.54733  -0.54390  -0.53951
 Alpha  occ. eigenvalues --   -0.53287  -0.52703  -0.52301  -0.51971  -0.51418
 Alpha  occ. eigenvalues --   -0.51130  -0.50909  -0.50315  -0.49438  -0.49147
 Alpha  occ. eigenvalues --   -0.48781  -0.48413  -0.48349  -0.47960  -0.47744
 Alpha  occ. eigenvalues --   -0.47488  -0.47339  -0.47018  -0.46855  -0.46506
 Alpha  occ. eigenvalues --   -0.46036  -0.45691  -0.45529  -0.45304  -0.45079
 Alpha  occ. eigenvalues --   -0.44629  -0.44231  -0.44127  -0.43869  -0.43661
 Alpha  occ. eigenvalues --   -0.43435  -0.42564  -0.42468  -0.42392  -0.42270
 Alpha  occ. eigenvalues --   -0.41932  -0.41756  -0.41405  -0.40816  -0.40455
 Alpha  occ. eigenvalues --   -0.40311  -0.40031  -0.39689  -0.39404  -0.39104
 Alpha  occ. eigenvalues --   -0.38784  -0.38513  -0.38322  -0.37430  -0.37248
 Alpha  occ. eigenvalues --   -0.36946  -0.36315  -0.35983  -0.35839  -0.35317
 Alpha  occ. eigenvalues --   -0.34414  -0.33752  -0.33147  -0.32846  -0.32468
 Alpha  occ. eigenvalues --   -0.31089  -0.29752  -0.28552  -0.26539  -0.23562
 Alpha  occ. eigenvalues --   -0.18389
 Alpha virt. eigenvalues --   -0.06649  -0.00789   0.02045   0.04875   0.05512
 Alpha virt. eigenvalues --    0.06832   0.08503   0.10345   0.10724   0.11228
 Alpha virt. eigenvalues --    0.11989   0.12229   0.12341   0.12555   0.12711

 Mulliken charges:
               1
     1  O   -0.523153
     2  O   -0.548245
     3  C    0.008513
     4  C   -0.143770
     5  C   -0.184439
     6  C    0.166584
     7  C    0.148306
     8  C   -0.012686
     9  C   -0.272826
    10  C   -0.289925
    11  C   -0.189351
    12  C   -0.136611
    13  C    0.147979
    14  C    0.048420
    15  C   -0.110527
    16  C   -0.207529
    17  C    0.061982
    18  C   -0.293876
    19  C   -0.290894
    20  C   -0.364972
    21  C   -0.064880
    22  C   -0.121487
    23  C   -0.360789
    24  C    0.089839
    25  C   -0.098765
    26  C   -0.384172
    27  C    0.069039
    28  C   -0.134501
    29  C   -0.354499
    30  C   -0.097767
    31  C   -0.063315
    32  C   -0.048045
    33  C   -0.143593
    34  C    0.102231
    35  C   -0.103387
    36  C    0.142295
    37  C   -0.368018
    38  C   -0.111260
    39  C   -0.103363
    40  C   -0.297338
    41  C   -0.063835
    42  C   -0.117762
    43  H    0.073097
    44  H    0.102290
    45  H    0.085504
    46  H    0.074038
    47  H    0.099124
    48  H    0.106515
    49  H    0.103872
    50  H    0.112735
    51  H    0.078939
    52  H    0.097545
    53  H    0.116493
    54  H    0.061063
    55  H    0.012547
    56  H    0.085150
    57  H    0.095286
    58  H    0.120112
    59  H    0.100278
    60  H    0.082831
    61  H    0.110577
    62  H    0.111449
    63  H    0.073905
    64  H    0.128478
    65  H    0.092574
    66  H    0.134322
    67  H    0.108304
    68  H    0.089931
    69  H    0.309832
    70  H    0.066162
    71  H    0.102254
    72  H    0.109378
    73  H    0.127439
    74  H    0.101897
    75  H    0.288474
    76  H    0.062209
    77  H    0.113492
    78  H    0.117985
    79  H    0.142944
    80  H    0.067460
    81  H    0.113346
    82  H    0.092861
    83  H    0.124031
    84  H    0.073446
    85  H    0.073950
    86  H    0.043040
    87  H    0.086422
    88  H    0.078038
    89  H    0.096927
    90  H    0.126003
    91  H    0.118467
    92  H    0.086397
    93  H    0.064210
    94  H    0.010386
    95  H    0.109012
    96  H    0.088483
    97  H    0.089592
    98  H    0.079296
 Sum of Mulliken charges =  -0.00000

 Dipole moment (field-independent basis, Debye):
    X=             -2.2020    Y=              0.4786    Z=             -0.3062  Tot=              2.2741
 Quadrupole moment (field-independent basis, Debye-Ang):
   XX=           -274.3685   YY=           -244.5767   ZZ=           -263.3607
   XY=              2.8082   XZ=             31.5948   YZ=              2.6084

 Normal termination of Gaussian 16 at Sat Jul 13 12:35:31 2019.
