 Gaussian 16, Revision A.03,
 Gaussian 16:  ES64L-G16RevA.03 25-Dec-2016

 -------------------------------------
 # td=(NStates=1) CAM-B3LYP/6-31G(d,p)
 -------------------------------------

 --
 TD
 --
 Symbolic Z-matrix:
 Charge =  0 Multiplicity = 1

                         Standard orientation:
 ---------------------------------------------------------------------
 Center     Atomic      Atomic             Coordinates (Angstroms)
 Number     Number       Type             X           Y           Z
 ---------------------------------------------------------------------
      1          8           0      -13.939587   -1.985873    0.568715
      2          8           0       14.631758    0.948694    0.009684
      3          6           0      -11.601026   -0.047323    1.379131
      4          6           0      -10.871365    0.328203    0.032423
      5          6           0      -11.818342   -1.453249    1.364113
      6          6           0      -12.602938   -2.070254    0.204324
      7          6           0      -11.620497   -0.337264   -1.177246
      8          6           0       11.128687    0.823709    1.212952
      9          6           0      -10.637911    0.461514    2.539405
     10          6           0      -12.879044    0.629744    1.457913
     11          6           0       12.496751    1.436255    0.845677
     12          6           0      -12.359062   -1.383879   -1.098341
     13          6           0       13.399066    0.435547    0.224650
     14          6           0       10.672876   -0.082972    0.056420
     15          6           0       -9.372883   -0.090083   -0.047186
     16          6           0       12.852959   -0.004760   -1.121827
     17          6           0       11.378151   -0.359075   -1.054307
     18          6           0       10.181759    2.023794    1.391685
     19          6           0       11.179279   -0.027780    2.484878
     20          6           0      -11.353233    0.232936   -2.502041
     21          6           0       -8.422487    0.874552   -0.235571
     22          6           0        9.219519   -0.600485    0.201595
     23          6           0       10.891795   -1.068732   -2.287662
     24          6           0       -7.037444    0.454321   -0.264497
     25          6           0        8.710315   -1.876252   -0.021457
     26          6           0       -6.741318   -1.033339   -0.159027
     27          6           0        7.394357   -2.186665   -0.028689
     28          6           0       -6.184845    1.515017   -0.485023
     29          6           0        7.145774   -3.757581    0.107919
     30          6           0        6.261330   -1.289317   -0.128990
     31          6           0       -4.787111    1.377862   -0.475286
     32          6           0        4.866807   -1.646446   -0.030761
     33          6           0       -4.068940    2.586493   -0.569786
     34          6           0       -2.607568    2.701694   -0.645677
     35          6           0        3.945439   -0.568764   -0.193798
     36          6           0        2.546860   -0.738198   -0.164569
     37          6           0       -1.998925    4.117791   -0.510971
     38          6           0       -1.815854    1.637252   -0.563659
     39          6           0        1.790084    0.425213   -0.359759
     40          6           0        1.928678   -2.098373   -0.083563
     41          6           0       -0.394826    1.562095   -0.543415
     42          6           0        0.409201    0.455831   -0.385055
     43          1           0      -10.986752    1.310084   -0.194447
     44          1           0      -12.418070   -1.734359    2.159278
     45          1           0      -10.798679   -1.807363    1.453855
     46          1           0      -12.194666   -3.160226    0.363376
     47          1           0       -9.650268   -0.059386    2.509577
     48          1           0      -10.669582    1.522313    2.614716
     49          1           0      -10.955918    0.202352    3.617751
     50          1           0      -13.634648    0.070426    0.623650
     51          1           0      -13.348146    0.349226    2.364572
     52          1           0      -12.848455    1.820061    1.480943
     53          1           0       12.491518    2.325786    0.118948
     54          1           0       13.062473    1.809700    1.759326
     55          1           0      -12.954145   -1.943891   -1.806773
     56          1           0       13.514869   -0.392471    0.909625
     57          1           0       -9.063061   -1.070487    0.064258
     58          1           0       13.469120   -0.845274   -1.559435
     59          1           0       13.114387    1.004812   -1.904080
     60          1           0        9.347646    1.885612    1.695715
     61          1           0        9.989014    2.592422    0.473855
     62          1           0       10.663478    2.690834    2.183551
     63          1           0       11.869094   -0.823616    2.312038
     64          1           0       10.219103   -0.409542    2.806310
     65          1           0       11.688205    0.507457    3.350059
     66          1           0      -10.167572    0.237219   -2.877974
     67          1           0      -11.619017    1.369702   -2.922239
     68          1           0      -11.767449   -0.481101   -3.374363
     69          1           0      -14.364251   -2.079380   -0.307955
     70          1           0        8.480713    0.071954    0.608792
     71          1           0       -8.745766    1.790940   -0.450429
     72          1           0       11.123963   -2.172837   -2.197567
     73          1           0        9.813466   -0.818684   -2.543120
     74          1           0       11.395486   -0.732711   -3.018952
     75          1           0       14.926435    1.646054    0.607056
     76          1           0        9.302401   -2.670398   -0.443861
     77          1           0       -5.511296   -1.015701   -0.061474
     78          1           0       -7.365733   -1.486305    0.881638
     79          1           0       -7.009932   -1.638155   -1.013355
     80          1           0       -6.749894    2.205715   -0.636398
     81          1           0        7.173684   -3.735758    1.213610
     82          1           0        6.052934   -3.855618   -0.310134
     83          1           0        8.075152   -4.257675   -0.240807
     84          1           0        6.460603   -0.151345   -0.169287
     85          1           0       -4.245968    0.411869   -0.263963
     86          1           0        4.466531   -2.550911   -0.045573
     87          1           0       -4.619903    3.528151   -0.577855
     88          1           0        4.255386    0.503350   -0.522932
     89          1           0       -1.242080    4.237393   -1.331733
     90          1           0       -1.418371    4.236043    0.359315
     91          1           0       -2.687772    4.841446   -0.625564
     92          1           0       -2.316034    0.656615   -0.650077
     93          1           0        2.412046    1.306125   -0.844488
     94          1           0        2.360730   -2.512757    0.801452
     95          1           0        0.794285   -1.870850    0.194105
     96          1           0        2.186095   -2.772840   -0.922544
     97          1           0        0.028727    2.643376   -0.329865
     98          1           0       -0.265894   -0.584144   -0.196858
 ---------------------------------------------------------------------

 SCF Done:  E(RCAM-B3LYP) =  -1706.88971128     A.U. after   15 cycles

 Excitation energies and oscillator strengths:

 Excited State   1:      Singlet-A      2.0801 eV  596.04 nm  f=3.0133  <S**2>=0.000
     155 ->158         0.15699
     156 ->157         0.69020
 This state for optimization and/or second-order correction.
 Total Energy, E(TD-HF/TD-DFT) =  -1706.81326831
 Copying the excited state density for this state as the 1-particle RhoCI density.

 The electronic state is 1-A.
 Alpha  occ. eigenvalues --  -19.22341 -19.20359 -10.30446 -10.29160 -10.28773
 Alpha  occ. eigenvalues --  -10.28332 -10.27854 -10.27718 -10.27174 -10.27155
 Alpha  occ. eigenvalues --  -10.27139 -10.27111 -10.27073 -10.26883 -10.26857
 Alpha  occ. eigenvalues --  -10.26842 -10.26837 -10.26830 -10.26793 -10.26775
 Alpha  occ. eigenvalues --  -10.26757 -10.26727 -10.26674 -10.26450 -10.26388
 Alpha  occ. eigenvalues --  -10.26280 -10.25972 -10.25624 -10.25417 -10.25278
 Alpha  occ. eigenvalues --  -10.25199 -10.25018 -10.25005 -10.24645 -10.24509
 Alpha  occ. eigenvalues --  -10.24356 -10.24253 -10.24223 -10.24156 -10.23663
 Alpha  occ. eigenvalues --  -10.23114 -10.22395  -1.12038  -1.11171  -0.94335
 Alpha  occ. eigenvalues --   -0.93452  -0.92264  -0.91865  -0.90598  -0.90089
 Alpha  occ. eigenvalues --   -0.88072  -0.87241  -0.86711  -0.85401  -0.83814
 Alpha  occ. eigenvalues --   -0.82789  -0.82035  -0.79919  -0.79630  -0.78435
 Alpha  occ. eigenvalues --   -0.77671  -0.77105  -0.76447  -0.75842  -0.75499
 Alpha  occ. eigenvalues --   -0.75374  -0.74857  -0.74584  -0.72910  -0.70356
 Alpha  occ. eigenvalues --   -0.69158  -0.68119  -0.66824  -0.65625  -0.64928
 Alpha  occ. eigenvalues --   -0.64113  -0.63635  -0.61706  -0.60528  -0.59868
 Alpha  occ. eigenvalues --   -0.59083  -0.58482  -0.58329  -0.57306  -0.56906
 Alpha  occ. eigenvalues --   -0.55994  -0.55565  -0.54898  -0.54372  -0.53961
 Alpha  occ. eigenvalues --   -0.53719  -0.52391  -0.52134  -0.51947  -0.51400
 Alpha  occ. eigenvalues --   -0.50544  -0.50160  -0.49803  -0.49465  -0.49292
 Alpha  occ. eigenvalues --   -0.48996  -0.48609  -0.48198  -0.47988  -0.47649
 Alpha  occ. eigenvalues --   -0.47446  -0.47207  -0.46973  -0.46880  -0.46688
 Alpha  occ. eigenvalues --   -0.46138  -0.45932  -0.45597  -0.45314  -0.44995
 Alpha  occ. eigenvalues --   -0.44579  -0.44426  -0.44345  -0.43971  -0.43685
 Alpha  occ. eigenvalues --   -0.43342  -0.43227  -0.42628  -0.42450  -0.42231
 Alpha  occ. eigenvalues --   -0.42134  -0.41668  -0.41453  -0.40870  -0.40645
 Alpha  occ. eigenvalues --   -0.40344  -0.40130  -0.39856  -0.39192  -0.38978
 Alpha  occ. eigenvalues --   -0.38950  -0.38268  -0.38117  -0.38059  -0.37728
 Alpha  occ. eigenvalues --   -0.37202  -0.36922  -0.36642  -0.36364  -0.35453
 Alpha  occ. eigenvalues --   -0.35230  -0.34455  -0.33442  -0.31907  -0.31799
 Alpha  occ. eigenvalues --   -0.31398  -0.30118  -0.29067  -0.26819  -0.23095
 Alpha  occ. eigenvalues --   -0.19023
 Alpha virt. eigenvalues --   -0.05867  -0.01246   0.02558   0.05582   0.06897
 Alpha virt. eigenvalues --    0.08606   0.10369   0.11124   0.11204   0.12239
 Alpha virt. eigenvalues --    0.12548   0.12645   0.13239   0.13454   0.13766

 Mulliken charges:
               1
     1  O   -0.512451
     2  O   -0.562312
     3  C    0.030996
     4  C   -0.110423
     5  C   -0.164772
     6  C    0.105866
     7  C    0.135508
     8  C   -0.013353
     9  C   -0.308078
    10  C   -0.294417
    11  C   -0.208088
    12  C   -0.130887
    13  C    0.208462
    14  C    0.047831
    15  C   -0.088909
    16  C   -0.213140
    17  C    0.056062
    18  C   -0.277016
    19  C   -0.304333
    20  C   -0.368337
    21  C   -0.074582
    22  C   -0.136948
    23  C   -0.343724
    24  C    0.073611
    25  C   -0.085721
    26  C   -0.351985
    27  C    0.037846
    28  C   -0.013293
    29  C   -0.352481
    30  C   -0.116579
    31  C   -0.088690
    32  C   -0.086079
    33  C   -0.129213
    34  C    0.087980
    35  C   -0.116656
    36  C    0.110693
    37  C   -0.378247
    38  C   -0.105848
    39  C   -0.127299
    40  C   -0.365185
    41  C   -0.097520
    42  C   -0.091977
    43  H    0.089652
    44  H    0.112836
    45  H    0.079748
    46  H    0.072026
    47  H    0.101046
    48  H    0.105770
    49  H    0.078089
    50  H    0.094710
    51  H    0.106214
    52  H    0.064018
    53  H    0.094369
    54  H    0.067900
    55  H    0.081879
    56  H    0.074443
    57  H    0.083050
    58  H    0.108227
    59  H    0.069216
    60  H    0.101377
    61  H    0.099411
    62  H    0.085774
    63  H    0.111891
    64  H    0.116982
    65  H    0.087056
    66  H    0.096820
    67  H    0.095150
    68  H    0.094615
    69  H    0.303649
    70  H    0.086997
    71  H    0.077572
    72  H    0.110349
    73  H    0.115551
    74  H    0.122949
    75  H    0.302727
    76  H    0.083603
    77  H    0.080610
    78  H    0.088027
    79  H    0.143052
    80  H    0.033891
    81  H    0.138855
    82  H    0.109350
    83  H    0.113787
    84  H    0.079593
    85  H    0.102241
    86  H    0.081215
    87  H    0.084992
    88  H    0.079285
    89  H    0.114891
    90  H    0.135533
    91  H    0.110468
    92  H    0.062486
    93  H    0.090267
    94  H    0.125574
    95  H    0.098046
    96  H    0.133023
    97  H    0.070555
    98  H    0.072278
 Sum of Mulliken charges =  -0.00000

 Dipole moment (field-independent basis, Debye):
    X=              1.1675    Y=              0.1053    Z=             -0.6413  Tot=              1.3362
 Quadrupole moment (field-independent basis, Debye-Ang):
   XX=           -272.9125   YY=           -244.5521   ZZ=           -263.1952
   XY=              8.1958   XZ=             34.4813   YZ=              4.5605

 Normal termination of Gaussian 16 at Sun Jul 14 16:05:17 2019.
