 Gaussian 16, Revision A.03,
 Gaussian 16:  ES64L-G16RevA.03 25-Dec-2016

 -------------------------------------
 # td=(NStates=1) CAM-B3LYP/6-31G(d,p)
 -------------------------------------

 --
 TD
 --
 Symbolic Z-matrix:
 Charge =  0 Multiplicity = 1

                         Standard orientation:
 ---------------------------------------------------------------------
 Center     Atomic      Atomic             Coordinates (Angstroms)
 Number     Number       Type             X           Y           Z
 ---------------------------------------------------------------------
      1          8           0      -14.177079   -1.997051    0.204435
      2          8           0       14.814409    0.930042    0.213480
      3          6           0      -11.831835    0.079061    1.216806
      4          6           0      -10.994144    0.379791   -0.010209
      5          6           0      -12.188127   -1.399222    1.432544
      6          6           0      -12.717500   -2.066997    0.211457
      7          6           0      -11.506129   -0.358643   -1.259568
      8          6           0       11.126314    1.136422    0.912134
      9          6           0      -11.142584    0.554609    2.512937
     10          6           0      -13.157396    0.851764    1.053476
     11          6           0       12.586378    1.587513    0.781844
     12          6           0      -12.150797   -1.540632   -1.097155
     13          6           0       13.443265    0.464689    0.369450
     14          6           0       10.658034    0.032201   -0.064599
     15          6           0       -9.529850   -0.009100    0.101879
     16          6           0       13.105631   -0.174331   -0.909986
     17          6           0       11.608818   -0.499003   -0.943795
     18          6           0       10.173305    2.275564    0.831066
     19          6           0       10.997995    0.398828    2.349944
     20          6           0      -11.141620    0.226119   -2.505361
     21          6           0       -8.578785    0.913430   -0.103614
     22          6           0        9.332609   -0.421417    0.043318
     23          6           0       11.234324   -1.510568   -2.010152
     24          6           0       -7.180191    0.546395   -0.010134
     25          6           0        8.823546   -1.674408   -0.129499
     26          6           0       -6.827636   -0.938495    0.277952
     27          6           0        7.460861   -2.101699   -0.062931
     28          6           0       -6.198782    1.522790   -0.241884
     29          6           0        7.170619   -3.539543    0.137178
     30          6           0        6.308249   -1.295533    0.002652
     31          6           0       -4.785714    1.376464   -0.346190
     32          6           0        5.026612   -1.710464    0.033249
     33          6           0       -3.958378    2.490633   -0.640460
     34          6           0       -2.571697    2.487307   -0.751375
     35          6           0        4.024287   -0.759893   -0.213995
     36          6           0        2.545797   -0.945842   -0.119621
     37          6           0       -1.983071    3.922940   -0.930874
     38          6           0       -1.723562    1.444725   -0.558703
     39          6           0        1.799894    0.238820   -0.279233
     40          6           0        2.123451   -2.220530    0.260227
     41          6           0       -0.351491    1.430524   -0.501806
     42          6           0        0.472010    0.224553   -0.361954
     43          1           0      -11.086922    1.511461   -0.218866
     44          1           0      -12.967656   -1.564578    2.118367
     45          1           0      -11.495133   -2.070938    1.877991
     46          1           0      -12.598549   -3.111759    0.222723
     47          1           0      -10.342700   -0.029589    2.698890
     48          1           0      -10.748400    1.530663    2.388874
     49          1           0      -11.988536    0.699825    3.234236
     50          1           0      -13.717234    0.487057    0.131893
     51          1           0      -13.948025    0.616697    1.904140
     52          1           0      -12.931281    1.936485    1.113874
     53          1           0       12.716298    2.351503    0.100410
     54          1           0       12.878232    2.079323    1.758883
     55          1           0      -12.485299   -2.126448   -1.963919
     56          1           0       13.172010   -0.212290    1.259936
     57          1           0       -9.329475   -0.930321    0.527244
     58          1           0       13.490621   -0.970420   -1.067504
     59          1           0       13.309411    0.477274   -1.846812
     60          1           0        9.030165    2.203217    1.129286
     61          1           0       10.017946    2.510610   -0.341351
     62          1           0       10.495479    2.906325    1.587949
     63          1           0       11.820217   -0.390741    2.572934
     64          1           0       10.045952   -0.185012    2.448361
     65          1           0       11.159573    1.099057    3.139584
     66          1           0      -10.227919    0.264944   -2.540077
     67          1           0      -11.355705    1.347240   -2.621467
     68          1           0      -11.395008   -0.427634   -3.493759
     69          1           0      -14.697572   -2.562279   -0.410989
     70          1           0        8.607802    0.270308    0.302003
     71          1           0       -8.935329    1.966664   -0.405287
     72          1           0       11.660200   -2.586846   -1.695507
     73          1           0       10.257449   -1.645890   -2.164785
     74          1           0       11.741889   -1.228869   -2.999024
     75          1           0       15.024565    1.732865    0.992818
     76          1           0        9.552742   -2.537056   -0.265632
     77          1           0       -5.665215   -0.985437    0.285892
     78          1           0       -7.227976   -1.101012    1.456780
     79          1           0       -7.348587   -1.837930   -0.393405
     80          1           0       -6.504805    2.451140   -0.345916
     81          1           0        7.190891   -3.826150    1.142265
     82          1           0        6.402678   -4.169656   -0.309812
     83          1           0        8.069233   -4.050668   -0.379133
     84          1           0        6.499768   -0.266920   -0.216762
     85          1           0       -4.394179    0.349124   -0.023102
     86          1           0        4.771568   -2.754736    0.340731
     87          1           0       -4.300406    3.507065   -0.800462
     88          1           0        4.329044    0.339555   -0.595159
     89          1           0       -1.232414    3.892455   -1.881727
     90          1           0       -1.283868    4.265031   -0.305238
     91          1           0       -2.523284    4.903292   -1.109543
     92          1           0       -2.217907    0.332187   -0.423156
     93          1           0        2.619296    1.155107   -0.517318
     94          1           0        2.901360   -2.331405    1.139053
     95          1           0        1.065502   -2.239692    0.632654
     96          1           0        2.250170   -3.069277   -0.503368
     97          1           0        0.066194    2.459744   -0.675477
     98          1           0       -0.311773   -0.409528   -0.186622
 ---------------------------------------------------------------------

 SCF Done:  E(RCAM-B3LYP) =  -1706.88399731     A.U. after   16 cycles

 Excitation energies and oscillator strengths:

 Excited State   1:      Singlet-A      1.8380 eV  674.57 nm  f=3.1819  <S**2>=0.000
     155 ->158        -0.13744
     156 ->157         0.69932
     156 <-157        -0.11353
 This state for optimization and/or second-order correction.
 Total Energy, E(TD-HF/TD-DFT) =  -1706.81645314
 Copying the excited state density for this state as the 1-particle RhoCI density.

 The electronic state is 1-A.
 Alpha  occ. eigenvalues --  -19.22220 -19.19556 -10.30335 -10.29624 -10.29478
 Alpha  occ. eigenvalues --  -10.28086 -10.27914 -10.27666 -10.27630 -10.27573
 Alpha  occ. eigenvalues --  -10.27523 -10.27502 -10.27246 -10.27065 -10.26715
 Alpha  occ. eigenvalues --  -10.26677 -10.26611 -10.26599 -10.26543 -10.26484
 Alpha  occ. eigenvalues --  -10.26434 -10.26417 -10.26403 -10.26207 -10.26144
 Alpha  occ. eigenvalues --  -10.26075 -10.25972 -10.25932 -10.25432 -10.25360
 Alpha  occ. eigenvalues --  -10.25359 -10.25325 -10.25294 -10.25028 -10.24936
 Alpha  occ. eigenvalues --  -10.24816 -10.24362 -10.24276 -10.24228 -10.24189
 Alpha  occ. eigenvalues --  -10.23445 -10.22715  -1.06587  -1.06193  -0.94019
 Alpha  occ. eigenvalues --   -0.93771  -0.92675  -0.91732  -0.90880  -0.89974
 Alpha  occ. eigenvalues --   -0.87644  -0.87469  -0.87304  -0.86353  -0.85029
 Alpha  occ. eigenvalues --   -0.83588  -0.82751  -0.80641  -0.80346  -0.79028
 Alpha  occ. eigenvalues --   -0.77484  -0.77057  -0.76331  -0.75899  -0.75621
 Alpha  occ. eigenvalues --   -0.75394  -0.75160  -0.74093  -0.72710  -0.70446
 Alpha  occ. eigenvalues --   -0.69159  -0.67925  -0.66625  -0.65807  -0.63871
 Alpha  occ. eigenvalues --   -0.63527  -0.62799  -0.62547  -0.60200  -0.60100
 Alpha  occ. eigenvalues --   -0.59614  -0.58580  -0.58436  -0.57561  -0.56612
 Alpha  occ. eigenvalues --   -0.56237  -0.55473  -0.54809  -0.54318  -0.54076
 Alpha  occ. eigenvalues --   -0.53303  -0.52558  -0.52394  -0.51923  -0.51218
 Alpha  occ. eigenvalues --   -0.50796  -0.50650  -0.50189  -0.49623  -0.49426
 Alpha  occ. eigenvalues --   -0.49268  -0.49037  -0.48813  -0.47997  -0.47657
 Alpha  occ. eigenvalues --   -0.47119  -0.46821  -0.46313  -0.46164  -0.46094
 Alpha  occ. eigenvalues --   -0.46079  -0.45660  -0.45505  -0.45211  -0.44964
 Alpha  occ. eigenvalues --   -0.44407  -0.44153  -0.43892  -0.43543  -0.43484
 Alpha  occ. eigenvalues --   -0.43247  -0.42926  -0.42668  -0.42068  -0.41919
 Alpha  occ. eigenvalues --   -0.41666  -0.41381  -0.41088  -0.41019  -0.40326
 Alpha  occ. eigenvalues --   -0.39982  -0.39775  -0.39591  -0.39334  -0.38895
 Alpha  occ. eigenvalues --   -0.38775  -0.38662  -0.38345  -0.38164  -0.37929
 Alpha  occ. eigenvalues --   -0.37740  -0.37268  -0.36837  -0.36428  -0.35769
 Alpha  occ. eigenvalues --   -0.35525  -0.34946  -0.34178  -0.32102  -0.31643
 Alpha  occ. eigenvalues --   -0.31538  -0.28968  -0.28396  -0.26455  -0.23083
 Alpha  occ. eigenvalues --   -0.18429
 Alpha virt. eigenvalues --   -0.06952  -0.01578   0.02249   0.05811   0.07163
 Alpha virt. eigenvalues --    0.08870   0.09051   0.10632   0.11612   0.11675
 Alpha virt. eigenvalues --    0.12309   0.12857   0.13070   0.13420   0.13738

 Mulliken charges:
               1
     1  O   -0.585960
     2  O   -0.582463
     3  C    0.009873
     4  C   -0.144147
     5  C   -0.184933
     6  C    0.154834
     7  C    0.142484
     8  C   -0.019457
     9  C   -0.294439
    10  C   -0.304422
    11  C   -0.196588
    12  C   -0.141843
    13  C    0.194364
    14  C    0.081014
    15  C   -0.069843
    16  C   -0.144129
    17  C   -0.006125
    18  C   -0.299340
    19  C   -0.320665
    20  C   -0.351639
    21  C   -0.083588
    22  C   -0.104804
    23  C   -0.353355
    24  C    0.084799
    25  C   -0.109684
    26  C   -0.344654
    27  C    0.074686
    28  C   -0.087829
    29  C   -0.392496
    30  C   -0.105705
    31  C   -0.088968
    32  C   -0.077319
    33  C   -0.119949
    34  C    0.119540
    35  C   -0.140677
    36  C    0.147569
    37  C   -0.406057
    38  C   -0.119660
    39  C   -0.114209
    40  C   -0.382799
    41  C   -0.098487
    42  C   -0.071182
    43  H    0.078930
    44  H    0.124679
    45  H    0.092933
    46  H    0.076134
    47  H    0.103661
    48  H    0.095588
    49  H    0.099015
    50  H    0.127842
    51  H    0.084718
    52  H    0.087271
    53  H    0.105664
    54  H    0.080554
    55  H    0.061832
    56  H    0.069341
    57  H    0.093653
    58  H    0.114630
    59  H    0.108069
    60  H    0.091409
    61  H    0.100620
    62  H    0.105077
    63  H    0.095172
    64  H    0.115487
    65  H    0.097289
    66  H    0.139534
    67  H    0.100368
    68  H    0.087045
    69  H    0.303656
    70  H    0.081488
    71  H    0.084273
    72  H    0.090299
    73  H    0.131879
    74  H    0.096495
    75  H    0.296860
    76  H    0.082597
    77  H    0.098759
    78  H    0.095345
    79  H    0.112091
    80  H    0.068504
    81  H    0.136181
    82  H    0.120122
    83  H    0.086719
    84  H    0.071450
    85  H    0.086917
    86  H    0.098201
    87  H    0.090693
    88  H    0.072297
    89  H    0.090831
    90  H    0.141638
    91  H    0.111291
    92  H    0.059239
    93  H    0.084540
    94  H    0.118464
    95  H    0.110942
    96  H    0.124361
    97  H    0.071444
    98  H    0.084159
 Sum of Mulliken charges =  -0.00000

 Dipole moment (field-independent basis, Debye):
    X=              0.5884    Y=             -0.5093    Z=              0.4807  Tot=              0.9147
 Quadrupole moment (field-independent basis, Debye-Ang):
   XX=           -293.8672   YY=           -237.1712   ZZ=           -263.0254
   XY=             20.3260   XZ=             24.7383   YZ=              2.5916

 Normal termination of Gaussian 16 at Sun Jul 14 18:02:38 2019.
