 Gaussian 16, Revision A.03,
 Gaussian 16:  ES64L-G16RevA.03 25-Dec-2016

 -------------------------------------
 # td=(NStates=1) CAM-B3LYP/6-31G(d,p)
 -------------------------------------

 --
 TD
 --
 Symbolic Z-matrix:
 Charge =  0 Multiplicity = 1

                         Standard orientation:
 ---------------------------------------------------------------------
 Center     Atomic      Atomic             Coordinates (Angstroms)
 Number     Number       Type             X           Y           Z
 ---------------------------------------------------------------------
      1          8           0      -14.232948   -1.876174    0.499588
      2          8           0       14.805362    0.591764    0.335075
      3          6           0      -11.653522    0.004340    1.367259
      4          6           0      -10.961789    0.226559   -0.011990
      5          6           0      -11.993097   -1.473442    1.450394
      6          6           0      -12.827838   -2.174546    0.331179
      7          6           0      -11.599635   -0.479146   -1.208703
      8          6           0       11.135805    0.982753    1.027788
      9          6           0      -10.862921    0.408610    2.510824
     10          6           0      -13.002188    0.824290    1.334154
     11          6           0       12.518828    1.461739    0.738909
     12          6           0      -12.389949   -1.491128   -1.024500
     13          6           0       13.468055    0.362505    0.391616
     14          6           0       10.687989   -0.002055   -0.045244
     15          6           0       -9.495996   -0.131679   -0.016271
     16          6           0       12.938030   -0.247224   -0.835016
     17          6           0       11.539974   -0.548763   -0.876787
     18          6           0       10.233513    2.291172    1.096677
     19          6           0       11.129151    0.287025    2.455031
     20          6           0      -11.421817    0.104733   -2.486064
     21          6           0       -8.490189    0.802192   -0.133124
     22          6           0        9.217898   -0.360582    0.033596
     23          6           0       11.210075   -1.434388   -1.953449
     24          6           0       -7.060305    0.478729   -0.140799
     25          6           0        8.755382   -1.612153    0.043690
     26          6           0       -6.697711   -0.977973    0.034180
     27          6           0        7.429811   -2.084860   -0.044440
     28          6           0       -6.130413    1.545286   -0.257406
     29          6           0        7.143813   -3.561214    0.196887
     30          6           0        6.358451   -1.226535   -0.204408
     31          6           0       -4.755964    1.398377   -0.411601
     32          6           0        5.003404   -1.499942   -0.208886
     33          6           0       -4.036748    2.559839   -0.566006
     34          6           0       -2.662874    2.711353   -0.747563
     35          6           0        4.039510   -0.632382   -0.275590
     36          6           0        2.676957   -0.772561   -0.315144
     37          6           0       -1.984617    4.174482   -0.840191
     38          6           0       -1.790472    1.593435   -0.635487
     39          6           0        1.826266    0.296114   -0.494029
     40          6           0        2.050161   -2.155613   -0.103303
     41          6           0       -0.394542    1.618233   -0.593971
     42          6           0        0.391577    0.439303   -0.352868
     43          1           0      -11.085894    1.368951    0.004071
     44          1           0      -12.542262   -1.713347    2.484214
     45          1           0      -11.047522   -2.064314    1.465649
     46          1           0      -12.788345   -3.318684    0.342768
     47          1           0      -10.113805   -0.448850    2.717331
     48          1           0      -10.342621    1.575644    2.621620
     49          1           0      -11.646937    0.459915    3.313622
     50          1           0      -13.666123    0.635401    0.577381
     51          1           0      -13.523252    0.549793    2.291770
     52          1           0      -12.882160    1.827894    1.349122
     53          1           0       12.669928    2.220247   -0.292666
     54          1           0       12.866732    2.096048    1.415664
     55          1           0      -12.742764   -1.916508   -2.079662
     56          1           0       13.248225   -0.576781    1.169231
     57          1           0       -9.274155   -1.224017   -0.064928
     58          1           0       13.606751   -1.056993   -1.082347
     59          1           0       13.246370    0.385874   -1.802514
     60          1           0        9.257707    2.120325    1.197179
     61          1           0       10.190692    2.591194    0.142860
     62          1           0       10.718451    3.159559    1.623504
     63          1           0       11.684447   -0.604476    2.780392
     64          1           0       10.214875   -0.218641    2.620300
     65          1           0       11.197121    1.104683    3.270960
     66          1           0      -10.409184    0.416820   -2.943894
     67          1           0      -11.873267    1.047714   -2.560840
     68          1           0      -11.805545   -0.482955   -3.346516
     69          1           0      -14.718219   -2.270033   -0.280692
     70          1           0        8.460509    0.430386    0.136502
     71          1           0       -8.843455    1.768967   -0.259681
     72          1           0       11.355379   -2.641309   -1.981575
     73          1           0       10.174006   -1.343918   -2.571650
     74          1           0       11.625209   -1.177590   -2.945292
     75          1           0       14.913069    1.280938    1.144772
     76          1           0        9.649891   -2.421355   -0.023248
     77          1           0       -5.601999   -0.825646    0.105730
     78          1           0       -7.129265   -1.330078    0.889310
     79          1           0       -6.976974   -1.751543   -0.791487
     80          1           0       -6.400681    2.590302   -0.389956
     81          1           0        6.271586   -3.631969    1.074039
     82          1           0        6.592160   -3.761436   -0.677792
     83          1           0        7.969942   -4.167574    0.420659
     84          1           0        6.599174   -0.168672   -0.416099
     85          1           0       -4.312558    0.485496   -0.326501
     86          1           0        4.805413   -2.543020    0.203487
     87          1           0       -4.665433    3.452096   -0.854690
     88          1           0        4.355810    0.352851   -0.685358
     89          1           0       -1.303817    4.113425   -1.801457
     90          1           0       -1.355747    4.644294    0.099304
     91          1           0       -2.802230    4.956378   -0.950337
     92          1           0       -2.119809    0.554213   -0.738725
     93          1           0        2.369597    1.191125   -0.846949
     94          1           0        2.237814   -2.502807    0.825639
     95          1           0        1.058712   -2.274726   -0.229526
     96          1           0        2.712118   -2.937104   -0.540165
     97          1           0        0.269159    2.531444   -0.585734
     98          1           0       -0.178519   -0.491630   -0.270178
 ---------------------------------------------------------------------

 SCF Done:  E(RCAM-B3LYP) =  -1706.94778559     A.U. after   15 cycles

 Excitation energies and oscillator strengths:

 Excited State   1:      Singlet-A      2.0039 eV  618.72 nm  f=2.9981  <S**2>=0.000
     155 ->158        -0.14061
     156 ->157         0.69670
     156 <-157        -0.10063
 This state for optimization and/or second-order correction.
 Total Energy, E(TD-HF/TD-DFT) =  -1706.87414445
 Copying the excited state density for this state as the 1-particle RhoCI density.

 The electronic state is 1-A.
 Alpha  occ. eigenvalues --  -19.22980 -19.21091 -10.32642 -10.30105 -10.28651
 Alpha  occ. eigenvalues --  -10.28427 -10.28304 -10.28027 -10.27355 -10.27285
 Alpha  occ. eigenvalues --  -10.27119 -10.27094 -10.26703 -10.26582 -10.26521
 Alpha  occ. eigenvalues --  -10.26510 -10.26497 -10.26416 -10.26323 -10.26313
 Alpha  occ. eigenvalues --  -10.26299 -10.26285 -10.26173 -10.26058 -10.26032
 Alpha  occ. eigenvalues --  -10.25980 -10.25959 -10.25856 -10.25805 -10.25769
 Alpha  occ. eigenvalues --  -10.25719 -10.25595 -10.25317 -10.25297 -10.25277
 Alpha  occ. eigenvalues --  -10.25272 -10.24806 -10.24618 -10.24384 -10.23622
 Alpha  occ. eigenvalues --  -10.23480 -10.22038  -1.10996  -1.08050  -0.94860
 Alpha  occ. eigenvalues --   -0.93981  -0.92816  -0.91968  -0.90618  -0.89530
 Alpha  occ. eigenvalues --   -0.88437  -0.87895  -0.87203  -0.85819  -0.84276
 Alpha  occ. eigenvalues --   -0.83185  -0.81844  -0.80647  -0.80487  -0.78526
 Alpha  occ. eigenvalues --   -0.77572  -0.76788  -0.76492  -0.76128  -0.76064
 Alpha  occ. eigenvalues --   -0.75966  -0.75141  -0.74416  -0.72977  -0.70365
 Alpha  occ. eigenvalues --   -0.69095  -0.67533  -0.66281  -0.65372  -0.64896
 Alpha  occ. eigenvalues --   -0.63846  -0.62467  -0.61883  -0.61045  -0.60503
 Alpha  occ. eigenvalues --   -0.59597  -0.58283  -0.58070  -0.57612  -0.56929
 Alpha  occ. eigenvalues --   -0.56115  -0.55354  -0.55000  -0.54768  -0.54086
 Alpha  occ. eigenvalues --   -0.53467  -0.52780  -0.52479  -0.52005  -0.51060
 Alpha  occ. eigenvalues --   -0.50827  -0.50484  -0.50309  -0.49440  -0.49156
 Alpha  occ. eigenvalues --   -0.48645  -0.48452  -0.48229  -0.47772  -0.47690
 Alpha  occ. eigenvalues --   -0.47447  -0.47252  -0.47155  -0.47031  -0.46561
 Alpha  occ. eigenvalues --   -0.46223  -0.45844  -0.45470  -0.45200  -0.44862
 Alpha  occ. eigenvalues --   -0.44805  -0.44493  -0.44381  -0.43777  -0.43719
 Alpha  occ. eigenvalues --   -0.43123  -0.42558  -0.42246  -0.41992  -0.41692
 Alpha  occ. eigenvalues --   -0.41581  -0.41411  -0.41268  -0.41183  -0.40441
 Alpha  occ. eigenvalues --   -0.40098  -0.39993  -0.39733  -0.39650  -0.39093
 Alpha  occ. eigenvalues --   -0.38717  -0.38639  -0.38415  -0.37989  -0.37682
 Alpha  occ. eigenvalues --   -0.37335  -0.36845  -0.36542  -0.36221  -0.35926
 Alpha  occ. eigenvalues --   -0.35647  -0.35050  -0.33863  -0.32591  -0.31609
 Alpha  occ. eigenvalues --   -0.30689  -0.30094  -0.29288  -0.27175  -0.23639
 Alpha  occ. eigenvalues --   -0.19176
 Alpha virt. eigenvalues --   -0.06542  -0.01389   0.02854   0.05903   0.07158
 Alpha virt. eigenvalues --    0.08561   0.10199   0.10943   0.12003   0.12614
 Alpha virt. eigenvalues --    0.13007   0.13262   0.13469   0.13753   0.13981

 Mulliken charges:
               1
     1  O   -0.546876
     2  O   -0.549728
     3  C    0.029208
     4  C   -0.155250
     5  C   -0.183354
     6  C    0.142613
     7  C    0.182592
     8  C   -0.009199
     9  C   -0.276791
    10  C   -0.303738
    11  C   -0.164493
    12  C   -0.156581
    13  C    0.200347
    14  C    0.028929
    15  C   -0.081014
    16  C   -0.232704
    17  C    0.147829
    18  C   -0.315404
    19  C   -0.312630
    20  C   -0.384644
    21  C   -0.075519
    22  C   -0.113193
    23  C   -0.394979
    24  C    0.059661
    25  C   -0.096344
    26  C   -0.356306
    27  C    0.085460
    28  C   -0.114303
    29  C   -0.360679
    30  C   -0.116321
    31  C   -0.024670
    32  C   -0.064383
    33  C   -0.142716
    34  C    0.068861
    35  C   -0.124647
    36  C    0.145362
    37  C   -0.349548
    38  C   -0.115296
    39  C   -0.149029
    40  C   -0.379968
    41  C   -0.072820
    42  C   -0.104067
    43  H    0.080223
    44  H    0.087416
    45  H    0.091620
    46  H    0.086936
    47  H    0.095258
    48  H    0.076491
    49  H    0.100321
    50  H    0.127566
    51  H    0.090409
    52  H    0.097121
    53  H    0.049359
    54  H    0.075671
    55  H    0.052249
    56  H    0.032128
    57  H    0.083254
    58  H    0.117972
    59  H    0.084145
    60  H    0.108930
    61  H    0.119353
    62  H    0.101705
    63  H    0.108605
    64  H    0.114050
    65  H    0.086352
    66  H    0.108324
    67  H    0.128970
    68  H    0.103618
    69  H    0.306951
    70  H    0.083676
    71  H    0.073636
    72  H    0.102524
    73  H    0.093839
    74  H    0.111561
    75  H    0.313753
    76  H    0.073617
    77  H    0.097947
    78  H    0.136833
    79  H    0.113427
    80  H    0.083642
    81  H    0.097533
    82  H    0.141619
    83  H    0.117070
    84  H    0.069994
    85  H    0.090042
    86  H    0.062623
    87  H    0.078108
    88  H    0.073441
    89  H    0.117089
    90  H    0.108511
    91  H    0.105209
    92  H    0.087887
    93  H    0.071273
    94  H    0.130801
    95  H    0.115399
    96  H    0.107417
    97  H    0.089509
    98  H    0.073354
 Sum of Mulliken charges =  -0.00000

 Dipole moment (field-independent basis, Debye):
    X=             -1.3261    Y=             -0.1493    Z=             -0.6898  Tot=              1.5023
 Quadrupole moment (field-independent basis, Debye-Ang):
   XX=           -282.4960   YY=           -239.5831   ZZ=           -262.1318
   XY=             17.0785   XZ=             31.0891   YZ=              2.2689

 Normal termination of Gaussian 16 at Sun Jul 14 19:20:33 2019.
