 Gaussian 16, Revision A.03,
 Gaussian 16:  ES64L-G16RevA.03 25-Dec-2016

 -------------------------------------
 # td=(NStates=1) CAM-B3LYP/6-31G(d,p)
 -------------------------------------

 --
 TD
 --
 Symbolic Z-matrix:
 Charge =  0 Multiplicity = 1

                         Standard orientation:
 ---------------------------------------------------------------------
 Center     Atomic      Atomic             Coordinates (Angstroms)
 Number     Number       Type             X           Y           Z
 ---------------------------------------------------------------------
      1          8           0      -14.217404   -1.847831    0.852787
      2          8           0       14.770318    0.973411    0.521591
      3          6           0      -11.788821    0.198445    1.453752
      4          6           0      -10.995965    0.298453    0.049767
      5          6           0      -11.980723   -1.347280    1.673223
      6          6           0      -12.781634   -2.030366    0.538561
      7          6           0      -11.577554   -0.481699   -1.064012
      8          6           0       11.070875    1.123936    1.149850
      9          6           0      -10.915089    0.765590    2.506876
     10          6           0      -13.003097    1.035390    1.245636
     11          6           0       12.489693    1.671250    0.777929
     12          6           0      -12.338712   -1.576538   -0.882289
     13          6           0       13.482066    0.428043    0.581642
     14          6           0       10.686655    0.057566    0.126398
     15          6           0       -9.405613    0.007834    0.185719
     16          6           0       13.131685   -0.266824   -0.674781
     17          6           0       11.633491   -0.527886   -0.706958
     18          6           0       10.143929    2.273417    1.118323
     19          6           0       11.107696    0.466101    2.571404
     20          6           0      -11.297626   -0.142427   -2.471141
     21          6           0       -8.418246    0.826076   -0.163058
     22          6           0        9.277387   -0.376243    0.036676
     23          6           0       11.194905   -1.583330   -1.623420
     24          6           0       -7.094544    0.520212   -0.133215
     25          6           0        8.772987   -1.636785    0.038466
     26          6           0       -6.671678   -0.913909    0.324556
     27          6           0        7.376787   -2.043074   -0.091048
     28          6           0       -6.222135    1.462459   -0.391426
     29          6           0        7.157186   -3.419324    0.317677
     30          6           0        6.306592   -1.274488   -0.481469
     31          6           0       -4.702318    1.442775   -0.473498
     32          6           0        4.970841   -1.684794   -0.514607
     33          6           0       -3.968929    2.519073   -0.770251
     34          6           0       -2.552472    2.495027   -0.937354
     35          6           0        3.985201   -0.789155   -0.637241
     36          6           0        2.592575   -0.913670   -0.580861
     37          6           0       -1.982839    3.927314   -1.135348
     38          6           0       -1.757622    1.421787   -0.926732
     39          6           0        1.739750    0.121963   -0.845937
     40          6           0        2.026707   -2.248714   -0.209155
     41          6           0       -0.393583    1.303458   -1.015337
     42          6           0        0.265315    0.189406   -0.887271
     43          1           0      -11.056639    1.434555   -0.143200
     44          1           0      -12.657547   -1.321464    2.541573
     45          1           0      -11.073796   -1.823333    1.802306
     46          1           0      -12.731469   -3.222046    0.617000
     47          1           0       -9.996324    0.255795    2.737107
     48          1           0      -10.692512    1.733943    2.324617
     49          1           0      -11.510151    0.870590    3.345003
     50          1           0      -13.762145    0.739950    0.576678
     51          1           0      -13.661415    1.044834    2.172429
     52          1           0      -12.460103    2.018362    0.866251
     53          1           0       12.345774    2.245480   -0.106408
     54          1           0       12.792600    2.395053    1.626927
     55          1           0      -12.868508   -2.205317   -1.474312
     56          1           0       13.392647   -0.293192    1.396552
     57          1           0       -8.968048   -0.983069    0.559785
     58          1           0       13.746379   -1.226390   -0.907551
     59          1           0       13.503275    0.351598   -1.538257
     60          1           0        8.940969    1.868909    1.038100
     61          1           0       10.269790    2.942340    0.222266
     62          1           0       10.337535    3.015578    2.023487
     63          1           0       11.610647   -0.339764    2.611979
     64          1           0       10.017703    0.178664    2.612882
     65          1           0       11.424223    1.134344    3.392836
     66          1           0      -10.349298   -0.300422   -2.849223
     67          1           0      -11.634123    0.904483   -2.760924
     68          1           0      -11.640868   -0.983491   -3.198071
     69          1           0      -14.784890   -2.280512    0.215256
     70          1           0        8.593065    0.622153    0.053822
     71          1           0       -8.743292    1.885191   -0.503470
     72          1           0       11.267757   -2.610395   -1.255821
     73          1           0       10.018084   -1.415918   -1.763692
     74          1           0       12.016948   -1.643882   -2.549333
     75          1           0       15.017623    1.332109    1.478343
     76          1           0        9.389182   -2.471027    0.154591
     77          1           0       -5.661483   -1.208448    0.274603
     78          1           0       -6.905686   -1.148498    1.411433
     79          1           0       -6.942994   -1.839209   -0.288411
     80          1           0       -6.672658    2.306383   -0.761647
     81          1           0        6.167860   -3.392835    1.186764
     82          1           0        6.660705   -4.101604   -0.598524
     83          1           0        8.083967   -4.171532    0.928215
     84          1           0        6.546196   -0.117303   -0.743652
     85          1           0       -4.278555    0.437986   -0.362635
     86          1           0        4.774092   -2.685546    0.068725
     87          1           0       -4.418376    3.248056   -1.025035
     88          1           0        4.532610    0.113879   -1.054052
     89          1           0       -1.656587    4.188990   -2.194069
     90          1           0       -1.143298    4.065001   -0.465596
     91          1           0       -2.704097    4.836829   -0.897596
     92          1           0       -2.283458    0.411991   -1.045319
     93          1           0        2.243243    0.927515   -1.139114
     94          1           0        2.175291   -2.474467    0.821641
     95          1           0        0.935038   -2.253507   -0.747262
     96          1           0        2.748388   -3.234224   -0.585875
     97          1           0        0.149111    2.247509   -0.981074
     98          1           0       -0.244426   -0.809723   -0.596348
 ---------------------------------------------------------------------

 SCF Done:  E(RCAM-B3LYP) =  -1706.88415396     A.U. after   14 cycles

 Excitation energies and oscillator strengths:

 Excited State   1:      Singlet-A      2.6153 eV  474.07 nm  f=2.9904  <S**2>=0.000
     155 ->158         0.18206
     156 ->157         0.67778
 This state for optimization and/or second-order correction.
 Total Energy, E(TD-HF/TD-DFT) =  -1706.78804286
 Copying the excited state density for this state as the 1-particle RhoCI density.

 The electronic state is 1-A.
 Alpha  occ. eigenvalues --  -19.21270 -19.20328 -10.31312 -10.30347 -10.30281
 Alpha  occ. eigenvalues --  -10.27720 -10.27577 -10.27505 -10.27312 -10.27272
 Alpha  occ. eigenvalues --  -10.27204 -10.27186 -10.27108 -10.26974 -10.26959
 Alpha  occ. eigenvalues --  -10.26852 -10.26816 -10.26758 -10.26734 -10.26686
 Alpha  occ. eigenvalues --  -10.26545 -10.26452 -10.26382 -10.26362 -10.26309
 Alpha  occ. eigenvalues --  -10.26257 -10.26154 -10.25988 -10.25916 -10.25795
 Alpha  occ. eigenvalues --  -10.25711 -10.25680 -10.25499 -10.25441 -10.25236
 Alpha  occ. eigenvalues --  -10.24998 -10.24820 -10.24279 -10.24216 -10.24119
 Alpha  occ. eigenvalues --  -10.23320 -10.21916  -1.08447  -1.07153  -0.93513
 Alpha  occ. eigenvalues --   -0.93468  -0.93055  -0.92465  -0.91850  -0.90580
 Alpha  occ. eigenvalues --   -0.88554  -0.87743  -0.87083  -0.85802  -0.84242
 Alpha  occ. eigenvalues --   -0.83142  -0.82068  -0.80647  -0.79258  -0.78050
 Alpha  occ. eigenvalues --   -0.77573  -0.77010  -0.76802  -0.75711  -0.75294
 Alpha  occ. eigenvalues --   -0.75212  -0.74532  -0.74237  -0.73584  -0.70395
 Alpha  occ. eigenvalues --   -0.68423  -0.67308  -0.66893  -0.64802  -0.63624
 Alpha  occ. eigenvalues --   -0.63346  -0.63053  -0.62585  -0.61270  -0.60032
 Alpha  occ. eigenvalues --   -0.59203  -0.58574  -0.58310  -0.57663  -0.56647
 Alpha  occ. eigenvalues --   -0.55944  -0.55130  -0.54439  -0.54083  -0.53929
 Alpha  occ. eigenvalues --   -0.53542  -0.53498  -0.52518  -0.51853  -0.51400
 Alpha  occ. eigenvalues --   -0.50816  -0.50682  -0.50084  -0.49651  -0.49356
 Alpha  occ. eigenvalues --   -0.48631  -0.48423  -0.48173  -0.47964  -0.47740
 Alpha  occ. eigenvalues --   -0.47581  -0.46971  -0.46523  -0.46350  -0.46178
 Alpha  occ. eigenvalues --   -0.46029  -0.45649  -0.45434  -0.45117  -0.44594
 Alpha  occ. eigenvalues --   -0.43988  -0.43835  -0.43259  -0.42928  -0.42840
 Alpha  occ. eigenvalues --   -0.42690  -0.42631  -0.42419  -0.41946  -0.41607
 Alpha  occ. eigenvalues --   -0.41508  -0.41317  -0.40965  -0.40912  -0.40765
 Alpha  occ. eigenvalues --   -0.40545  -0.40490  -0.39633  -0.39334  -0.39108
 Alpha  occ. eigenvalues --   -0.38860  -0.38700  -0.38463  -0.37872  -0.37730
 Alpha  occ. eigenvalues --   -0.37543  -0.37452  -0.36774  -0.36343  -0.35900
 Alpha  occ. eigenvalues --   -0.35449  -0.34141  -0.33638  -0.31966  -0.31270
 Alpha  occ. eigenvalues --   -0.30527  -0.29459  -0.28782  -0.27208  -0.24452
 Alpha  occ. eigenvalues --   -0.21230
 Alpha virt. eigenvalues --   -0.05025  -0.01100   0.02729   0.05001   0.06387
 Alpha virt. eigenvalues --    0.08614   0.10090   0.10914   0.11335   0.11712
 Alpha virt. eigenvalues --    0.11976   0.12433   0.12981   0.13096   0.13441

 Mulliken charges:
               1
     1  O   -0.566650
     2  O   -0.572288
     3  C    0.007342
     4  C   -0.155979
     5  C   -0.172224
     6  C    0.121140
     7  C    0.156470
     8  C   -0.015918
     9  C   -0.287084
    10  C   -0.282660
    11  C   -0.185895
    12  C   -0.102496
    13  C    0.187390
    14  C    0.051131
    15  C   -0.120017
    16  C   -0.230821
    17  C    0.098804
    18  C   -0.292467
    19  C   -0.279572
    20  C   -0.364777
    21  C   -0.086659
    22  C   -0.142024
    23  C   -0.380176
    24  C    0.181749
    25  C   -0.096134
    26  C   -0.401015
    27  C    0.127479
    28  C   -0.163048
    29  C   -0.361647
    30  C   -0.115063
    31  C   -0.068287
    32  C   -0.079420
    33  C   -0.035835
    34  C    0.085700
    35  C   -0.107440
    36  C    0.121884
    37  C   -0.387394
    38  C   -0.126823
    39  C   -0.108473
    40  C   -0.365753
    41  C   -0.047051
    42  C   -0.096011
    43  H    0.075606
    44  H    0.109357
    45  H    0.103204
    46  H    0.055226
    47  H    0.105977
    48  H    0.100832
    49  H    0.099999
    50  H    0.130532
    51  H    0.092322
    52  H    0.072925
    53  H    0.105186
    54  H    0.065410
    55  H    0.076615
    56  H    0.083051
    57  H    0.083015
    58  H    0.102067
    59  H    0.123126
    60  H    0.064896
    61  H    0.103908
    62  H    0.087432
    63  H    0.109487
    64  H    0.099202
    65  H    0.091858
    66  H    0.131491
    67  H    0.107599
    68  H    0.092315
    69  H    0.299033
    70  H    0.079573
    71  H    0.073428
    72  H    0.118309
    73  H    0.125532
    74  H    0.069117
    75  H    0.308123
    76  H    0.095593
    77  H    0.112828
    78  H    0.119715
    79  H    0.112887
    80  H    0.072724
    81  H    0.080365
    82  H    0.107567
    83  H    0.081960
    84  H    0.075456
    85  H    0.083756
    86  H    0.069202
    87  H    0.044899
    88  H    0.076806
    89  H    0.121033
    90  H    0.125887
    91  H    0.097537
    92  H    0.073895
    93  H    0.070601
    94  H    0.138860
    95  H    0.102572
    96  H    0.077711
    97  H    0.087560
    98  H    0.082845
 Sum of Mulliken charges =  -0.00000

 Dipole moment (field-independent basis, Debye):
    X=             -1.0033    Y=             -0.4801    Z=              0.2081  Tot=              1.1315
 Quadrupole moment (field-independent basis, Debye-Ang):
   XX=           -281.6664   YY=           -244.4961   ZZ=           -263.3391
   XY=              6.1244   XZ=             41.8360   YZ=             -0.1174

 Normal termination of Gaussian 16 at Sun Jul 14 19:49:51 2019.
