 Gaussian 16, Revision A.03,
 Gaussian 16:  ES64L-G16RevA.03 25-Dec-2016

 -------------------------------------
 # td=(NStates=1) CAM-B3LYP/6-31G(d,p)
 -------------------------------------

 --
 TD
 --
 Symbolic Z-matrix:
 Charge =  0 Multiplicity = 1

                         Standard orientation:
 ---------------------------------------------------------------------
 Center     Atomic      Atomic             Coordinates (Angstroms)
 Number     Number       Type             X           Y           Z
 ---------------------------------------------------------------------
      1          8           0      -13.950437   -2.083210    0.412462
      2          8           0       14.824507    0.936226   -0.085861
      3          6           0      -11.781240    0.048327    1.247915
      4          6           0      -11.027894    0.358224   -0.003135
      5          6           0      -11.934458   -1.548669    1.448061
      6          6           0      -12.509869   -2.222892    0.124289
      7          6           0      -11.561901   -0.407603   -1.262983
      8          6           0       11.183069    0.866677    1.038692
      9          6           0      -11.032892    0.609289    2.409416
     10          6           0      -13.093931    0.741638    1.239609
     11          6           0       12.573296    1.525478    0.753268
     12          6           0      -12.214982   -1.584176   -1.128266
     13          6           0       13.572436    0.399423    0.255929
     14          6           0       10.626459   -0.006029   -0.013569
     15          6           0       -9.521524   -0.042428    0.054913
     16          6           0       12.955075   -0.243829   -0.961105
     17          6           0       11.464215   -0.521621   -0.981108
     18          6           0       10.172608    2.057289    1.442475
     19          6           0       11.211978   -0.013275    2.365733
     20          6           0      -11.317669    0.209090   -2.618010
     21          6           0       -8.501726    0.872411   -0.068491
     22          6           0        9.212634   -0.410777    0.058329
     23          6           0       10.981237   -1.219193   -2.183183
     24          6           0       -7.105563    0.558317   -0.120634
     25          6           0        8.762628   -1.666407   -0.157530
     26          6           0       -6.654492   -0.856479   -0.022777
     27          6           0        7.452310   -2.079230   -0.129911
     28          6           0       -6.160887    1.698027   -0.320864
     29          6           0        7.063906   -3.553109    0.059491
     30          6           0        6.362790   -1.213341   -0.212678
     31          6           0       -4.800462    1.475026   -0.400439
     32          6           0        4.908159   -1.512754   -0.100795
     33          6           0       -4.022998    2.575450   -0.492512
     34          6           0       -2.554558    2.607654   -0.623836
     35          6           0        3.983457   -0.560981   -0.222811
     36          6           0        2.607191   -0.736403    0.030084
     37          6           0       -1.972209    3.880923   -1.189492
     38          6           0       -1.810357    1.514766   -0.335508
     39          6           0        1.756689    0.351452   -0.195069
     40          6           0        2.059389   -2.183160    0.234820
     41          6           0       -0.411822    1.533299   -0.346131
     42          6           0        0.357841    0.379267   -0.093539
     43          1           0      -11.179708    1.394179   -0.340230
     44          1           0      -12.606534   -1.722944    2.383191
     45          1           0      -11.017027   -2.056898    1.920273
     46          1           0      -12.377986   -3.312595    0.238694
     47          1           0       -9.982381    0.107501    2.497737
     48          1           0      -11.047485    1.748688    2.248161
     49          1           0      -11.605705    0.423039    3.470592
     50          1           0      -13.618853    0.372666    0.363185
     51          1           0      -13.776051    0.613408    2.141625
     52          1           0      -13.035180    1.819868    1.021654
     53          1           0       12.356935    2.194655   -0.143078
     54          1           0       13.002866    1.943297    1.636161
     55          1           0      -12.511844   -2.142595   -2.158839
     56          1           0       13.706189   -0.336369    1.238274
     57          1           0       -9.310177   -1.005111    0.284697
     58          1           0       13.407269   -1.229145   -0.988798
     59          1           0       13.169835    0.211081   -1.926137
     60          1           0        9.489754    1.721139    2.274142
     61          1           0        9.619501    2.541711    0.532410
     62          1           0       10.754605    2.869231    1.914822
     63          1           0       11.705700   -1.084868    2.213939
     64          1           0       10.203768   -0.156550    2.693909
     65          1           0       11.804625    0.577811    3.259747
     66          1           0      -10.145668    0.623259   -2.570702
     67          1           0      -12.271879    0.965471   -2.671385
     68          1           0      -11.354481   -0.665076   -3.437317
     69          1           0      -14.375736   -2.674964   -0.242111
     70          1           0        8.630187    0.343420    0.580329
     71          1           0       -8.742736    1.920993   -0.286523
     72          1           0       11.208326   -2.242778   -2.095855
     73          1           0        9.944627   -0.909371   -2.176026
     74          1           0       11.543612   -0.869800   -3.133645
     75          1           0       15.160114    1.893752    0.541938
     76          1           0        9.378925   -2.539501   -0.483658
     77          1           0       -5.613815   -1.113385    0.063754
     78          1           0       -7.162337   -1.202108    1.130903
     79          1           0       -7.097635   -1.582360   -0.661195
     80          1           0       -6.639404    2.653841   -0.320467
     81          1           0        6.525698   -3.610644    0.917855
     82          1           0        6.520285   -4.152614   -0.742184
     83          1           0        8.134853   -4.066344    0.120797
     84          1           0        6.617344   -0.010249   -0.357728
     85          1           0       -4.425379    0.521267   -0.333096
     86          1           0        4.616506   -2.466373   -0.132688
     87          1           0       -4.482195    3.581313   -0.620992
     88          1           0        4.223159    0.500153   -0.425314
     89          1           0       -1.201980    3.782381   -1.889512
     90          1           0       -1.524431    4.255610   -0.235180
     91          1           0       -2.812876    4.530169   -1.399545
     92          1           0       -2.020955    0.412697   -0.033987
     93          1           0        2.030963    1.508485   -0.324844
     94          1           0        2.599987   -2.802929    1.014846
     95          1           0        1.032396   -2.203639    0.497046
     96          1           0        2.102887   -2.736117   -0.633353
     97          1           0        0.045432    2.454210   -0.643229
     98          1           0       -0.244042   -0.492117    0.122239
 ---------------------------------------------------------------------

 SCF Done:  E(RCAM-B3LYP) =  -1706.99624630     A.U. after   15 cycles

 Excitation energies and oscillator strengths:

 Excited State   1:      Singlet-A      2.1822 eV  568.15 nm  f=3.2242  <S**2>=0.000
     155 ->158        -0.16523
     156 ->157         0.68472
 This state for optimization and/or second-order correction.
 Total Energy, E(TD-HF/TD-DFT) =  -1706.91605099
 Copying the excited state density for this state as the 1-particle RhoCI density.

 The electronic state is 1-A.
 Alpha  occ. eigenvalues --  -19.22072 -19.19922 -10.31310 -10.30822 -10.29000
 Alpha  occ. eigenvalues --  -10.28400 -10.27684 -10.27657 -10.27582 -10.27426
 Alpha  occ. eigenvalues --  -10.27386 -10.27236 -10.27036 -10.26886 -10.26864
 Alpha  occ. eigenvalues --  -10.26594 -10.26510 -10.26318 -10.26235 -10.26147
 Alpha  occ. eigenvalues --  -10.26112 -10.26102 -10.26082 -10.26056 -10.25952
 Alpha  occ. eigenvalues --  -10.25925 -10.25912 -10.25893 -10.25740 -10.25725
 Alpha  occ. eigenvalues --  -10.25702 -10.25693 -10.25605 -10.25504 -10.25503
 Alpha  occ. eigenvalues --  -10.25481 -10.25383 -10.25076 -10.25031 -10.24660
 Alpha  occ. eigenvalues --  -10.24233 -10.22994  -1.07335  -1.06432  -0.93520
 Alpha  occ. eigenvalues --   -0.93122  -0.92529  -0.91419  -0.90424  -0.89788
 Alpha  occ. eigenvalues --   -0.87543  -0.86808  -0.86384  -0.85662  -0.83963
 Alpha  occ. eigenvalues --   -0.82522  -0.81999  -0.80063  -0.79496  -0.78760
 Alpha  occ. eigenvalues --   -0.76563  -0.76081  -0.75763  -0.75224  -0.75033
 Alpha  occ. eigenvalues --   -0.74665  -0.73801  -0.73543  -0.72473  -0.70310
 Alpha  occ. eigenvalues --   -0.68894  -0.66989  -0.66471  -0.64406  -0.64080
 Alpha  occ. eigenvalues --   -0.63371  -0.62826  -0.61583  -0.61363  -0.60424
 Alpha  occ. eigenvalues --   -0.59272  -0.57578  -0.56918  -0.56108  -0.55806
 Alpha  occ. eigenvalues --   -0.55133  -0.54485  -0.54307  -0.53846  -0.53325
 Alpha  occ. eigenvalues --   -0.53288  -0.52106  -0.51805  -0.51717  -0.50991
 Alpha  occ. eigenvalues --   -0.50355  -0.50076  -0.49924  -0.49063  -0.48867
 Alpha  occ. eigenvalues --   -0.48840  -0.48748  -0.48263  -0.48039  -0.47981
 Alpha  occ. eigenvalues --   -0.47593  -0.47057  -0.46862  -0.46135  -0.46110
 Alpha  occ. eigenvalues --   -0.45854  -0.45623  -0.45127  -0.44992  -0.44366
 Alpha  occ. eigenvalues --   -0.44064  -0.43864  -0.43615  -0.43549  -0.43179
 Alpha  occ. eigenvalues --   -0.42680  -0.42620  -0.42249  -0.42199  -0.42171
 Alpha  occ. eigenvalues --   -0.41958  -0.41665  -0.41345  -0.41055  -0.40372
 Alpha  occ. eigenvalues --   -0.40231  -0.39820  -0.39666  -0.39389  -0.39044
 Alpha  occ. eigenvalues --   -0.38906  -0.38698  -0.38450  -0.37931  -0.37851
 Alpha  occ. eigenvalues --   -0.37588  -0.37174  -0.36940  -0.36831  -0.35642
 Alpha  occ. eigenvalues --   -0.34199  -0.34095  -0.33556  -0.32302  -0.31956
 Alpha  occ. eigenvalues --   -0.30634  -0.29050  -0.28654  -0.25816  -0.22847
 Alpha  occ. eigenvalues --   -0.19323
 Alpha virt. eigenvalues --   -0.05570  -0.01346   0.02122   0.05701   0.06822
 Alpha virt. eigenvalues --    0.07359   0.09682   0.11101   0.11316   0.11857
 Alpha virt. eigenvalues --    0.12431   0.12673   0.13270   0.13594   0.13960

 Mulliken charges:
               1
     1  O   -0.545483
     2  O   -0.575567
     3  C    0.039156
     4  C   -0.116280
     5  C   -0.185509
     6  C    0.093440
     7  C    0.079251
     8  C   -0.025670
     9  C   -0.269226
    10  C   -0.295516
    11  C   -0.200129
    12  C   -0.082369
    13  C    0.214396
    14  C    0.097375
    15  C   -0.089733
    16  C   -0.221319
    17  C    0.024501
    18  C   -0.324340
    19  C   -0.287587
    20  C   -0.335218
    21  C   -0.090370
    22  C   -0.153785
    23  C   -0.358644
    24  C    0.100239
    25  C   -0.075007
    26  C   -0.370877
    27  C    0.075251
    28  C   -0.124268
    29  C   -0.363990
    30  C   -0.119381
    31  C   -0.017384
    32  C   -0.089762
    33  C   -0.131139
    34  C    0.038957
    35  C   -0.078996
    36  C    0.080057
    37  C   -0.364488
    38  C   -0.088866
    39  C   -0.125183
    40  C   -0.380181
    41  C   -0.082881
    42  C   -0.092341
    43  H    0.088858
    44  H    0.110507
    45  H    0.078475
    46  H    0.087364
    47  H    0.089344
    48  H    0.085449
    49  H    0.070224
    50  H    0.119181
    51  H    0.098985
    52  H    0.082369
    53  H    0.098538
    54  H    0.085573
    55  H    0.061018
    56  H    0.051808
    57  H    0.089309
    58  H    0.114082
    59  H    0.121208
    60  H    0.102651
    61  H    0.098175
    62  H    0.101448
    63  H    0.092818
    64  H    0.114071
    65  H    0.066562
    66  H    0.106461
    67  H    0.117184
    68  H    0.103797
    69  H    0.291429
    70  H    0.095444
    71  H    0.080060
    72  H    0.121192
    73  H    0.134325
    74  H    0.089962
    75  H    0.299671
    76  H    0.086623
    77  H    0.119715
    78  H    0.072701
    79  H    0.136150
    80  H    0.086944
    81  H    0.140628
    82  H    0.114006
    83  H    0.079420
    84  H    0.058863
    85  H    0.088744
    86  H    0.081564
    87  H    0.075081
    88  H    0.081863
    89  H    0.139525
    90  H    0.130666
    91  H    0.115103
    92  H    0.076450
    93  H    0.081087
    94  H    0.111108
    95  H    0.112859
    96  H    0.137802
    97  H    0.071096
    98  H    0.073326
 Sum of Mulliken charges =  -0.00000

 Dipole moment (field-independent basis, Debye):
    X=             -1.0192    Y=              0.0196    Z=             -0.7401  Tot=              1.2597
 Quadrupole moment (field-independent basis, Debye-Ang):
   XX=           -297.9934   YY=           -236.4531   ZZ=           -265.3586
   XY=             20.0739   XZ=             30.5211   YZ=              2.3293

 Normal termination of Gaussian 16 at Sat Jul 13 18:03:34 2019.
