 Gaussian 16, Revision A.03,
 Gaussian 16:  ES64L-G16RevA.03 25-Dec-2016

 -------------------------------------
 # td=(NStates=1) CAM-B3LYP/6-31G(d,p)
 -------------------------------------

 --
 TD
 --
 Symbolic Z-matrix:
 Charge =  0 Multiplicity = 1

                         Standard orientation:
 ---------------------------------------------------------------------
 Center     Atomic      Atomic             Coordinates (Angstroms)
 Number     Number       Type             X           Y           Z
 ---------------------------------------------------------------------
      1          8           0      -14.012537   -2.154677    0.833735
      2          8           0       14.812662    0.812848    0.278342
      3          6           0      -11.688933    0.086834    1.374147
      4          6           0      -10.962831    0.288052   -0.052307
      5          6           0      -11.763411   -1.406281    1.429012
      6          6           0      -12.630760   -2.158427    0.455667
      7          6           0      -11.681652   -0.488593   -1.093596
      8          6           0       11.116690    0.927135    1.229349
      9          6           0      -10.809629    0.518460    2.589135
     10          6           0      -12.898779    0.796379    1.384035
     11          6           0       12.520770    1.473508    0.941375
     12          6           0      -12.411357   -1.573695   -0.982144
     13          6           0       13.467297    0.371308    0.391356
     14          6           0       10.623351   -0.044799    0.083309
     15          6           0       -9.563902   -0.024901   -0.131078
     16          6           0       12.978837   -0.170026   -0.921469
     17          6           0       11.512841   -0.358252   -0.984129
     18          6           0       10.225601    2.114111    1.483651
     19          6           0       11.127860    0.005572    2.531185
     20          6           0      -11.494937    0.165834   -2.481875
     21          6           0       -8.530304    0.838367   -0.304066
     22          6           0        9.253376   -0.457316    0.139786
     23          6           0       11.085983   -1.126168   -2.163012
     24          6           0       -7.064210    0.476349   -0.402634
     25          6           0        8.672318   -1.642107   -0.312324
     26          6           0       -6.668216   -0.882396   -0.129984
     27          6           0        7.401869   -2.054630   -0.224344
     28          6           0       -6.197136    1.465815   -0.662594
     29          6           0        7.094054   -3.609622    0.001518
     30          6           0        6.306930   -1.249433   -0.520152
     31          6           0       -4.795877    1.423243   -0.592092
     32          6           0        4.939842   -1.534304   -0.257088
     33          6           0       -3.985365    2.478013   -0.742609
     34          6           0       -2.627026    2.620437   -0.581028
     35          6           0        3.973472   -0.549840   -0.360351
     36          6           0        2.657415   -0.712245   -0.323105
     37          6           0       -2.065011    4.015172   -0.880508
     38          6           0       -1.740376    1.617449   -0.380699
     39          6           0        1.711893    0.369040   -0.507010
     40          6           0        2.044815   -2.117523    0.183524
     41          6           0       -0.343221    1.555777   -0.443950
     42          6           0        0.396903    0.326096   -0.255700
     43          1           0      -10.873367    1.383801   -0.395528
     44          1           0      -12.062620   -1.827724    2.596190
     45          1           0      -10.680761   -1.534404    1.449756
     46          1           0      -12.381814   -3.207127    0.594450
     47          1           0       -9.647712    0.270367    2.791042
     48          1           0      -10.665139    1.615264    2.619460
     49          1           0      -11.435723    0.476599    3.346018
     50          1           0      -13.747881    0.683247    0.648523
     51          1           0      -13.556293    0.852787    2.350370
     52          1           0      -12.644825    1.935697    1.113943
     53          1           0       12.396736    2.282469    0.144022
     54          1           0       12.944103    1.935422    1.791830
     55          1           0      -12.635104   -2.090814   -1.765574
     56          1           0       13.424420   -0.513490    1.145812
     57          1           0       -9.279272   -1.081821   -0.321361
     58          1           0       13.439563   -1.119354   -1.163906
     59          1           0       13.276570    0.692720   -1.565964
     60          1           0        9.226056    1.815553    1.799929
     61          1           0       10.047655    2.526915    0.564642
     62          1           0       10.581444    2.998945    2.196021
     63          1           0       11.678483   -0.880069    2.359175
     64          1           0        9.905685   -0.311976    2.504768
     65          1           0       11.570147    0.413625    3.346380
     66          1           0      -10.488160    0.590228   -2.641191
     67          1           0      -12.104383    1.121807   -2.653114
     68          1           0      -11.573019   -0.692750   -3.268934
     69          1           0      -14.408719   -2.626934    0.175194
     70          1           0        8.310130    0.230936    0.754358
     71          1           0       -8.673684    1.844600   -0.490074
     72          1           0       11.524619   -2.175681   -2.040054
     73          1           0        9.904189   -1.247655   -2.165072
     74          1           0       11.341082   -0.767762   -3.156717
     75          1           0       15.019151    1.018063    1.008443
     76          1           0        9.343665   -2.408281   -0.765313
     77          1           0       -5.608990   -0.939368    0.543936
     78          1           0       -7.323823   -1.234060    0.764933
     79          1           0       -6.833611   -1.614823   -1.028163
     80          1           0       -6.692777    2.486210   -0.750752
     81          1           0        7.053718   -3.902633    1.198800
     82          1           0        6.032068   -3.980411   -0.436650
     83          1           0        7.917481   -4.195839   -0.556697
     84          1           0        6.521157   -0.111395   -0.712059
     85          1           0       -4.383116    0.482871   -0.360601
     86          1           0        4.779549   -2.572627    0.017833
     87          1           0       -4.695690    3.498684   -0.768239
     88          1           0        4.091248    0.457931   -0.821732
     89          1           0       -1.591268    4.090622   -1.923757
     90          1           0       -1.178088    4.396526   -0.278170
     91          1           0       -2.753861    4.779659   -0.980746
     92          1           0       -2.137562    0.591512   -0.206725
     93          1           0        2.007291    1.338546   -0.682566
     94          1           0        2.661533   -2.311775    1.208570
     95          1           0        0.956334   -2.275709    0.294209
     96          1           0        2.489759   -2.994190   -0.545801
     97          1           0        0.318087    2.387364   -0.674958
     98          1           0       -0.240768   -0.480034   -0.268010
 ---------------------------------------------------------------------

 SCF Done:  E(RCAM-B3LYP) =  -1706.86563314     A.U. after   17 cycles

 Excitation energies and oscillator strengths:

 Excited State   1:      Singlet-A      1.8405 eV  673.63 nm  f=3.1858  <S**2>=0.000
     155 ->158         0.12938
     156 ->157         0.70189
     156 <-157        -0.12228
 This state for optimization and/or second-order correction.
 Total Energy, E(TD-HF/TD-DFT) =  -1706.79799502
 Copying the excited state density for this state as the 1-particle RhoCI density.

 The electronic state is 1-A.
 Alpha  occ. eigenvalues --  -19.20012 -19.19963 -10.31157 -10.30651 -10.29185
 Alpha  occ. eigenvalues --  -10.28907 -10.28120 -10.28111 -10.27915 -10.27864
 Alpha  occ. eigenvalues --  -10.27776 -10.27605 -10.27374 -10.27230 -10.27024
 Alpha  occ. eigenvalues --  -10.26916 -10.26912 -10.26885 -10.26767 -10.26739
 Alpha  occ. eigenvalues --  -10.26658 -10.26584 -10.26299 -10.26170 -10.26168
 Alpha  occ. eigenvalues --  -10.26106 -10.26076 -10.26029 -10.26013 -10.25905
 Alpha  occ. eigenvalues --  -10.25836 -10.25807 -10.25707 -10.25528 -10.25455
 Alpha  occ. eigenvalues --  -10.25414 -10.25382 -10.24672 -10.24571 -10.24486
 Alpha  occ. eigenvalues --  -10.24036 -10.24006  -1.14487  -1.10228  -0.94940
 Alpha  occ. eigenvalues --   -0.93814  -0.92810  -0.92205  -0.91181  -0.90459
 Alpha  occ. eigenvalues --   -0.88207  -0.87850  -0.87794  -0.86036  -0.85135
 Alpha  occ. eigenvalues --   -0.83541  -0.82083  -0.80758  -0.79723  -0.78217
 Alpha  occ. eigenvalues --   -0.76529  -0.76474  -0.76301  -0.76095  -0.75722
 Alpha  occ. eigenvalues --   -0.75380  -0.74727  -0.74580  -0.72646  -0.70995
 Alpha  occ. eigenvalues --   -0.69625  -0.68731  -0.67136  -0.65272  -0.64089
 Alpha  occ. eigenvalues --   -0.63548  -0.63417  -0.62548  -0.60669  -0.59500
 Alpha  occ. eigenvalues --   -0.59345  -0.59105  -0.58737  -0.57777  -0.56804
 Alpha  occ. eigenvalues --   -0.56388  -0.55637  -0.55464  -0.54904  -0.54656
 Alpha  occ. eigenvalues --   -0.53516  -0.53146  -0.53051  -0.52352  -0.51317
 Alpha  occ. eigenvalues --   -0.51051  -0.50370  -0.49575  -0.49502  -0.49381
 Alpha  occ. eigenvalues --   -0.49020  -0.48316  -0.48222  -0.47671  -0.47503
 Alpha  occ. eigenvalues --   -0.46920  -0.46831  -0.46451  -0.46340  -0.46129
 Alpha  occ. eigenvalues --   -0.45917  -0.45697  -0.45525  -0.45377  -0.44712
 Alpha  occ. eigenvalues --   -0.44682  -0.44485  -0.44214  -0.43836  -0.43709
 Alpha  occ. eigenvalues --   -0.43533  -0.43010  -0.42636  -0.42126  -0.42039
 Alpha  occ. eigenvalues --   -0.41712  -0.41384  -0.40935  -0.40421  -0.40384
 Alpha  occ. eigenvalues --   -0.40156  -0.39893  -0.39595  -0.39246  -0.38987
 Alpha  occ. eigenvalues --   -0.38707  -0.38602  -0.38207  -0.38017  -0.37972
 Alpha  occ. eigenvalues --   -0.37755  -0.37696  -0.37555  -0.36772  -0.35768
 Alpha  occ. eigenvalues --   -0.35110  -0.34644  -0.33830  -0.32545  -0.32156
 Alpha  occ. eigenvalues --   -0.31475  -0.30231  -0.29581  -0.26582  -0.24100
 Alpha  occ. eigenvalues --   -0.18563
 Alpha virt. eigenvalues --   -0.07279  -0.01453   0.01608   0.05070   0.07014
 Alpha virt. eigenvalues --    0.08802   0.10591   0.11183   0.11771   0.11998
 Alpha virt. eigenvalues --    0.12557   0.12971   0.13327   0.13757   0.13818

 Mulliken charges:
               1
     1  O   -0.532863
     2  O   -0.494501
     3  C    0.057922
     4  C   -0.172135
     5  C   -0.166580
     6  C    0.131240
     7  C    0.137210
     8  C   -0.020745
     9  C   -0.319249
    10  C   -0.303504
    11  C   -0.190985
    12  C   -0.119535
    13  C    0.135002
    14  C    0.065526
    15  C   -0.062996
    16  C   -0.210683
    17  C    0.069485
    18  C   -0.298690
    19  C   -0.283948
    20  C   -0.363429
    21  C   -0.096739
    22  C   -0.120720
    23  C   -0.376749
    24  C    0.136198
    25  C   -0.117038
    26  C   -0.390885
    27  C    0.077419
    28  C   -0.124911
    29  C   -0.352984
    30  C   -0.114464
    31  C   -0.049851
    32  C   -0.079330
    33  C   -0.130945
    34  C    0.133363
    35  C   -0.117290
    36  C    0.109840
    37  C   -0.380463
    38  C   -0.141529
    39  C   -0.125538
    40  C   -0.359727
    41  C   -0.090026
    42  C   -0.049456
    43  H    0.084929
    44  H    0.059852
    45  H    0.109755
    46  H    0.082803
    47  H    0.099887
    48  H    0.090705
    49  H    0.118984
    50  H    0.123692
    51  H    0.095109
    52  H    0.065807
    53  H    0.090101
    54  H    0.088965
    55  H    0.067118
    56  H    0.061089
    57  H    0.087712
    58  H    0.120071
    59  H    0.125222
    60  H    0.098904
    61  H    0.115764
    62  H    0.090118
    63  H    0.105091
    64  H    0.080343
    65  H    0.101937
    66  H    0.113873
    67  H    0.116955
    68  H    0.093500
    69  H    0.296069
    70  H    0.072332
    71  H    0.073859
    72  H    0.107162
    73  H    0.112686
    74  H    0.120513
    75  H    0.261453
    76  H    0.092952
    77  H    0.093236
    78  H    0.112730
    79  H    0.124965
    80  H    0.070294
    81  H    0.105723
    82  H    0.102575
    83  H    0.108365
    84  H    0.074508
    85  H    0.080702
    86  H    0.091288
    87  H    0.062595
    88  H    0.087782
    89  H    0.109457
    90  H    0.110223
    91  H    0.117677
    92  H    0.072377
    93  H    0.077388
    94  H    0.105791
    95  H    0.116408
    96  H    0.090444
    97  H    0.080321
    98  H    0.085119
 Sum of Mulliken charges =  -0.00000

 Dipole moment (field-independent basis, Debye):
    X=              1.3208    Y=             -0.7614    Z=             -0.7567  Tot=              1.7020
 Quadrupole moment (field-independent basis, Debye-Ang):
   XX=           -280.7233   YY=           -244.7381   ZZ=           -263.9622
   XY=              2.3708   XZ=             33.2533   YZ=              4.1373

 Normal termination of Gaussian 16 at Sat Jul 13 13:14:42 2019.
