 Gaussian 16, Revision A.03,
 Gaussian 16:  ES64L-G16RevA.03 25-Dec-2016

 -------------------------------------
 # td=(NStates=1) CAM-B3LYP/6-31G(d,p)
 -------------------------------------

 --
 TD
 --
 Symbolic Z-matrix:
 Charge =  0 Multiplicity = 1

                         Standard orientation:
 ---------------------------------------------------------------------
 Center     Atomic      Atomic             Coordinates (Angstroms)
 Number     Number       Type             X           Y           Z
 ---------------------------------------------------------------------
      1          8           0      -14.127461   -1.964436    0.269437
      2          8           0       14.899942    0.711064   -0.022717
      3          6           0      -11.822451   -0.045073    1.176043
      4          6           0      -10.981258    0.308430   -0.020140
      5          6           0      -12.027981   -1.574811    1.258414
      6          6           0      -12.682211   -2.129626    0.029922
      7          6           0      -11.662592   -0.268354   -1.307820
      8          6           0       11.221705    1.050077    0.969429
      9          6           0      -11.128732    0.523482    2.469689
     10          6           0      -13.213573    0.662021    1.135665
     11          6           0       12.657377    1.344247    0.571136
     12          6           0      -12.441568   -1.300117   -1.308528
     13          6           0       13.562456    0.312147    0.081944
     14          6           0       10.638939    0.000529   -0.074541
     15          6           0       -9.556955   -0.163171   -0.089096
     16          6           0       13.018686   -0.274531   -1.121581
     17          6           0       11.502974   -0.378302   -1.082932
     18          6           0       10.361382    2.281947    0.952606
     19          6           0       11.110876    0.383646    2.447195
     20          6           0      -11.403653    0.435871   -2.548779
     21          6           0       -8.581909    0.648572   -0.215244
     22          6           0        9.280121   -0.487143    0.082410
     23          6           0       10.837642   -1.241479   -2.152037
     24          6           0       -7.094484    0.401889   -0.069623
     25          6           0        8.773462   -1.723207   -0.029540
     26          6           0       -6.610729   -0.958926    0.201473
     27          6           0        7.368917   -2.153094    0.058499
     28          6           0       -6.219327    1.470681   -0.162365
     29          6           0        7.159452   -3.611278    0.232236
     30          6           0        6.392883   -1.190185   -0.054971
     31          6           0       -4.788542    1.437647   -0.221782
     32          6           0        5.059018   -1.468826    0.115676
     33          6           0       -4.054003    2.548849   -0.476709
     34          6           0       -2.586647    2.595302   -0.482203
     35          6           0        4.079477   -0.505399   -0.198086
     36          6           0        2.706486   -0.687682   -0.013430
     37          6           0       -1.996182    3.965721   -0.755819
     38          6           0       -1.782562    1.415688   -0.291799
     39          6           0        1.845726    0.430276   -0.269884
     40          6           0        2.205967   -2.071101    0.242340
     41          6           0       -0.381470    1.554395   -0.192431
     42          6           0        0.500168    0.374282   -0.130392
     43          1           0      -10.958213    1.393810   -0.024114
     44          1           0      -12.580100   -2.138224    2.006285
     45          1           0      -10.868135   -2.055912    1.348230
     46          1           0      -12.386693   -3.182398   -0.243553
     47          1           0      -10.126364    0.204562    2.497908
     48          1           0      -11.021010    1.620478    2.476561
     49          1           0      -11.657829    0.179012    3.475573
     50          1           0      -13.623838    0.321960    0.319457
     51          1           0      -13.687872    0.202910    1.993833
     52          1           0      -13.080744    1.749327    1.100637
     53          1           0       12.459840    1.971494   -0.432148
     54          1           0       13.024704    1.942590    1.379370
     55          1           0      -13.010962   -1.650067   -2.195663
     56          1           0       13.594025   -0.455328    0.850692
     57          1           0       -9.438245   -1.277451    0.157430
     58          1           0       13.636389   -1.267174   -1.455997
     59          1           0       13.146628    0.342454   -2.060987
     60          1           0        9.291383    2.128555    1.376101
     61          1           0       10.203645    2.714379    0.046801
     62          1           0       10.584465    3.005310    1.634774
     63          1           0       11.817192   -0.495401    2.319862
     64          1           0       10.196305   -0.089349    2.608901
     65          1           0       11.553959    0.985740    3.199480
     66          1           0      -10.251374    0.545824   -2.641635
     67          1           0      -11.850083    1.307706   -2.366106
     68          1           0      -11.814789   -0.083268   -3.477700
     69          1           0      -14.716647   -2.265703   -0.413900
     70          1           0        8.525815    0.142228    0.552119
     71          1           0       -8.600151    1.645058   -0.227522
     72          1           0       11.288579   -2.228703   -2.177844
     73          1           0        9.732516   -1.666957   -2.024231
     74          1           0       10.989872   -0.674815   -3.228636
     75          1           0       15.208603    0.799653    1.033817
     76          1           0        9.371654   -2.652705   -0.493313
     77          1           0       -5.389937   -1.116354    0.592272
     78          1           0       -7.130288   -1.569775    1.028592
     79          1           0       -6.742194   -1.612760   -0.696976
     80          1           0       -6.635972    2.425860   -0.328175
     81          1           0        6.713463   -3.734712    1.291052
     82          1           0        6.335551   -4.151785   -0.382258
     83          1           0        7.997832   -4.202321    0.041809
     84          1           0        6.720332   -0.198836   -0.073048
     85          1           0       -4.136021    0.615826   -0.090991
     86          1           0        4.650811   -2.516226    0.394265
     87          1           0       -4.793118    3.411517   -0.653346
     88          1           0        4.597498    0.449305   -0.508786
     89          1           0       -1.293435    3.852096   -1.623601
     90          1           0       -1.245424    4.483598   -0.031398
     91          1           0       -2.848087    4.670940   -1.013108
     92          1           0       -2.071473    0.415077    0.068343
     93          1           0        2.446315    1.292054   -0.565414
     94          1           0        2.506690   -2.239392    1.481561
     95          1           0        1.080583   -1.993958    0.504507
     96          1           0        2.476325   -2.747239   -0.582367
     97          1           0        0.167103    2.459363   -0.441123
     98          1           0       -0.140225   -0.465276    0.170253
 ---------------------------------------------------------------------

 SCF Done:  E(RCAM-B3LYP) =  -1706.96212760     A.U. after   15 cycles

 Excitation energies and oscillator strengths:

 Excited State   1:      Singlet-A      1.9135 eV  647.95 nm  f=2.8973  <S**2>=0.000
     155 ->158        -0.12970
     156 ->157         0.70124
     156 <-157        -0.11863
 This state for optimization and/or second-order correction.
 Total Energy, E(TD-HF/TD-DFT) =  -1706.89180851
 Copying the excited state density for this state as the 1-particle RhoCI density.

 The electronic state is 1-A.
 Alpha  occ. eigenvalues --  -19.22334 -19.20313 -10.31407 -10.29601 -10.28946
 Alpha  occ. eigenvalues --  -10.28005 -10.27745 -10.27732 -10.27540 -10.27331
 Alpha  occ. eigenvalues --  -10.27316 -10.27146 -10.27119 -10.27011 -10.26965
 Alpha  occ. eigenvalues --  -10.26875 -10.26821 -10.26688 -10.26626 -10.26596
 Alpha  occ. eigenvalues --  -10.26526 -10.26424 -10.26357 -10.26299 -10.26296
 Alpha  occ. eigenvalues --  -10.26258 -10.26224 -10.26129 -10.26117 -10.25890
 Alpha  occ. eigenvalues --  -10.25847 -10.25550 -10.25196 -10.24992 -10.24958
 Alpha  occ. eigenvalues --  -10.24787 -10.24293 -10.24289 -10.24271 -10.24159
 Alpha  occ. eigenvalues --  -10.23287 -10.21441  -1.08908  -1.07699  -0.94083
 Alpha  occ. eigenvalues --   -0.93511  -0.92121  -0.91471  -0.90689  -0.89679
 Alpha  occ. eigenvalues --   -0.87196  -0.87100  -0.86546  -0.86080  -0.84874
 Alpha  occ. eigenvalues --   -0.83211  -0.82064  -0.81040  -0.80258  -0.78448
 Alpha  occ. eigenvalues --   -0.76873  -0.76140  -0.76068  -0.75768  -0.75678
 Alpha  occ. eigenvalues --   -0.75547  -0.74809  -0.74575  -0.72256  -0.69859
 Alpha  occ. eigenvalues --   -0.68386  -0.67329  -0.66133  -0.64930  -0.63591
 Alpha  occ. eigenvalues --   -0.63236  -0.62140  -0.62020  -0.60854  -0.60317
 Alpha  occ. eigenvalues --   -0.59540  -0.58711  -0.58053  -0.57379  -0.56474
 Alpha  occ. eigenvalues --   -0.56015  -0.55514  -0.55180  -0.54439  -0.53812
 Alpha  occ. eigenvalues --   -0.53495  -0.53088  -0.52893  -0.51719  -0.51167
 Alpha  occ. eigenvalues --   -0.50861  -0.50354  -0.50139  -0.49740  -0.49165
 Alpha  occ. eigenvalues --   -0.49121  -0.48557  -0.48227  -0.48011  -0.47777
 Alpha  occ. eigenvalues --   -0.47371  -0.46912  -0.46848  -0.46458  -0.46017
 Alpha  occ. eigenvalues --   -0.45771  -0.45288  -0.44967  -0.44766  -0.44621
 Alpha  occ. eigenvalues --   -0.44167  -0.43947  -0.43733  -0.43576  -0.43220
 Alpha  occ. eigenvalues --   -0.42896  -0.42453  -0.42275  -0.42170  -0.42095
 Alpha  occ. eigenvalues --   -0.41624  -0.41380  -0.40952  -0.40842  -0.40435
 Alpha  occ. eigenvalues --   -0.40383  -0.40327  -0.40037  -0.39496  -0.39194
 Alpha  occ. eigenvalues --   -0.38809  -0.38766  -0.38565  -0.38138  -0.37908
 Alpha  occ. eigenvalues --   -0.37527  -0.37141  -0.36457  -0.36048  -0.35036
 Alpha  occ. eigenvalues --   -0.34748  -0.34437  -0.33841  -0.32199  -0.31914
 Alpha  occ. eigenvalues --   -0.31860  -0.29437  -0.28681  -0.26584  -0.24020
 Alpha  occ. eigenvalues --   -0.18386
 Alpha virt. eigenvalues --   -0.06557  -0.00739   0.02515   0.05922   0.08101
 Alpha virt. eigenvalues --    0.08681   0.09150   0.10957   0.11683   0.12168
 Alpha virt. eigenvalues --    0.12629   0.13068   0.13335   0.13374   0.13849

 Mulliken charges:
               1
     1  O   -0.562485
     2  O   -0.561588
     3  C    0.000264
     4  C   -0.134151
     5  C   -0.167907
     6  C    0.124580
     7  C    0.113598
     8  C   -0.010339
     9  C   -0.303980
    10  C   -0.260332
    11  C   -0.188698
    12  C   -0.140507
    13  C    0.217348
    14  C    0.062695
    15  C   -0.074836
    16  C   -0.232512
    17  C    0.042621
    18  C   -0.297116
    19  C   -0.319340
    20  C   -0.343386
    21  C   -0.047399
    22  C   -0.112887
    23  C   -0.354457
    24  C    0.117967
    25  C   -0.114918
    26  C   -0.377179
    27  C    0.088661
    28  C   -0.159952
    29  C   -0.374557
    30  C   -0.100818
    31  C   -0.017982
    32  C   -0.091953
    33  C   -0.131183
    34  C    0.078022
    35  C   -0.120295
    36  C    0.096366
    37  C   -0.374868
    38  C   -0.119484
    39  C   -0.097607
    40  C   -0.366212
    41  C   -0.094240
    42  C   -0.102098
    43  H    0.091835
    44  H    0.125331
    45  H    0.053819
    46  H    0.085770
    47  H    0.104497
    48  H    0.094133
    49  H    0.084658
    50  H    0.120825
    51  H    0.105764
    52  H    0.078814
    53  H    0.081143
    54  H    0.080138
    55  H    0.071504
    56  H    0.071708
    57  H    0.090204
    58  H    0.103586
    59  H    0.117567
    60  H    0.080761
    61  H    0.113313
    62  H    0.106305
    63  H    0.087896
    64  H    0.121151
    65  H    0.102128
    66  H    0.103247
    67  H    0.125268
    68  H    0.097420
    69  H    0.302106
    70  H    0.085593
    71  H    0.069185
    72  H    0.107914
    73  H    0.115820
    74  H    0.078082
    75  H    0.308646
    76  H    0.065039
    77  H    0.078334
    78  H    0.110625
    79  H    0.123403
    80  H    0.077606
    81  H    0.122054
    82  H    0.108529
    83  H    0.118954
    84  H    0.084264
    85  H    0.074582
    86  H    0.085559
    87  H    0.075687
    88  H    0.077262
    89  H    0.125371
    90  H    0.116638
    91  H    0.112853
    92  H    0.095829
    93  H    0.090195
    94  H    0.095530
    95  H    0.106307
    96  H    0.141802
    97  H    0.078447
    98  H    0.082137
 Sum of Mulliken charges =  -0.00000

 Dipole moment (field-independent basis, Debye):
    X=             -0.5012    Y=             -1.3285    Z=              0.4460  Tot=              1.4883
 Quadrupole moment (field-independent basis, Debye-Ang):
   XX=           -275.7283   YY=           -243.5653   ZZ=           -263.6101
   XY=              3.5345   XZ=             40.6020   YZ=              2.2545

 Normal termination of Gaussian 16 at Fri Jul 12 22:25:44 2019.
