 Gaussian 16, Revision A.03,
 Gaussian 16:  ES64L-G16RevA.03 25-Dec-2016

 -------------------------------------
 # td=(NStates=1) CAM-B3LYP/6-31G(d,p)
 -------------------------------------

 --
 TD
 --
 Symbolic Z-matrix:
 Charge =  0 Multiplicity = 1

                         Standard orientation:
 ---------------------------------------------------------------------
 Center     Atomic      Atomic             Coordinates (Angstroms)
 Number     Number       Type             X           Y           Z
 ---------------------------------------------------------------------
      1          8           0      -14.129520   -2.026972    0.473017
      2          8           0       14.868420    0.623322    0.228388
      3          6           0      -11.776783   -0.001653    1.275988
      4          6           0      -11.008099    0.228065   -0.044832
      5          6           0      -11.889627   -1.481748    1.476032
      6          6           0      -12.666301   -2.193062    0.360655
      7          6           0      -11.594822   -0.634339   -1.264436
      8          6           0       11.229181    0.962575    0.960683
      9          6           0      -10.950172    0.599571    2.550310
     10          6           0      -13.105629    0.757232    1.234301
     11          6           0       12.626910    1.496742    0.642773
     12          6           0      -12.322362   -1.719944   -0.913557
     13          6           0       13.556272    0.257866    0.377271
     14          6           0       10.765877   -0.138476    0.095107
     15          6           0       -9.460994   -0.118515   -0.176700
     16          6           0       13.149190   -0.332905   -0.892563
     17          6           0       11.644422   -0.672123   -0.889938
     18          6           0       10.326434    2.276337    0.914019
     19          6           0       11.091403    0.479612    2.510896
     20          6           0      -11.244957   -0.021552   -2.630071
     21          6           0       -8.583437    0.912816   -0.214879
     22          6           0        9.284973   -0.333815   -0.042901
     23          6           0       11.189012   -1.718329   -1.907464
     24          6           0       -7.170023    0.584755   -0.013317
     25          6           0        8.733881   -1.600545   -0.069662
     26          6           0       -6.660252   -0.791818    0.297493
     27          6           0        7.367682   -1.979358   -0.083927
     28          6           0       -6.260969    1.638152   -0.271027
     29          6           0        7.153192   -3.558332   -0.026034
     30          6           0        6.267342   -1.134588   -0.111149
     31          6           0       -4.812990    1.489479   -0.406969
     32          6           0        4.925740   -1.438027   -0.081635
     33          6           0       -4.016031    2.603129   -0.612050
     34          6           0       -2.668120    2.733693   -0.721989
     35          6           0        3.847095   -0.449750   -0.278132
     36          6           0        2.535738   -0.640795   -0.115711
     37          6           0       -2.007809    3.962943   -1.119518
     38          6           0       -1.831855    1.572771   -0.488466
     39          6           0        1.706396    0.403205   -0.306254
     40          6           0        2.018469   -2.120634    0.227056
     41          6           0       -0.437021    1.574031   -0.583098
     42          6           0        0.326608    0.499455   -0.259602
     43          1           0      -11.166770    1.260285   -0.279946
     44          1           0      -12.332584   -1.831674    2.470810
     45          1           0      -10.826721   -2.064622    1.301287
     46          1           0      -12.500161   -3.218308    0.303846
     47          1           0       -9.862219    0.340775    2.482374
     48          1           0      -11.027018    1.718129    2.473937
     49          1           0      -11.506791    0.177342    3.597588
     50          1           0      -13.713962    0.410317    0.185280
     51          1           0      -13.732015    0.526239    2.164405
     52          1           0      -12.811869    1.849093    1.084054
     53          1           0       12.699615    2.167752   -0.171526
     54          1           0       13.022548    2.042988    1.485710
     55          1           0      -12.541810   -2.291855   -1.964377
     56          1           0       13.470304   -0.310038    1.221548
     57          1           0       -9.221383   -1.298182   -0.195344
     58          1           0       13.757198   -1.229429   -1.235178
     59          1           0       13.224317    0.404292   -1.674549
     60          1           0        9.151934    2.117347    1.232397
     61          1           0       10.246476    2.682388   -0.065293
     62          1           0       10.864167    3.029207    1.432322
     63          1           0       11.675909   -0.413859    2.678581
     64          1           0       10.037371   -0.020758    2.599867
     65          1           0       11.112056    1.174779    3.284103
     66          1           0      -10.213158   -0.294956   -2.820202
     67          1           0      -11.436272    1.092347   -2.632713
     68          1           0      -11.877744   -0.709724   -3.213815
     69          1           0      -14.706447   -2.081140   -0.281356
     70          1           0        8.746823    0.529128    0.105279
     71          1           0       -8.922804    1.975721   -0.520221
     72          1           0       11.351443   -2.756225   -1.460479
     73          1           0       10.279337   -1.651047   -2.325133
     74          1           0       11.909503   -1.598411   -2.810468
     75          1           0       15.158165    0.970378    1.015549
     76          1           0        9.400215   -2.521054    0.169925
     77          1           0       -5.485620   -0.619400    0.579693
     78          1           0       -7.230827   -1.131388    1.060322
     79          1           0       -6.705345   -1.665075   -0.626332
     80          1           0       -6.652207    2.463811   -0.554021
     81          1           0        7.007253   -3.854514    0.982205
     82          1           0        6.202850   -3.756090   -0.619828
     83          1           0        7.954657   -4.169372   -0.419737
     84          1           0        6.444283   -0.005593   -0.168425
     85          1           0       -4.359493    0.478313   -0.306387
     86          1           0        4.812168   -2.473615   -0.113837
     87          1           0       -4.518599    3.579704   -0.836466
     88          1           0        3.872800    0.402806   -0.437054
     89          1           0       -1.415590    3.958134   -2.033317
     90          1           0       -1.353946    4.398878   -0.382688
     91          1           0       -2.726955    4.864727   -1.263056
     92          1           0       -2.620139    0.824294   -0.280454
     93          1           0        2.327020    1.235733   -0.520386
     94          1           0        1.834545   -2.099856    1.414822
     95          1           0        0.933169   -2.321564   -0.014638
     96          1           0        2.666324   -3.026101   -0.381190
     97          1           0       -0.027501    2.483101   -0.958359
     98          1           0       -0.243077   -0.227693    0.249401
 ---------------------------------------------------------------------

 SCF Done:  E(RCAM-B3LYP) =  -1706.89140190     A.U. after   16 cycles

 Excitation energies and oscillator strengths:

 Excited State   1:      Singlet-A      1.7905 eV  692.47 nm  f=3.1548  <S**2>=0.000
     155 ->158         0.14155
     156 ->157         0.69912
     156 <-157        -0.12085
 This state for optimization and/or second-order correction.
 Total Energy, E(TD-HF/TD-DFT) =  -1706.82560324
 Copying the excited state density for this state as the 1-particle RhoCI density.

 The electronic state is 1-A.
 Alpha  occ. eigenvalues --  -19.20461 -19.18923 -10.29808 -10.29097 -10.28331
 Alpha  occ. eigenvalues --  -10.28013 -10.27849 -10.27759 -10.27442 -10.27354
 Alpha  occ. eigenvalues --  -10.27325 -10.27090 -10.26975 -10.26885 -10.26699
 Alpha  occ. eigenvalues --  -10.26691 -10.26655 -10.26613 -10.26601 -10.26459
 Alpha  occ. eigenvalues --  -10.26243 -10.26215 -10.26163 -10.26126 -10.26116
 Alpha  occ. eigenvalues --  -10.26072 -10.26064 -10.26004 -10.25914 -10.25911
 Alpha  occ. eigenvalues --  -10.25792 -10.25716 -10.25493 -10.25447 -10.25400
 Alpha  occ. eigenvalues --  -10.25299 -10.25291 -10.25177 -10.25152 -10.24766
 Alpha  occ. eigenvalues --  -10.24443 -10.24308  -1.12353  -1.06585  -0.93558
 Alpha  occ. eigenvalues --   -0.93230  -0.92726  -0.92210  -0.90309  -0.89993
 Alpha  occ. eigenvalues --   -0.87681  -0.86225  -0.85737  -0.85482  -0.84785
 Alpha  occ. eigenvalues --   -0.83074  -0.82303  -0.80116  -0.79677  -0.78216
 Alpha  occ. eigenvalues --   -0.76761  -0.76393  -0.75995  -0.75654  -0.75431
 Alpha  occ. eigenvalues --   -0.75414  -0.74222  -0.72893  -0.72704  -0.71030
 Alpha  occ. eigenvalues --   -0.69742  -0.68373  -0.67692  -0.65873  -0.64246
 Alpha  occ. eigenvalues --   -0.63708  -0.63072  -0.61009  -0.60865  -0.60757
 Alpha  occ. eigenvalues --   -0.59735  -0.58836  -0.57830  -0.57588  -0.56653
 Alpha  occ. eigenvalues --   -0.56058  -0.55103  -0.54982  -0.54601  -0.53995
 Alpha  occ. eigenvalues --   -0.52848  -0.52483  -0.51874  -0.51632  -0.51080
 Alpha  occ. eigenvalues --   -0.50385  -0.50013  -0.49557  -0.49139  -0.48732
 Alpha  occ. eigenvalues --   -0.48449  -0.48410  -0.48297  -0.47970  -0.47705
 Alpha  occ. eigenvalues --   -0.47197  -0.47015  -0.46819  -0.46528  -0.46258
 Alpha  occ. eigenvalues --   -0.45948  -0.45793  -0.45393  -0.45151  -0.44869
 Alpha  occ. eigenvalues --   -0.44775  -0.44504  -0.43929  -0.43625  -0.43300
 Alpha  occ. eigenvalues --   -0.42955  -0.42476  -0.42255  -0.42003  -0.41873
 Alpha  occ. eigenvalues --   -0.41733  -0.41567  -0.41373  -0.41165  -0.40588
 Alpha  occ. eigenvalues --   -0.40112  -0.39852  -0.39643  -0.39371  -0.38884
 Alpha  occ. eigenvalues --   -0.38721  -0.38568  -0.38419  -0.37862  -0.37671
 Alpha  occ. eigenvalues --   -0.37423  -0.37187  -0.36986  -0.36820  -0.36256
 Alpha  occ. eigenvalues --   -0.35781  -0.34894  -0.32864  -0.31914  -0.31190
 Alpha  occ. eigenvalues --   -0.30976  -0.29062  -0.28164  -0.26612  -0.23025
 Alpha  occ. eigenvalues --   -0.18291
 Alpha virt. eigenvalues --   -0.07133  -0.01609   0.03027   0.05394   0.07149
 Alpha virt. eigenvalues --    0.08114   0.10289   0.11177   0.11700   0.11806
 Alpha virt. eigenvalues --    0.12354   0.13027   0.13165   0.13574   0.14113

 Mulliken charges:
               1
     1  O   -0.589612
     2  O   -0.540847
     3  C    0.035875
     4  C   -0.122195
     5  C   -0.170151
     6  C    0.181467
     7  C    0.057925
     8  C   -0.022871
     9  C   -0.292779
    10  C   -0.265305
    11  C   -0.208354
    12  C   -0.131895
    13  C    0.174152
    14  C    0.052961
    15  C   -0.102742
    16  C   -0.207394
    17  C    0.032191
    18  C   -0.309352
    19  C   -0.318478
    20  C   -0.334360
    21  C   -0.094974
    22  C   -0.096249
    23  C   -0.347578
    24  C    0.083208
    25  C   -0.105170
    26  C   -0.339058
    27  C    0.068541
    28  C   -0.085652
    29  C   -0.380053
    30  C   -0.095278
    31  C   -0.103518
    32  C   -0.087519
    33  C   -0.126634
    34  C    0.114023
    35  C   -0.032342
    36  C    0.144823
    37  C   -0.407210
    38  C   -0.085130
    39  C   -0.147607
    40  C   -0.363113
    41  C   -0.085428
    42  C   -0.076006
    43  H    0.071307
    44  H    0.101161
    45  H    0.072974
    46  H    0.096244
    47  H    0.108493
    48  H    0.091841
    49  H    0.072263
    50  H    0.085167
    51  H    0.106373
    52  H    0.083969
    53  H    0.105395
    54  H    0.079635
    55  H    0.042528
    56  H    0.082903
    57  H    0.097514
    58  H    0.107965
    59  H    0.128804
    60  H    0.077347
    61  H    0.108163
    62  H    0.107175
    63  H    0.103326
    64  H    0.092768
    65  H    0.110293
    66  H    0.136119
    67  H    0.120172
    68  H    0.107324
    69  H    0.304123
    70  H    0.091818
    71  H    0.099255
    72  H    0.112935
    73  H    0.135202
    74  H    0.085388
    75  H    0.291261
    76  H    0.084611
    77  H    0.090781
    78  H    0.130877
    79  H    0.087239
    80  H    0.061255
    81  H    0.135900
    82  H    0.108445
    83  H    0.116650
    84  H    0.070815
    85  H    0.099688
    86  H    0.074169
    87  H    0.075796
    88  H   -0.002543
    89  H    0.131214
    90  H    0.131110
    91  H    0.090201
    92  H    0.059436
    93  H    0.076445
    94  H    0.111269
    95  H    0.107487
    96  H    0.098877
    97  H    0.086394
    98  H    0.086364
 Sum of Mulliken charges =  -0.00000

 Dipole moment (field-independent basis, Debye):
    X=              2.3963    Y=              0.2778    Z=             -0.5464  Tot=              2.4734
 Quadrupole moment (field-independent basis, Debye-Ang):
   XX=           -278.1623   YY=           -243.3855   ZZ=           -262.7190
   XY=              1.3469   XZ=             36.9873   YZ=              0.4441

 Normal termination of Gaussian 16 at Tue Jul 16 05:32:50 2019.
