 Gaussian 16, Revision A.03,
 Gaussian 16:  ES64L-G16RevA.03 25-Dec-2016

 -------------------------------------
 # td=(NStates=1) CAM-B3LYP/6-31G(d,p)
 -------------------------------------

 --
 TD
 --
 Symbolic Z-matrix:
 Charge =  0 Multiplicity = 1

                         Standard orientation:
 ---------------------------------------------------------------------
 Center     Atomic      Atomic             Coordinates (Angstroms)
 Number     Number       Type             X           Y           Z
 ---------------------------------------------------------------------
      1          8           0      -14.116584   -1.784672    0.467070
      2          8           0       14.703142    1.082136    0.159628
      3          6           0      -11.715926    0.039700    1.303778
      4          6           0      -10.872231    0.339314   -0.012069
      5          6           0      -11.981411   -1.374377    1.461500
      6          6           0      -12.673264   -2.043102    0.369472
      7          6           0      -11.581325   -0.405918   -1.233069
      8          6           0       11.022316    0.981874    1.119627
      9          6           0      -11.001292    0.562113    2.455736
     10          6           0      -13.067837    0.772806    1.184608
     11          6           0       12.400414    1.730717    0.837449
     12          6           0      -12.364296   -1.563139   -1.021682
     13          6           0       13.470925    0.622041    0.427494
     14          6           0       10.679308   -0.079372    0.050977
     15          6           0       -9.437987   -0.066462    0.010831
     16          6           0       13.046301   -0.044802   -0.780494
     17          6           0       11.605232   -0.455271   -0.853302
     18          6           0        9.936333    2.058058    1.097019
     19          6           0       10.974631    0.299445    2.594732
     20          6           0      -11.321729    0.209308   -2.529986
     21          6           0       -8.417488    0.831290   -0.089260
     22          6           0        9.283602   -0.524964    0.185183
     23          6           0       11.281856   -1.425772   -1.968944
     24          6           0       -7.057528    0.560837    0.057593
     25          6           0        8.749261   -1.851606    0.008793
     26          6           0       -6.699343   -0.918868    0.283278
     27          6           0        7.415214   -2.218480   -0.101214
     28          6           0       -6.077488    1.478049   -0.161818
     29          6           0        7.256007   -3.695633    0.193452
     30          6           0        6.427094   -1.291263   -0.280803
     31          6           0       -4.726237    1.489638   -0.282055
     32          6           0        5.006955   -1.490883   -0.221480
     33          6           0       -3.995051    2.570630   -0.785091
     34          6           0       -2.517444    2.552493   -0.949334
     35          6           0        3.991920   -0.603876   -0.381763
     36          6           0        2.601127   -0.966419   -0.342298
     37          6           0       -1.868202    3.938720   -1.022380
     38          6           0       -1.784783    1.346772   -0.724186
     39          6           0        1.773758    0.173418   -0.544317
     40          6           0        2.109519   -2.389237   -0.204174
     41          6           0       -0.402793    1.439344   -0.586573
     42          6           0        0.299407    0.284561   -0.418236
     43          1           0      -10.906408    1.488641    0.004192
     44          1           0      -12.604625   -1.673764    2.358905
     45          1           0      -10.944339   -1.871702    1.502443
     46          1           0      -12.656204   -3.128318    0.629320
     47          1           0      -10.244977   -0.095527    2.830262
     48          1           0      -10.588438    1.684796    2.238876
     49          1           0      -11.709203    0.747881    3.294189
     50          1           0      -13.516796    0.576185    0.233820
     51          1           0      -13.942495    0.352193    2.081725
     52          1           0      -12.860280    1.749018    1.421941
     53          1           0       12.376472    2.496388   -0.033804
     54          1           0       12.966371    2.275505    1.562045
     55          1           0      -12.720698   -2.075013   -1.723510
     56          1           0       13.593865   -0.124813    1.229160
     57          1           0       -9.414252   -1.100269   -0.054243
     58          1           0       13.582353   -0.803695   -1.114289
     59          1           0       13.216864    0.792123   -1.680689
     60          1           0        8.985988    1.813916    1.661822
     61          1           0        9.580570    2.435110    0.022912
     62          1           0       10.346488    2.938339    1.642544
     63          1           0       11.647397   -0.569572    2.385731
     64          1           0        9.880059    0.151225    2.859933
     65          1           0       11.398749    1.010066    3.343231
     66          1           0      -10.340459    0.083450   -2.727897
     67          1           0      -11.830855    1.178940   -2.528235
     68          1           0      -11.862801   -0.453420   -3.185956
     69          1           0      -14.662384   -1.870710   -0.346622
     70          1           0        8.501371    0.033073    0.444119
     71          1           0       -8.555759    1.896004   -0.031651
     72          1           0       11.694973   -2.589989   -1.836608
     73          1           0       10.209059   -1.556950   -2.206328
     74          1           0       11.929225   -1.187586   -2.859519
     75          1           0       14.720396    2.037117    0.813721
     76          1           0        9.542611   -2.746744   -0.117827
     77          1           0       -5.738233   -1.083380    0.625567
     78          1           0       -7.529147   -1.468454    1.092740
     79          1           0       -6.879004   -1.570248   -0.489739
     80          1           0       -6.609158    2.439222   -0.345550
     81          1           0        7.376148   -3.964186    1.314398
     82          1           0        6.100314   -3.819834   -0.294205
     83          1           0        8.079046   -4.091950   -0.557550
     84          1           0        6.718658   -0.225752   -0.547951
     85          1           0       -4.281736    0.642430    0.124864
     86          1           0        4.636452   -2.443406   -0.036754
     87          1           0       -4.549654    3.491339   -1.142132
     88          1           0        4.121620    0.545393   -0.327796
     89          1           0       -1.188851    3.972150   -1.947713
     90          1           0       -1.271237    4.137077   -0.180880
     91          1           0       -2.572989    4.670618   -1.245065
     92          1           0       -2.311367    0.553449   -0.618012
     93          1           0        2.210765    1.094179   -0.584759
     94          1           0        1.978112   -2.745561    0.854916
     95          1           0        0.981231   -2.425882   -0.464917
     96          1           0        2.849998   -2.914785   -0.665076
     97          1           0        0.085108    2.268328   -0.600846
     98          1           0       -0.315533   -0.562464    0.027184
 ---------------------------------------------------------------------

 SCF Done:  E(RCAM-B3LYP) =  -1706.90590879     A.U. after   15 cycles

 Excitation energies and oscillator strengths:

 Excited State   1:      Singlet-A      2.1641 eV  572.91 nm  f=3.0525  <S**2>=0.000
     155 ->158         0.16905
     156 ->157         0.68482
 This state for optimization and/or second-order correction.
 Total Energy, E(TD-HF/TD-DFT) =  -1706.82637913
 Copying the excited state density for this state as the 1-particle RhoCI density.

 The electronic state is 1-A.
 Alpha  occ. eigenvalues --  -19.22679 -19.19198 -10.30063 -10.29584 -10.28529
 Alpha  occ. eigenvalues --  -10.28483 -10.28106 -10.28036 -10.27902 -10.27726
 Alpha  occ. eigenvalues --  -10.26994 -10.26939 -10.26919 -10.26902 -10.26858
 Alpha  occ. eigenvalues --  -10.26786 -10.26765 -10.26744 -10.26656 -10.26477
 Alpha  occ. eigenvalues --  -10.26453 -10.26298 -10.26279 -10.26139 -10.26044
 Alpha  occ. eigenvalues --  -10.25939 -10.25815 -10.25772 -10.25770 -10.25698
 Alpha  occ. eigenvalues --  -10.25678 -10.25513 -10.25304 -10.25157 -10.25028
 Alpha  occ. eigenvalues --  -10.24978 -10.24732 -10.24716 -10.24375 -10.24059
 Alpha  occ. eigenvalues --  -10.23993 -10.23417  -1.10720  -1.06659  -0.93807
 Alpha  occ. eigenvalues --   -0.93099  -0.92304  -0.91881  -0.91131  -0.90100
 Alpha  occ. eigenvalues --   -0.87912  -0.87376  -0.86574  -0.85358  -0.84249
 Alpha  occ. eigenvalues --   -0.83313  -0.82602  -0.80982  -0.79113  -0.78958
 Alpha  occ. eigenvalues --   -0.76904  -0.76837  -0.76409  -0.76178  -0.75557
 Alpha  occ. eigenvalues --   -0.75079  -0.74872  -0.74539  -0.73373  -0.70350
 Alpha  occ. eigenvalues --   -0.68906  -0.67494  -0.66670  -0.65596  -0.64249
 Alpha  occ. eigenvalues --   -0.63823  -0.63483  -0.62481  -0.60764  -0.60011
 Alpha  occ. eigenvalues --   -0.59677  -0.58487  -0.57950  -0.57859  -0.56373
 Alpha  occ. eigenvalues --   -0.56033  -0.55811  -0.55208  -0.54793  -0.54064
 Alpha  occ. eigenvalues --   -0.53596  -0.53159  -0.52714  -0.52141  -0.51811
 Alpha  occ. eigenvalues --   -0.51330  -0.51080  -0.50297  -0.49875  -0.49806
 Alpha  occ. eigenvalues --   -0.49270  -0.48703  -0.48536  -0.48084  -0.47898
 Alpha  occ. eigenvalues --   -0.47790  -0.47594  -0.47114  -0.46908  -0.46525
 Alpha  occ. eigenvalues --   -0.46243  -0.46012  -0.45695  -0.44909  -0.44863
 Alpha  occ. eigenvalues --   -0.44783  -0.44315  -0.43842  -0.43598  -0.43413
 Alpha  occ. eigenvalues --   -0.43108  -0.43011  -0.42872  -0.42451  -0.42343
 Alpha  occ. eigenvalues --   -0.41972  -0.41723  -0.41613  -0.41367  -0.40779
 Alpha  occ. eigenvalues --   -0.40613  -0.40118  -0.39810  -0.39240  -0.39028
 Alpha  occ. eigenvalues --   -0.38645  -0.38508  -0.38278  -0.38138  -0.37596
 Alpha  occ. eigenvalues --   -0.37239  -0.36642  -0.36477  -0.35844  -0.35439
 Alpha  occ. eigenvalues --   -0.35249  -0.34455  -0.33056  -0.31807  -0.31514
 Alpha  occ. eigenvalues --   -0.31051  -0.29143  -0.28468  -0.26543  -0.23343
 Alpha  occ. eigenvalues --   -0.19737
 Alpha virt. eigenvalues --   -0.05840  -0.02028   0.01906   0.05128   0.06369
 Alpha virt. eigenvalues --    0.07102   0.08515   0.10799   0.11691   0.12227
 Alpha virt. eigenvalues --    0.12559   0.13227   0.13312   0.13371   0.13783

 Mulliken charges:
               1
     1  O   -0.585455
     2  O   -0.543757
     3  C    0.037869
     4  C   -0.144603
     5  C   -0.161677
     6  C    0.157727
     7  C    0.043770
     8  C   -0.021449
     9  C   -0.298057
    10  C   -0.256607
    11  C   -0.218253
    12  C   -0.102773
    13  C    0.186872
    14  C    0.067179
    15  C   -0.055713
    16  C   -0.192445
    17  C    0.081848
    18  C   -0.303911
    19  C   -0.294860
    20  C   -0.335438
    21  C   -0.105648
    22  C   -0.105832
    23  C   -0.367627
    24  C    0.127598
    25  C   -0.132041
    26  C   -0.367648
    27  C    0.096244
    28  C   -0.132368
    29  C   -0.331413
    30  C   -0.120446
    31  C   -0.049263
    32  C   -0.110111
    33  C   -0.127969
    34  C    0.038504
    35  C   -0.098719
    36  C    0.107067
    37  C   -0.369386
    38  C   -0.057673
    39  C   -0.138129
    40  C   -0.364622
    41  C   -0.042171
    42  C   -0.108594
    43  H    0.076995
    44  H    0.108082
    45  H    0.074327
    46  H    0.082276
    47  H    0.103401
    48  H    0.067234
    49  H    0.098729
    50  H    0.108455
    51  H    0.059860
    52  H    0.089251
    53  H    0.096985
    54  H    0.077239
    55  H    0.061422
    56  H    0.068957
    57  H    0.092336
    58  H    0.118290
    59  H    0.083336
    60  H    0.094833
    61  H    0.091561
    62  H    0.094640
    63  H    0.113878
    64  H    0.110196
    65  H    0.099529
    66  H    0.135726
    67  H    0.125335
    68  H    0.101710
    69  H    0.302416
    70  H    0.082020
    71  H    0.081553
    72  H    0.079410
    73  H    0.128543
    74  H    0.103503
    75  H    0.291622
    76  H    0.069549
    77  H    0.106937
    78  H    0.064875
    79  H    0.134834
    80  H    0.060118
    81  H    0.133312
    82  H    0.079878
    83  H    0.113372
    84  H    0.085209
    85  H    0.084992
    86  H    0.069718
    87  H    0.089107
    88  H    0.081592
    89  H    0.109650
    90  H    0.136909
    91  H    0.116159
    92  H    0.064764
    93  H    0.076557
    94  H    0.123272
    95  H    0.116802
    96  H    0.128520
    97  H    0.072740
    98  H    0.077466
 Sum of Mulliken charges =  -0.00000

 Dipole moment (field-independent basis, Debye):
    X=              0.6034    Y=              0.6542    Z=             -0.2572  Tot=              0.9264
 Quadrupole moment (field-independent basis, Debye-Ang):
   XX=           -295.5045   YY=           -242.9123   ZZ=           -264.2162
   XY=             15.5385   XZ=             37.2740   YZ=              2.3806

 Normal termination of Gaussian 16 at Mon Jul 15 12:11:58 2019.
