 Gaussian 16, Revision A.03,
 Gaussian 16:  ES64L-G16RevA.03 25-Dec-2016

 -------------------------------------
 # td=(NStates=1) CAM-B3LYP/6-31G(d,p)
 -------------------------------------

 --
 TD
 --
 Symbolic Z-matrix:
 Charge =  0 Multiplicity = 1

                         Standard orientation:
 ---------------------------------------------------------------------
 Center     Atomic      Atomic             Coordinates (Angstroms)
 Number     Number       Type             X           Y           Z
 ---------------------------------------------------------------------
      1          8           0      -14.020641   -2.179144    0.490192
      2          8           0       14.749044    0.800832    0.155434
      3          6           0      -11.743985    0.043372    1.277564
      4          6           0      -11.015420    0.380535   -0.086695
      5          6           0      -11.852977   -1.455752    1.453851
      6          6           0      -12.614696   -2.158198    0.306316
      7          6           0      -11.705443   -0.372436   -1.240737
      8          6           0       11.141887    1.035989    0.927390
      9          6           0      -10.811791    0.589166    2.446697
     10          6           0      -13.095023    0.735678    1.330105
     11          6           0       12.573519    1.494804    0.670449
     12          6           0      -12.347263   -1.521224   -1.085862
     13          6           0       13.460943    0.396857    0.386501
     14          6           0       10.677666   -0.033674   -0.067588
     15          6           0       -9.501546   -0.019485   -0.025834
     16          6           0       13.096755   -0.319766   -0.800780
     17          6           0       11.486175   -0.596053   -0.909090
     18          6           0       10.200026    2.221214    1.025294
     19          6           0       11.109197    0.371027    2.323533
     20          6           0      -11.470777    0.169817   -2.587241
     21          6           0       -8.467789    0.853704   -0.187608
     22          6           0        9.235728   -0.473615    0.022558
     23          6           0       11.043803   -1.419557   -2.069508
     24          6           0       -6.995011    0.478846   -0.149678
     25          6           0        8.759984   -1.709861   -0.088668
     26          6           0       -6.642962   -0.969118    0.122079
     27          6           0        7.371282   -2.094167    0.030905
     28          6           0       -6.184842    1.536655   -0.271989
     29          6           0        7.064870   -3.581410    0.073099
     30          6           0        6.303536   -1.227865   -0.147629
     31          6           0       -4.756280    1.591784   -0.243475
     32          6           0        4.942356   -1.511255   -0.050213
     33          6           0       -4.007442    2.690995   -0.654038
     34          6           0       -2.539722    2.626854   -0.663216
     35          6           0        3.920956   -0.565922   -0.175049
     36          6           0        2.608743   -0.740390   -0.077101
     37          6           0       -1.922805    3.932353   -0.820096
     38          6           0       -1.732371    1.473136   -0.520425
     39          6           0        1.708289    0.307157   -0.466899
     40          6           0        2.034981   -2.118207    0.282413
     41          6           0       -0.431433    1.585209   -0.575846
     42          6           0        0.357415    0.378121   -0.443906
     43          1           0      -11.213988    1.474032   -0.471009
     44          1           0      -12.517502   -1.752133    2.347584
     45          1           0      -10.786192   -1.809137    1.790393
     46          1           0      -12.310192   -3.419639    0.176638
     47          1           0       -9.904805   -0.123080    2.328731
     48          1           0      -10.675794    1.677732    2.369188
     49          1           0      -11.310570    0.474359    3.546949
     50          1           0      -13.806602    0.321014    0.479598
     51          1           0      -13.684770    0.569376    2.277638
     52          1           0      -13.004575    1.853622    1.084783
     53          1           0       12.626873    2.131110   -0.314172
     54          1           0       12.796607    2.298702    1.541698
     55          1           0      -12.806426   -2.076921   -1.876055
     56          1           0       13.578165   -0.430584    1.244708
     57          1           0       -9.432837   -1.046234    0.039256
     58          1           0       13.500232   -1.226918   -0.794882
     59          1           0       13.439492    0.344850   -1.674808
     60          1           0        9.168093    1.967851    1.463109
     61          1           0       10.137594    2.767326    0.000951
     62          1           0       10.757045    3.007779    1.664514
     63          1           0       11.617584   -0.784241    2.507215
     64          1           0       10.182638    0.236311    2.741969
     65          1           0       11.535257    1.105811    2.990705
     66          1           0      -10.371778    0.267377   -2.837249
     67          1           0      -12.130487    1.176997   -2.547250
     68          1           0      -11.984314   -0.481669   -3.290888
     69          1           0      -14.319660   -2.455171   -0.377295
     70          1           0        8.489245    0.197423    0.398436
     71          1           0       -8.473717    1.770427   -0.317671
     72          1           0       11.666483   -2.404990   -2.031001
     73          1           0        9.919348   -1.406442   -2.082232
     74          1           0       11.502061   -1.054166   -3.028330
     75          1           0       15.233208    0.842450    0.989440
     76          1           0        9.479123   -2.613134   -0.363589
     77          1           0       -5.503898   -1.248842   -0.163644
     78          1           0       -6.950285   -1.138438    1.008347
     79          1           0       -7.189249   -1.610458   -0.648037
     80          1           0       -6.520379    2.700721   -0.282863
     81          1           0        7.026406   -3.985469    1.184977
     82          1           0        6.021917   -3.888828   -0.528953
     83          1           0        7.798908   -4.315889   -0.360158
     84          1           0        6.566290   -0.166981   -0.314005
     85          1           0       -4.210873    0.736178    0.128047
     86          1           0        4.439080   -2.537398    0.205506
     87          1           0       -4.253255    3.759559   -0.967082
     88          1           0        4.285104    0.355599   -0.433312
     89          1           0       -1.250774    4.060741   -1.805141
     90          1           0       -1.229126    3.923545    0.219713
     91          1           0       -2.527215    4.713790   -0.737306
     92          1           0       -2.349263    0.494688   -0.637829
     93          1           0        2.253760    1.272608   -0.649615
     94          1           0        2.835519   -2.719983    0.990217
     95          1           0        0.763345   -2.000065    0.915887
     96          1           0        1.577007   -2.681694   -0.983691
     97          1           0        0.173930    2.509717   -0.750162
     98          1           0       -0.030200   -0.638594   -0.150473
 ---------------------------------------------------------------------

 SCF Done:  E(RCAM-B3LYP) =  -1706.84712060     A.U. after   17 cycles

 Excitation energies and oscillator strengths:

 Excited State   1:      Singlet-A      1.7494 eV  708.74 nm  f=2.7223  <S**2>=0.000
     155 ->158        -0.10823
     156 ->157         0.71142
     156 <-157        -0.15202
 This state for optimization and/or second-order correction.
 Total Energy, E(TD-HF/TD-DFT) =  -1706.78283237
 Copying the excited state density for this state as the 1-particle RhoCI density.

 The electronic state is 1-A.
 Alpha  occ. eigenvalues --  -19.21511 -19.20590 -10.32894 -10.32311 -10.29742
 Alpha  occ. eigenvalues --  -10.27984 -10.27922 -10.27758 -10.27431 -10.27298
 Alpha  occ. eigenvalues --  -10.27285 -10.27258 -10.27257 -10.27221 -10.27191
 Alpha  occ. eigenvalues --  -10.27050 -10.26998 -10.26756 -10.26718 -10.26714
 Alpha  occ. eigenvalues --  -10.26675 -10.26516 -10.26507 -10.26443 -10.26386
 Alpha  occ. eigenvalues --  -10.26319 -10.26159 -10.26008 -10.25981 -10.25970
 Alpha  occ. eigenvalues --  -10.25950 -10.25896 -10.25574 -10.25542 -10.25518
 Alpha  occ. eigenvalues --  -10.25424 -10.25089 -10.24983 -10.24917 -10.24746
 Alpha  occ. eigenvalues --  -10.24608 -10.24251  -1.11313  -1.10513  -0.93859
 Alpha  occ. eigenvalues --   -0.93315  -0.92802  -0.91893  -0.91043  -0.89999
 Alpha  occ. eigenvalues --   -0.87528  -0.87121  -0.86752  -0.85657  -0.84792
 Alpha  occ. eigenvalues --   -0.83019  -0.82043  -0.80295  -0.80061  -0.78223
 Alpha  occ. eigenvalues --   -0.77746  -0.75902  -0.75501  -0.75414  -0.74957
 Alpha  occ. eigenvalues --   -0.74835  -0.74110  -0.73823  -0.71777  -0.70189
 Alpha  occ. eigenvalues --   -0.68472  -0.66714  -0.66368  -0.64770  -0.64462
 Alpha  occ. eigenvalues --   -0.63238  -0.62207  -0.61550  -0.60163  -0.59906
 Alpha  occ. eigenvalues --   -0.59683  -0.59099  -0.58064  -0.57050  -0.56034
 Alpha  occ. eigenvalues --   -0.55903  -0.55125  -0.54923  -0.54306  -0.53951
 Alpha  occ. eigenvalues --   -0.52733  -0.52422  -0.52247  -0.51844  -0.51479
 Alpha  occ. eigenvalues --   -0.50854  -0.50530  -0.50229  -0.50028  -0.49367
 Alpha  occ. eigenvalues --   -0.48767  -0.48522  -0.48296  -0.47689  -0.47033
 Alpha  occ. eigenvalues --   -0.46914  -0.46698  -0.46503  -0.46265  -0.45946
 Alpha  occ. eigenvalues --   -0.45683  -0.45541  -0.45095  -0.44716  -0.44506
 Alpha  occ. eigenvalues --   -0.44332  -0.44151  -0.43641  -0.43139  -0.42915
 Alpha  occ. eigenvalues --   -0.42710  -0.42595  -0.42445  -0.42241  -0.41670
 Alpha  occ. eigenvalues --   -0.41264  -0.41039  -0.40860  -0.40567  -0.40434
 Alpha  occ. eigenvalues --   -0.40385  -0.40051  -0.39324  -0.38913  -0.38765
 Alpha  occ. eigenvalues --   -0.38625  -0.38297  -0.38219  -0.37869  -0.37614
 Alpha  occ. eigenvalues --   -0.37594  -0.37044  -0.36388  -0.36270  -0.35589
 Alpha  occ. eigenvalues --   -0.35338  -0.34688  -0.33734  -0.32300  -0.31897
 Alpha  occ. eigenvalues --   -0.31165  -0.29793  -0.29107  -0.27062  -0.24583
 Alpha  occ. eigenvalues --   -0.17891
 Alpha virt. eigenvalues --   -0.07382  -0.00387   0.02735   0.05944   0.07251
 Alpha virt. eigenvalues --    0.08051   0.08541   0.10414   0.11402   0.11499
 Alpha virt. eigenvalues --    0.11790   0.12052   0.12370   0.12955   0.13486

 Mulliken charges:
               1
     1  O   -0.525066
     2  O   -0.550930
     3  C    0.024269
     4  C   -0.118542
     5  C   -0.183291
     6  C    0.156565
     7  C    0.106368
     8  C   -0.026017
     9  C   -0.277474
    10  C   -0.297006
    11  C   -0.163721
    12  C   -0.144270
    13  C    0.170529
    14  C    0.120298
    15  C   -0.111431
    16  C   -0.186017
    17  C    0.010072
    18  C   -0.300407
    19  C   -0.278513
    20  C   -0.344766
    21  C   -0.012004
    22  C   -0.140124
    23  C   -0.365279
    24  C    0.076970
    25  C   -0.102862
    26  C   -0.353266
    27  C    0.098236
    28  C   -0.136468
    29  C   -0.368584
    30  C   -0.129774
    31  C   -0.096137
    32  C   -0.084618
    33  C   -0.109733
    34  C    0.074900
    35  C   -0.085296
    36  C    0.125338
    37  C   -0.360146
    38  C   -0.081284
    39  C   -0.124015
    40  C   -0.311352
    41  C   -0.100040
    42  C   -0.079788
    43  H    0.077512
    44  H    0.113826
    45  H    0.087148
    46  H    0.025397
    47  H    0.091619
    48  H    0.104488
    49  H    0.074871
    50  H    0.103015
    51  H    0.102457
    52  H    0.080504
    53  H    0.087076
    54  H    0.070676
    55  H    0.072661
    56  H    0.050333
    57  H    0.099368
    58  H    0.112269
    59  H    0.106941
    60  H    0.104614
    61  H    0.100064
    62  H    0.090805
    63  H    0.071684
    64  H    0.112945
    65  H    0.090526
    66  H    0.125225
    67  H    0.095094
    68  H    0.109873
    69  H    0.307177
    70  H    0.078584
    71  H    0.050540
    72  H    0.091021
    73  H    0.130207
    74  H    0.107986
    75  H    0.305070
    76  H    0.092698
    77  H    0.096901
    78  H    0.145067
    79  H    0.117895
    80  H    0.082469
    81  H    0.104032
    82  H    0.097472
    83  H    0.111044
    84  H    0.082867
    85  H    0.097054
    86  H    0.070694
    87  H    0.088934
    88  H    0.069604
    89  H    0.109988
    90  H    0.101587
    91  H    0.112202
    92  H    0.092843
    93  H    0.062818
    94  H    0.114947
    95  H    0.057472
    96  H    0.066048
    97  H    0.110383
    98  H    0.068083
 Sum of Mulliken charges =  -0.00000

 Dipole moment (field-independent basis, Debye):
    X=             -0.3946    Y=              0.5580    Z=             -0.1817  Tot=              0.7071
 Quadrupole moment (field-independent basis, Debye-Ang):
   XX=           -273.9041   YY=           -247.8676   ZZ=           -263.6227
   XY=             -3.4486   XZ=             40.2245   YZ=              2.3410

 Normal termination of Gaussian 16 at Fri Jul 12 22:31:40 2019.
