 Gaussian 16, Revision A.03,
 Gaussian 16:  ES64L-G16RevA.03 25-Dec-2016

 -------------------------------------
 # td=(NStates=1) CAM-B3LYP/6-31G(d,p)
 -------------------------------------

 --
 TD
 --
 Symbolic Z-matrix:
 Charge =  0 Multiplicity = 1

                         Standard orientation:
 ---------------------------------------------------------------------
 Center     Atomic      Atomic             Coordinates (Angstroms)
 Number     Number       Type             X           Y           Z
 ---------------------------------------------------------------------
      1          8           0      -14.048559   -1.907187    0.697657
      2          8           0       14.796083    1.259842    0.123955
      3          6           0      -11.826164    0.216499    1.270652
      4          6           0      -10.937454    0.352975   -0.112650
      5          6           0      -12.029515   -1.269534    1.510047
      6          6           0      -12.660137   -2.147935    0.441744
      7          6           0      -11.634986   -0.479228   -1.224768
      8          6           0       11.089934    1.111777    1.064010
      9          6           0      -11.119050    0.906435    2.392393
     10          6           0      -13.152426    0.861537    1.019853
     11          6           0       12.410940    1.584724    0.695015
     12          6           0      -12.350924   -1.553609   -1.021429
     13          6           0       13.497476    0.575869    0.340543
     14          6           0       10.706517   -0.012780    0.114197
     15          6           0       -9.591371   -0.013618    0.084629
     16          6           0       12.994828   -0.155527   -0.914819
     17          6           0       11.494121   -0.615105   -0.841293
     18          6           0       10.022463    2.253650    1.008098
     19          6           0       11.013268    0.468733    2.406625
     20          6           0      -11.351442    0.019090   -2.617719
     21          6           0       -8.557021    0.824113   -0.122168
     22          6           0        9.309949   -0.497865    0.218542
     23          6           0       11.162135   -1.554762   -2.032206
     24          6           0       -7.100002    0.544712   -0.113163
     25          6           0        8.791991   -1.703055   -0.115003
     26          6           0       -6.693645   -0.819764    0.235707
     27          6           0        7.420613   -2.239773   -0.039809
     28          6           0       -6.170545    1.520558   -0.418692
     29          6           0        7.205809   -3.707060    0.059586
     30          6           0        6.419017   -1.279273   -0.214727
     31          6           0       -4.772058    1.419800   -0.479209
     32          6           0        5.023592   -1.580579    0.032308
     33          6           0       -3.869137    2.457877   -0.781136
     34          6           0       -2.535775    2.485307   -0.844003
     35          6           0        4.036423   -0.586805   -0.382140
     36          6           0        2.695349   -0.872241   -0.082687
     37          6           0       -1.795321    3.721155   -1.107944
     38          6           0       -1.804536    1.310422   -0.582244
     39          6           0        1.791975    0.160134   -0.351573
     40          6           0        2.147752   -2.290130    0.351571
     41          6           0       -0.364741    1.317313   -0.541249
     42          6           0        0.372184    0.145854   -0.287391
     43          1           0      -10.797663    1.418300   -0.481572
     44          1           0      -12.571955   -1.397950    2.447930
     45          1           0      -11.204251   -1.714825    1.864384
     46          1           0      -12.327045   -3.141281    0.481944
     47          1           0      -10.053263    0.428471    2.574862
     48          1           0      -11.094493    1.894554    2.131908
     49          1           0      -11.571811    0.958327    3.428652
     50          1           0      -13.565062    0.513044   -0.015113
     51          1           0      -13.941680    0.406200    1.885376
     52          1           0      -13.013179    1.936810    1.006789
     53          1           0       12.318360    2.156215   -0.115310
     54          1           0       12.695642    2.247622    1.574202
     55          1           0      -12.580329   -2.047558   -1.865220
     56          1           0       13.659766   -0.155676    1.185916
     57          1           0       -9.320890   -1.122090    0.226126
     58          1           0       13.537459   -0.987337   -0.881582
     59          1           0       13.317051    0.427762   -1.665428
     60          1           0        9.152178    1.965257    1.463881
     61          1           0        9.775086    2.620513    0.137448
     62          1           0       10.336534    3.234046    1.523535
     63          1           0       11.787020   -0.428074    2.359698
     64          1           0       10.000129   -0.044494    2.799857
     65          1           0       11.361738    1.093168    3.064303
     66          1           0      -10.173784    0.275136   -2.555283
     67          1           0      -11.856035    0.998359   -2.746537
     68          1           0      -11.525768   -0.996132   -3.416495
     69          1           0      -14.758814   -2.297185   -0.157627
     70          1           0        8.540041    0.281264    0.695510
     71          1           0       -9.013309    1.875649    0.048537
     72          1           0       11.454041   -2.487379   -1.533822
     73          1           0       10.117930   -1.525687   -2.196138
     74          1           0       11.812067   -1.237705   -2.757935
     75          1           0       15.059682    1.842773    0.924929
     76          1           0        9.372957   -2.643838   -0.544029
     77          1           0       -5.516122   -0.926223    0.370125
     78          1           0       -6.931763   -1.413611    1.205950
     79          1           0       -7.016563   -1.558737   -0.595184
     80          1           0       -6.649213    2.501769   -0.773289
     81          1           0        6.516815   -3.890496    0.945243
     82          1           0        6.847193   -4.177141   -0.981652
     83          1           0        8.183466   -4.195865    0.235747
     84          1           0        6.564621   -0.279204   -0.660371
     85          1           0       -4.558036    0.530668   -0.284563
     86          1           0        4.758590   -2.481829    0.436093
     87          1           0       -4.433536    3.538785   -1.034726
     88          1           0        4.276602    0.292610   -0.824756
     89          1           0       -0.940233    3.827280   -1.709493
     90          1           0       -1.442391    4.081009   -0.144253
     91          1           0       -2.618464    4.518003   -1.468092
     92          1           0       -2.342003    0.458342   -0.202931
     93          1           0        2.273869    1.063467   -0.671187
     94          1           0        2.786966   -2.487154    1.251294
     95          1           0        1.108636   -2.209730    0.658569
     96          1           0        2.184044   -3.011086   -0.538440
     97          1           0        0.194273    2.284058   -0.692296
     98          1           0        0.104175   -0.911753   -0.093376
 ---------------------------------------------------------------------

 SCF Done:  E(RCAM-B3LYP) =  -1706.90249701     A.U. after   16 cycles

 Excitation energies and oscillator strengths:

 Excited State   1:      Singlet-A      1.9490 eV  636.15 nm  f=3.0844  <S**2>=0.000
     155 ->158         0.14416
     156 ->157         0.69664
     156 <-157        -0.10381
 This state for optimization and/or second-order correction.
 Total Energy, E(TD-HF/TD-DFT) =  -1706.83087337
 Copying the excited state density for this state as the 1-particle RhoCI density.

 The electronic state is 1-A.
 Alpha  occ. eigenvalues --  -19.22054 -19.21206 -10.30821 -10.30797 -10.27813
 Alpha  occ. eigenvalues --  -10.27668 -10.27582 -10.27443 -10.27437 -10.27336
 Alpha  occ. eigenvalues --  -10.27259 -10.27236 -10.27193 -10.27158 -10.27060
 Alpha  occ. eigenvalues --  -10.26874 -10.26869 -10.26502 -10.26448 -10.26331
 Alpha  occ. eigenvalues --  -10.26270 -10.26257 -10.26245 -10.26168 -10.26144
 Alpha  occ. eigenvalues --  -10.26058 -10.26050 -10.26004 -10.25824 -10.25715
 Alpha  occ. eigenvalues --  -10.25542 -10.25286 -10.24875 -10.24785 -10.24622
 Alpha  occ. eigenvalues --  -10.24092 -10.23982 -10.23862 -10.23651 -10.23626
 Alpha  occ. eigenvalues --  -10.23608 -10.23011  -1.06154  -1.06058  -0.94453
 Alpha  occ. eigenvalues --   -0.93319  -0.92461  -0.91285  -0.90191  -0.89729
 Alpha  occ. eigenvalues --   -0.87638  -0.87126  -0.86463  -0.85613  -0.84749
 Alpha  occ. eigenvalues --   -0.82613  -0.81641  -0.80357  -0.80245  -0.77884
 Alpha  occ. eigenvalues --   -0.77827  -0.77137  -0.76634  -0.76349  -0.76030
 Alpha  occ. eigenvalues --   -0.75301  -0.74666  -0.74087  -0.72024  -0.70378
 Alpha  occ. eigenvalues --   -0.68471  -0.68016  -0.66415  -0.65261  -0.63998
 Alpha  occ. eigenvalues --   -0.62785  -0.62291  -0.61012  -0.60622  -0.59972
 Alpha  occ. eigenvalues --   -0.59473  -0.58472  -0.58002  -0.57334  -0.56258
 Alpha  occ. eigenvalues --   -0.55936  -0.55124  -0.54716  -0.54118  -0.53612
 Alpha  occ. eigenvalues --   -0.53378  -0.52494  -0.51894  -0.51683  -0.51066
 Alpha  occ. eigenvalues --   -0.50875  -0.50431  -0.49872  -0.49332  -0.49172
 Alpha  occ. eigenvalues --   -0.48952  -0.48801  -0.48533  -0.48308  -0.48068
 Alpha  occ. eigenvalues --   -0.47600  -0.47170  -0.47068  -0.47016  -0.46746
 Alpha  occ. eigenvalues --   -0.46134  -0.46042  -0.45276  -0.45072  -0.44358
 Alpha  occ. eigenvalues --   -0.44255  -0.43881  -0.43854  -0.43724  -0.43429
 Alpha  occ. eigenvalues --   -0.43197  -0.42644  -0.42270  -0.42125  -0.41833
 Alpha  occ. eigenvalues --   -0.41525  -0.40973  -0.40756  -0.40513  -0.40091
 Alpha  occ. eigenvalues --   -0.40075  -0.39763  -0.39541  -0.39259  -0.39147
 Alpha  occ. eigenvalues --   -0.38906  -0.38561  -0.38368  -0.38113  -0.37964
 Alpha  occ. eigenvalues --   -0.37181  -0.36892  -0.36341  -0.35905  -0.35583
 Alpha  occ. eigenvalues --   -0.35178  -0.34864  -0.33322  -0.32072  -0.31875
 Alpha  occ. eigenvalues --   -0.30886  -0.29587  -0.28683  -0.26642  -0.23119
 Alpha  occ. eigenvalues --   -0.18552
 Alpha virt. eigenvalues --   -0.06266  -0.01095   0.03308   0.05641   0.07071
 Alpha virt. eigenvalues --    0.08601   0.10177   0.11545   0.11923   0.12189
 Alpha virt. eigenvalues --    0.12406   0.12550   0.13026   0.13444   0.13854

 Mulliken charges:
               1
     1  O   -0.540951
     2  O   -0.590815
     3  C    0.037982
     4  C   -0.158486
     5  C   -0.178050
     6  C    0.155941
     7  C    0.125306
     8  C   -0.012872
     9  C   -0.302578
    10  C   -0.265152
    11  C   -0.181485
    12  C   -0.137403
    13  C    0.152413
    14  C    0.095049
    15  C   -0.030269
    16  C   -0.224207
    17  C   -0.025354
    18  C   -0.311307
    19  C   -0.277629
    20  C   -0.342265
    21  C   -0.125096
    22  C   -0.127009
    23  C   -0.331646
    24  C    0.110799
    25  C   -0.111735
    26  C   -0.385384
    27  C    0.055462
    28  C   -0.121805
    29  C   -0.365461
    30  C   -0.103213
    31  C   -0.010650
    32  C   -0.096378
    33  C   -0.144149
    34  C    0.146050
    35  C   -0.103751
    36  C    0.086566
    37  C   -0.390895
    38  C   -0.109351
    39  C   -0.130042
    40  C   -0.361786
    41  C   -0.112782
    42  C   -0.066982
    43  H    0.074146
    44  H    0.108875
    45  H    0.088420
    46  H    0.088816
    47  H    0.091318
    48  H    0.105704
    49  H    0.094557
    50  H    0.099873
    51  H    0.082911
    52  H    0.081249
    53  H    0.113760
    54  H    0.061190
    55  H    0.060514
    56  H    0.076205
    57  H    0.074347
    58  H    0.118353
    59  H    0.128637
    60  H    0.114186
    61  H    0.119067
    62  H    0.083633
    63  H    0.082694
    64  H    0.101579
    65  H    0.103633
    66  H    0.104826
    67  H    0.126975
    68  H    0.076977
    69  H    0.285950
    70  H    0.075963
    71  H    0.079994
    72  H    0.127539
    73  H    0.133043
    74  H    0.122565
    75  H    0.311972
    76  H    0.060877
    77  H    0.092103
    78  H    0.114147
    79  H    0.117109
    80  H    0.072156
    81  H    0.124065
    82  H    0.117797
    83  H    0.115222
    84  H    0.090121
    85  H    0.036974
    86  H    0.080543
    87  H    0.059639
    88  H    0.086861
    89  H    0.132723
    90  H    0.133913
    91  H    0.089270
    92  H    0.089654
    93  H    0.063532
    94  H    0.122368
    95  H    0.112922
    96  H    0.127677
    97  H    0.093645
    98  H    0.078582
 Sum of Mulliken charges =  -0.00000

 Dipole moment (field-independent basis, Debye):
    X=              1.4403    Y=             -1.3693    Z=              0.1157  Tot=              1.9907
 Quadrupole moment (field-independent basis, Debye-Ang):
   XX=           -288.8237   YY=           -240.0853   ZZ=           -262.8670
   XY=             15.1666   XZ=             27.4680   YZ=              2.4232

 Normal termination of Gaussian 16 at Sat Jul 13 10:23:17 2019.
