 Gaussian 16, Revision A.03,
 Gaussian 16:  ES64L-G16RevA.03 25-Dec-2016

 -------------------------------------
 # td=(NStates=1) CAM-B3LYP/6-31G(d,p)
 -------------------------------------

 --
 TD
 --
 Symbolic Z-matrix:
 Charge =  0 Multiplicity = 1

                         Standard orientation:
 ---------------------------------------------------------------------
 Center     Atomic      Atomic             Coordinates (Angstroms)
 Number     Number       Type             X           Y           Z
 ---------------------------------------------------------------------
      1          8           0      -14.191500   -1.882222    0.378990
      2          8           0       14.797769    0.935804    0.086246
      3          6           0      -11.830165    0.021078    1.309922
      4          6           0      -10.948029    0.253794   -0.011636
      5          6           0      -12.102932   -1.453461    1.404048
      6          6           0      -12.785240   -2.101346    0.221528
      7          6           0      -11.675727   -0.281598   -1.225654
      8          6           0       11.196349    0.955854    1.065839
      9          6           0      -11.056391    0.400493    2.553064
     10          6           0      -13.112073    0.918066    1.269065
     11          6           0       12.508141    1.692205    0.801114
     12          6           0      -12.350374   -1.459769   -1.089142
     13          6           0       13.516500    0.541680    0.326590
     14          6           0       10.693404    0.007434   -0.053797
     15          6           0       -9.569374   -0.076366    0.150947
     16          6           0       12.989971   -0.215424   -0.931574
     17          6           0       11.519292   -0.495984   -0.856639
     18          6           0       10.103692    2.178794    1.192130
     19          6           0       11.280944    0.349145    2.470780
     20          6           0      -11.267783    0.261587   -2.582499
     21          6           0       -8.551551    0.730337    0.021680
     22          6           0        9.315922   -0.472836    0.093626
     23          6           0       11.262819   -1.549893   -1.957550
     24          6           0       -7.133758    0.506774   -0.147526
     25          6           0        8.833748   -1.720090   -0.266706
     26          6           0       -6.678360   -0.951877    0.104461
     27          6           0        7.449703   -2.132522   -0.184021
     28          6           0       -6.212326    1.511671   -0.266050
     29          6           0        7.168363   -3.621721   -0.018074
     30          6           0        6.422975   -1.262386   -0.234660
     31          6           0       -4.795086    1.449536   -0.277078
     32          6           0        5.003283   -1.508936   -0.086519
     33          6           0       -4.055374    2.541662   -0.601517
     34          6           0       -2.629451    2.557931   -0.704751
     35          6           0        4.007982   -0.591504   -0.247652
     36          6           0        2.656256   -0.863878   -0.082688
     37          6           0       -2.118654    3.811223   -1.221863
     38          6           0       -1.776044    1.366281   -0.555670
     39          6           0        1.807476    0.330256   -0.318388
     40          6           0        2.136753   -2.117507    0.357631
     41          6           0       -0.330055    1.459155   -0.514451
     42          6           0        0.387703    0.266084   -0.331810
     43          1           0      -10.998975    1.243102   -0.220282
     44          1           0      -12.548208   -1.917893    2.218121
     45          1           0      -10.946518   -1.909171    1.401686
     46          1           0      -12.665701   -3.051451    0.068846
     47          1           0      -10.112832   -0.425513    2.833211
     48          1           0      -10.386388    1.485928    2.509628
     49          1           0      -11.567870    0.232288    3.539391
     50          1           0      -14.066705    0.519734    0.553096
     51          1           0      -13.820394    0.866967    2.050151
     52          1           0      -12.917330    1.890692    0.917479
     53          1           0       12.600400    2.515531    0.216413
     54          1           0       12.970571    2.369969    1.725694
     55          1           0      -12.719268   -1.772928   -2.047469
     56          1           0       13.469321   -0.269249    1.120180
     57          1           0       -9.389011   -1.197289    0.498820
     58          1           0       13.685552   -1.008587   -1.254803
     59          1           0       13.297848    0.575834   -1.677933
     60          1           0        9.260451    1.749931    1.773202
     61          1           0        9.925946    2.652274    0.078323
     62          1           0       10.730909    2.959510    1.762173
     63          1           0       11.943237   -0.448508    2.660863
     64          1           0       10.275160   -0.234477    2.726681
     65          1           0       11.454228    1.112097    3.265503
     66          1           0      -10.193672    0.261743   -2.775983
     67          1           0      -11.517765    1.280923   -2.808933
     68          1           0      -12.016642   -0.352329   -3.275863
     69          1           0      -14.761470   -2.272399   -0.528088
     70          1           0        8.521770    0.540532    0.173572
     71          1           0       -8.672798    1.634362   -0.397265
     72          1           0       11.409231   -2.644262   -1.744325
     73          1           0       10.250391   -1.402362   -2.363082
     74          1           0       12.093866   -1.542082   -2.936487
     75          1           0       15.247838    1.356131    0.726875
     76          1           0        9.596410   -2.495430   -0.305255
     77          1           0       -5.599845   -1.146569   -0.094357
     78          1           0       -6.804324   -1.139010    1.307221
     79          1           0       -7.250954   -1.616646   -0.588256
     80          1           0       -6.672244    2.567341   -0.153896
     81          1           0        7.010563   -3.739828    1.080703
     82          1           0        6.143703   -3.785361   -0.394197
     83          1           0        7.951769   -4.369790   -0.662227
     84          1           0        6.828668   -0.151136   -0.340382
     85          1           0       -4.344347    0.640654    0.012579
     86          1           0        4.897522   -2.478683    0.243884
     87          1           0       -4.785867    3.506210   -0.902755
     88          1           0        4.315128    0.359869   -0.658849
     89          1           0       -1.307339    4.021377   -2.214793
     90          1           0       -1.466843    4.495452   -0.660116
     91          1           0       -2.955855    4.728995   -1.449979
     92          1           0       -2.139043    0.522091   -0.469226
     93          1           0        2.272047    1.219644   -0.405952
     94          1           0        2.702077   -2.456684    1.228872
     95          1           0        1.127062   -2.196685    0.724236
     96          1           0        2.325939   -2.894390   -0.415910
     97          1           0        0.156300    2.331425   -0.651166
     98          1           0       -0.381028   -0.554210   -0.188527
 ---------------------------------------------------------------------

 SCF Done:  E(RCAM-B3LYP) =  -1706.80173460     A.U. after   15 cycles

 Excitation energies and oscillator strengths:

 Excited State   1:      Singlet-A      2.0436 eV  606.69 nm  f=2.8537  <S**2>=0.000
     155 ->158         0.13579
     156 ->157         0.69714
     156 <-157        -0.10047
 This state for optimization and/or second-order correction.
 Total Energy, E(TD-HF/TD-DFT) =  -1706.72663302
 Copying the excited state density for this state as the 1-particle RhoCI density.

 The electronic state is 1-A.
 Alpha  occ. eigenvalues --  -19.21862 -19.20355 -10.30336 -10.29477 -10.28642
 Alpha  occ. eigenvalues --  -10.28182 -10.28013 -10.27856 -10.27792 -10.27720
 Alpha  occ. eigenvalues --  -10.27484 -10.27289 -10.27279 -10.27232 -10.27001
 Alpha  occ. eigenvalues --  -10.26791 -10.26743 -10.26674 -10.26668 -10.26572
 Alpha  occ. eigenvalues --  -10.26532 -10.26501 -10.26348 -10.26103 -10.26084
 Alpha  occ. eigenvalues --  -10.26047 -10.26039 -10.25990 -10.25953 -10.25892
 Alpha  occ. eigenvalues --  -10.25692 -10.25652 -10.25579 -10.25534 -10.25404
 Alpha  occ. eigenvalues --  -10.25079 -10.25026 -10.24985 -10.24854 -10.24552
 Alpha  occ. eigenvalues --  -10.24192 -10.23818  -1.11881  -1.06833  -0.93777
 Alpha  occ. eigenvalues --   -0.93724  -0.92384  -0.91651  -0.90417  -0.89819
 Alpha  occ. eigenvalues --   -0.87680  -0.86572  -0.86378  -0.85345  -0.84473
 Alpha  occ. eigenvalues --   -0.82858  -0.82222  -0.80358  -0.79162  -0.79078
 Alpha  occ. eigenvalues --   -0.76266  -0.76062  -0.76006  -0.75332  -0.75162
 Alpha  occ. eigenvalues --   -0.74945  -0.73945  -0.73564  -0.72743  -0.70440
 Alpha  occ. eigenvalues --   -0.69378  -0.68300  -0.67194  -0.65328  -0.64411
 Alpha  occ. eigenvalues --   -0.64065  -0.63715  -0.62725  -0.61555  -0.60717
 Alpha  occ. eigenvalues --   -0.59351  -0.59176  -0.57752  -0.57619  -0.56489
 Alpha  occ. eigenvalues --   -0.55824  -0.55378  -0.55311  -0.53942  -0.53723
 Alpha  occ. eigenvalues --   -0.53430  -0.53213  -0.52225  -0.51825  -0.51434
 Alpha  occ. eigenvalues --   -0.50481  -0.49945  -0.49711  -0.49527  -0.49027
 Alpha  occ. eigenvalues --   -0.48822  -0.48461  -0.47967  -0.47670  -0.47517
 Alpha  occ. eigenvalues --   -0.47042  -0.46754  -0.46582  -0.46193  -0.46012
 Alpha  occ. eigenvalues --   -0.45917  -0.45478  -0.45356  -0.45001  -0.44629
 Alpha  occ. eigenvalues --   -0.44075  -0.43876  -0.43637  -0.43297  -0.43230
 Alpha  occ. eigenvalues --   -0.42871  -0.42196  -0.42009  -0.41636  -0.41501
 Alpha  occ. eigenvalues --   -0.41329  -0.41136  -0.40723  -0.40014  -0.39901
 Alpha  occ. eigenvalues --   -0.39732  -0.39557  -0.39443  -0.39065  -0.38571
 Alpha  occ. eigenvalues --   -0.38495  -0.38244  -0.37798  -0.37441  -0.37164
 Alpha  occ. eigenvalues --   -0.37058  -0.36623  -0.36480  -0.35833  -0.35467
 Alpha  occ. eigenvalues --   -0.35276  -0.33668  -0.33046  -0.31783  -0.31420
 Alpha  occ. eigenvalues --   -0.30535  -0.29532  -0.28843  -0.27018  -0.24142
 Alpha  occ. eigenvalues --   -0.19145
 Alpha virt. eigenvalues --   -0.06267  -0.00893   0.02544   0.05260   0.06492
 Alpha virt. eigenvalues --    0.08829   0.09341   0.10912   0.11703   0.11896
 Alpha virt. eigenvalues --    0.12318   0.12625   0.12893   0.13198   0.13440

 Mulliken charges:
               1
     1  O   -0.557310
     2  O   -0.544331
     3  C    0.053318
     4  C   -0.144421
     5  C   -0.168788
     6  C    0.186948
     7  C    0.104420
     8  C   -0.019598
     9  C   -0.278061
    10  C   -0.313048
    11  C   -0.186830
    12  C   -0.135222
    13  C    0.173686
    14  C    0.093930
    15  C   -0.042237
    16  C   -0.236492
    17  C    0.080043
    18  C   -0.306184
    19  C   -0.296961
    20  C   -0.358682
    21  C   -0.083507
    22  C   -0.107672
    23  C   -0.371843
    24  C    0.073720
    25  C   -0.124328
    26  C   -0.357823
    27  C    0.086395
    28  C   -0.137911
    29  C   -0.373884
    30  C   -0.104117
    31  C   -0.024319
    32  C   -0.103689
    33  C   -0.124811
    34  C    0.104583
    35  C   -0.096644
    36  C    0.124619
    37  C   -0.383475
    38  C   -0.086843
    39  C   -0.136122
    40  C   -0.389511
    41  C   -0.049336
    42  C   -0.083135
    43  H    0.086463
    44  H    0.113960
    45  H    0.063221
    46  H    0.088481
    47  H    0.050983
    48  H    0.079241
    49  H    0.108654
    50  H    0.089170
    51  H    0.114470
    52  H    0.102826
    53  H    0.106751
    54  H    0.047107
    55  H    0.053873
    56  H    0.059341
    57  H    0.076435
    58  H    0.118239
    59  H    0.114881
    60  H    0.114801
    61  H    0.089975
    62  H    0.089288
    63  H    0.115622
    64  H    0.083367
    65  H    0.103607
    66  H    0.130442
    67  H    0.116570
    68  H    0.089344
    69  H    0.297033
    70  H    0.072540
    71  H    0.070568
    72  H    0.117184
    73  H    0.126741
    74  H    0.065322
    75  H    0.292785
    76  H    0.099381
    77  H    0.098771
    78  H    0.105395
    79  H    0.116705
    80  H    0.074543
    81  H    0.131256
    82  H    0.118407
    83  H    0.095555
    84  H    0.060371
    85  H    0.074749
    86  H    0.071405
    87  H    0.081142
    88  H    0.089750
    89  H    0.083400
    90  H    0.128935
    91  H    0.087267
    92  H    0.051235
    93  H    0.089298
    94  H    0.126095
    95  H    0.121313
    96  H    0.123019
    97  H    0.077823
    98  H    0.090371
 Sum of Mulliken charges =  -0.00000

 Dipole moment (field-independent basis, Debye):
    X=              0.2585    Y=             -1.1646    Z=              0.1857  Tot=              1.2073
 Quadrupole moment (field-independent basis, Debye-Ang):
   XX=           -257.9218   YY=           -242.1951   ZZ=           -264.8567
   XY=             13.8826   XZ=             34.5656   YZ=              0.5518

 Normal termination of Gaussian 16 at Sun Jul 14 02:05:27 2019.
