 Gaussian 16, Revision A.03,
 Gaussian 16:  ES64L-G16RevA.03 25-Dec-2016

 -------------------------------------
 # td=(NStates=1) CAM-B3LYP/6-31G(d,p)
 -------------------------------------

 --
 TD
 --
 Symbolic Z-matrix:
 Charge =  0 Multiplicity = 1

                         Standard orientation:
 ---------------------------------------------------------------------
 Center     Atomic      Atomic             Coordinates (Angstroms)
 Number     Number       Type             X           Y           Z
 ---------------------------------------------------------------------
      1          8           0      -13.928352   -2.175174    0.488655
      2          8           0       14.848526    0.749738   -0.067333
      3          6           0      -11.667969   -0.122917    1.264985
      4          6           0      -10.961518    0.249779    0.013567
      5          6           0      -11.795668   -1.510104    1.345898
      6          6           0      -12.661918   -2.128212    0.126113
      7          6           0      -11.583568   -0.361118   -1.218962
      8          6           0       11.196954    1.049226    0.987624
      9          6           0      -10.948222    0.321996    2.420091
     10          6           0      -13.032799    0.614093    1.335644
     11          6           0       12.597135    1.529382    0.628103
     12          6           0      -12.398747   -1.481026   -1.115373
     13          6           0       13.493943    0.261645    0.270992
     14          6           0       10.628805   -0.093741   -0.015596
     15          6           0       -9.424413   -0.064507   -0.050737
     16          6           0       12.980311   -0.401350   -0.894593
     17          6           0       11.498288   -0.690688   -0.941095
     18          6           0       10.279270    2.275476    1.019837
     19          6           0       11.216964    0.278162    2.319149
     20          6           0      -11.395859    0.323831   -2.555694
     21          6           0       -8.500533    0.841623   -0.245796
     22          6           0        9.258992   -0.446005    0.081590
     23          6           0       10.960570   -1.585510   -1.975676
     24          6           0       -7.051147    0.521978   -0.228878
     25          6           0        8.768825   -1.694743   -0.010792
     26          6           0       -6.618991   -0.965896    0.078882
     27          6           0        7.327472   -2.118092    0.016751
     28          6           0       -6.192856    1.518811   -0.420910
     29          6           0        6.996717   -3.594965   -0.249675
     30          6           0        6.398434   -1.150052    0.043027
     31          6           0       -4.753513    1.553640   -0.395857
     32          6           0        4.958779   -1.403420    0.016170
     33          6           0       -4.050779    2.653913   -0.642493
     34          6           0       -2.669255    2.804041   -0.578526
     35          6           0        3.960397   -0.487376   -0.071654
     36          6           0        2.551883   -0.652629   -0.002106
     37          6           0       -2.027580    4.110112   -0.854834
     38          6           0       -1.800986    1.686269   -0.228256
     39          6           0        1.676558    0.421236   -0.180644
     40          6           0        2.010364   -2.102482    0.202418
     41          6           0       -0.410922    1.663449   -0.371602
     42          6           0        0.302906    0.429135   -0.127580
     43          1           0      -11.116757    1.149162   -0.162830
     44          1           0      -12.160695   -2.099704    2.350602
     45          1           0      -10.824867   -2.012084    1.362999
     46          1           0      -12.176641   -3.177919    0.044029
     47          1           0       -9.923726   -0.179778    2.662135
     48          1           0      -10.809569    1.514981    2.399111
     49          1           0      -11.451463    0.038207    3.289093
     50          1           0      -13.841925    0.468440    0.522889
     51          1           0      -13.589771    0.229205    2.262604
     52          1           0      -13.046350    1.701769    1.487923
     53          1           0       12.623211    2.184675   -0.226799
     54          1           0       12.963251    2.155658    1.333095
     55          1           0      -12.937559   -1.913090   -2.119786
     56          1           0       13.559505   -0.562570    1.162334
     57          1           0       -8.995284   -1.046761   -0.230739
     58          1           0       13.745391   -1.319505   -0.936896
     59          1           0       13.149363    0.216066   -1.979435
     60          1           0        9.224339    2.057486    1.240178
     61          1           0       10.283415    2.560170   -0.108535
     62          1           0       10.641172    2.972648    1.715200
     63          1           0       11.953848   -0.350429    2.581193
     64          1           0       10.026081   -0.157991    2.629911
     65          1           0       11.477325    1.180807    3.084424
     66          1           0      -10.165865    0.468667   -2.680106
     67          1           0      -11.908177    1.214798   -2.705888
     68          1           0      -11.590510   -0.279477   -3.494508
     69          1           0      -14.451485   -2.583296   -0.302028
     70          1           0        8.787762    0.499853    0.565804
     71          1           0       -8.642449    1.849440   -0.321167
     72          1           0       10.983526   -2.739988   -1.664565
     73          1           0        9.974350   -1.146987   -2.457567
     74          1           0       11.432202   -1.388879   -3.018947
     75          1           0       15.305618    1.085238    0.851574
     76          1           0        9.410544   -2.514389   -0.076985
     77          1           0       -5.473973   -0.872320    0.070849
     78          1           0       -7.377439   -1.090360    0.968388
     79          1           0       -6.810541   -1.534406   -0.757965
     80          1           0       -6.672229    2.420466   -0.465587
     81          1           0        6.822862   -4.286995    0.795183
     82          1           0        5.900890   -3.653659   -0.802943
     83          1           0        7.761652   -4.254002   -0.775339
     84          1           0        6.800655   -0.147373    0.109876
     85          1           0       -4.268923    0.646512    0.080740
     86          1           0        4.546762   -2.465322   -0.053150
     87          1           0       -4.546676    3.659694   -0.732733
     88          1           0        4.258678    0.442652   -0.085810
     89          1           0       -1.738016    3.943393   -1.883423
     90          1           0       -1.379443    4.390020   -0.058510
     91          1           0       -2.685976    4.817716   -0.941072
     92          1           0       -2.341288    0.727354   -0.386894
     93          1           0        2.068568    1.419782   -0.507451
     94          1           0        2.637339   -2.619522    1.066777
     95          1           0        0.993959   -1.969346    0.457144
     96          1           0        2.010764   -2.706141   -0.598692
     97          1           0       -0.010793    2.560753   -0.676636
     98          1           0       -0.463991   -0.417627   -0.012713
 ---------------------------------------------------------------------

 SCF Done:  E(RCAM-B3LYP) =  -1706.86750674     A.U. after   15 cycles

 Excitation energies and oscillator strengths:

 Excited State   1:      Singlet-A      2.0819 eV  595.53 nm  f=2.8278  <S**2>=0.000
     155 ->158         0.13731
     156 ->157         0.69512
     156 <-157        -0.10072
 This state for optimization and/or second-order correction.
 Total Energy, E(TD-HF/TD-DFT) =  -1706.79099730
 Copying the excited state density for this state as the 1-particle RhoCI density.

 The electronic state is 1-A.
 Alpha  occ. eigenvalues --  -19.22108 -19.21860 -10.31766 -10.30062 -10.28519
 Alpha  occ. eigenvalues --  -10.27789 -10.27264 -10.27121 -10.27090 -10.27081
 Alpha  occ. eigenvalues --  -10.27060 -10.27044 -10.26866 -10.26837 -10.26613
 Alpha  occ. eigenvalues --  -10.26582 -10.26530 -10.26354 -10.26310 -10.26293
 Alpha  occ. eigenvalues --  -10.26178 -10.26099 -10.26098 -10.25829 -10.25783
 Alpha  occ. eigenvalues --  -10.25771 -10.25746 -10.25651 -10.25551 -10.25448
 Alpha  occ. eigenvalues --  -10.25384 -10.25330 -10.25179 -10.25126 -10.25010
 Alpha  occ. eigenvalues --  -10.24737 -10.24685 -10.24515 -10.24390 -10.24329
 Alpha  occ. eigenvalues --  -10.24042 -10.24010  -1.12465  -1.06022  -0.95772
 Alpha  occ. eigenvalues --   -0.93059  -0.92580  -0.91213  -0.90723  -0.89590
 Alpha  occ. eigenvalues --   -0.87675  -0.87178  -0.86705  -0.85599  -0.84729
 Alpha  occ. eigenvalues --   -0.82932  -0.81857  -0.80503  -0.79587  -0.78418
 Alpha  occ. eigenvalues --   -0.77452  -0.77022  -0.76223  -0.75955  -0.75433
 Alpha  occ. eigenvalues --   -0.75326  -0.74335  -0.74219  -0.72740  -0.70765
 Alpha  occ. eigenvalues --   -0.68128  -0.67789  -0.66291  -0.64082  -0.63654
 Alpha  occ. eigenvalues --   -0.63419  -0.62802  -0.62575  -0.60662  -0.60294
 Alpha  occ. eigenvalues --   -0.59490  -0.59149  -0.57750  -0.56791  -0.55919
 Alpha  occ. eigenvalues --   -0.55533  -0.55136  -0.54858  -0.54569  -0.53875
 Alpha  occ. eigenvalues --   -0.53716  -0.53402  -0.53116  -0.52400  -0.52160
 Alpha  occ. eigenvalues --   -0.51381  -0.50810  -0.50595  -0.49675  -0.49364
 Alpha  occ. eigenvalues --   -0.48910  -0.48248  -0.48134  -0.47836  -0.47647
 Alpha  occ. eigenvalues --   -0.47615  -0.47311  -0.46658  -0.46277  -0.46058
 Alpha  occ. eigenvalues --   -0.45623  -0.45549  -0.45159  -0.44682  -0.44536
 Alpha  occ. eigenvalues --   -0.44227  -0.44128  -0.44020  -0.43530  -0.43135
 Alpha  occ. eigenvalues --   -0.43054  -0.42780  -0.42368  -0.41909  -0.41645
 Alpha  occ. eigenvalues --   -0.41196  -0.40934  -0.40427  -0.40406  -0.40257
 Alpha  occ. eigenvalues --   -0.40180  -0.39974  -0.39262  -0.39126  -0.38932
 Alpha  occ. eigenvalues --   -0.38808  -0.38496  -0.38328  -0.37907  -0.37709
 Alpha  occ. eigenvalues --   -0.37507  -0.37000  -0.36407  -0.36099  -0.35382
 Alpha  occ. eigenvalues --   -0.35020  -0.34575  -0.34095  -0.31917  -0.31770
 Alpha  occ. eigenvalues --   -0.31528  -0.29254  -0.28150  -0.26566  -0.23452
 Alpha  occ. eigenvalues --   -0.18934
 Alpha virt. eigenvalues --   -0.05887  -0.00614   0.02773   0.05361   0.07112
 Alpha virt. eigenvalues --    0.08680   0.09774   0.11273   0.11635   0.11783
 Alpha virt. eigenvalues --    0.12433   0.12773   0.13227   0.13479   0.14129

 Mulliken charges:
               1
     1  O   -0.506586
     2  O   -0.572689
     3  C    0.041958
     4  C   -0.057202
     5  C   -0.188209
     6  C    0.150538
     7  C    0.078050
     8  C   -0.024516
     9  C   -0.289433
    10  C   -0.313192
    11  C   -0.175702
    12  C   -0.120976
    13  C    0.157614
    14  C    0.045011
    15  C   -0.121079
    16  C   -0.188402
    17  C    0.064126
    18  C   -0.306347
    19  C   -0.260542
    20  C   -0.360844
    21  C   -0.038996
    22  C   -0.095500
    23  C   -0.366921
    24  C    0.054530
    25  C   -0.096277
    26  C   -0.361840
    27  C    0.114422
    28  C   -0.114951
    29  C   -0.361276
    30  C   -0.107030
    31  C   -0.087213
    32  C   -0.108959
    33  C   -0.100739
    34  C    0.038268
    35  C   -0.072109
    36  C    0.075206
    37  C   -0.361357
    38  C   -0.129995
    39  C   -0.121247
    40  C   -0.366247
    41  C   -0.082507
    42  C   -0.089580
    43  H    0.079267
    44  H    0.083186
    45  H    0.097940
    46  H    0.044402
    47  H    0.084369
    48  H    0.071901
    49  H    0.108923
    50  H    0.107171
    51  H    0.099552
    52  H    0.093099
    53  H    0.108545
    54  H    0.086822
    55  H    0.057034
    56  H    0.071261
    57  H    0.095634
    58  H    0.101736
    59  H    0.089696
    60  H    0.105086
    61  H    0.103803
    62  H    0.110626
    63  H    0.118239
    64  H    0.078616
    65  H    0.050303
    66  H    0.085320
    67  H    0.129104
    68  H    0.109867
    69  H    0.306359
    70  H    0.070996
    71  H    0.071453
    72  H    0.106842
    73  H    0.118013
    74  H    0.088919
    75  H    0.304710
    76  H    0.082764
    77  H    0.099341
    78  H    0.126706
    79  H    0.138753
    80  H    0.067107
    81  H    0.084346
    82  H    0.104127
    83  H    0.115550
    84  H    0.088639
    85  H    0.101483
    86  H    0.072868
    87  H    0.081803
    88  H    0.056059
    89  H    0.138289
    90  H    0.133915
    91  H    0.109320
    92  H    0.075461
    93  H    0.088496
    94  H    0.100518
    95  H    0.110124
    96  H    0.135020
    97  H    0.088648
    98  H    0.090607
 Sum of Mulliken charges =  -0.00000

 Dipole moment (field-independent basis, Debye):
    X=             -1.4922    Y=              0.7085    Z=             -0.6094  Tot=              1.7607
 Quadrupole moment (field-independent basis, Debye-Ang):
   XX=           -259.8215   YY=           -241.9119   ZZ=           -263.2361
   XY=              3.8600   XZ=             40.9665   YZ=              2.7150

 Normal termination of Gaussian 16 at Sun Jul 14 10:45:05 2019.
