 Gaussian 16, Revision A.03,
 Gaussian 16:  ES64L-G16RevA.03 25-Dec-2016

 -------------------------------------
 # td=(NStates=1) CAM-B3LYP/6-31G(d,p)
 -------------------------------------

 --
 TD
 --
 Symbolic Z-matrix:
 Charge =  0 Multiplicity = 1

                         Standard orientation:
 ---------------------------------------------------------------------
 Center     Atomic      Atomic             Coordinates (Angstroms)
 Number     Number       Type             X           Y           Z
 ---------------------------------------------------------------------
      1          8           0      -14.213598   -1.782573    0.514687
      2          8           0       14.808421    0.862186    0.460861
      3          6           0      -11.769060   -0.012848    1.379706
      4          6           0      -10.958526    0.300484    0.055649
      5          6           0      -12.130810   -1.443707    1.445184
      6          6           0      -12.850479   -2.022175    0.249245
      7          6           0      -11.611526   -0.355267   -1.152751
      8          6           0       11.017695    0.999559    1.112170
      9          6           0      -10.960216    0.489074    2.628697
     10          6           0      -13.030646    0.911963    1.323878
     11          6           0       12.565898    1.566642    0.941962
     12          6           0      -12.352392   -1.479372   -1.004439
     13          6           0       13.385417    0.414668    0.494853
     14          6           0       10.649847   -0.031844   -0.012022
     15          6           0       -9.522751   -0.047730    0.070470
     16          6           0       12.986967   -0.138949   -0.843335
     17          6           0       11.522159   -0.475225   -0.828199
     18          6           0       10.104320    2.339030    0.886069
     19          6           0       10.775064    0.461671    2.422764
     20          6           0      -11.198677    0.251201   -2.554646
     21          6           0       -8.527879    0.738052   -0.135330
     22          6           0        9.235622   -0.494328    0.145941
     23          6           0       11.296981   -1.385459   -2.000879
     24          6           0       -7.145827    0.419959   -0.150790
     25          6           0        8.845752   -1.739660   -0.101370
     26          6           0       -6.697761   -0.971901    0.164675
     27          6           0        7.473508   -2.190010   -0.029835
     28          6           0       -6.159194    1.438475   -0.360964
     29          6           0        7.213500   -3.604648    0.335016
     30          6           0        6.451742   -1.278309   -0.326056
     31          6           0       -4.793519    1.426400   -0.324620
     32          6           0        5.045539   -1.507118   -0.229941
     33          6           0       -3.974166    2.480803   -0.603461
     34          6           0       -2.554943    2.521230   -0.852253
     35          6           0        4.065120   -0.574893   -0.407029
     36          6           0        2.660785   -0.777474   -0.327753
     37          6           0       -1.814498    3.745161   -1.092870
     38          6           0       -1.707561    1.424606   -0.584101
     39          6           0        1.761722    0.280819   -0.491726
     40          6           0        2.102193   -2.208706   -0.213113
     41          6           0       -0.415554    1.356901   -0.738826
     42          6           0        0.354144    0.272408   -0.467502
     43          1           0      -10.834113    1.602251    0.025776
     44          1           0      -12.737887   -1.796336    2.381106
     45          1           0      -11.023508   -1.884981    1.631366
     46          1           0      -12.537013   -3.169300    0.310691
     47          1           0       -9.906606    0.009265    2.673505
     48          1           0      -10.964590    1.660608    2.460123
     49          1           0      -11.477412    0.479012    3.604374
     50          1           0      -13.590058    0.675291    0.419786
     51          1           0      -13.644196    0.503740    2.158678
     52          1           0      -12.407621    1.951888    1.497067
     53          1           0       12.496985    2.202726    0.171733
     54          1           0       12.628024    2.186323    1.900952
     55          1           0      -12.991524   -1.822324   -1.856840
     56          1           0       13.107654   -0.455937    1.314721
     57          1           0       -9.091714   -1.121193    0.171045
     58          1           0       13.660760   -1.005079   -1.244728
     59          1           0       13.382612    0.720106   -1.417633
     60          1           0        9.112806    2.174727    1.239730
     61          1           0       10.150198    2.720149   -0.100378
     62          1           0       10.568741    3.268543    1.613806
     63          1           0       11.368876   -0.558216    2.598310
     64          1           0        9.714126    0.338213    2.681597
     65          1           0       11.275556    1.304762    3.232497
     66          1           0      -10.263159    0.083500   -2.780870
     67          1           0      -11.474259    1.435471   -2.635684
     68          1           0      -11.928989   -0.209100   -3.159064
     69          1           0      -14.711493   -2.126728   -0.344956
     70          1           0        8.516909    0.398555    0.057516
     71          1           0       -8.649552    1.854149   -0.238482
     72          1           0       11.587953   -2.468758   -2.039444
     73          1           0       10.224271   -1.584450   -2.139960
     74          1           0       11.752769   -0.823676   -2.964792
     75          1           0       15.121712    0.977294    1.319628
     76          1           0        9.567060   -2.580283   -0.087897
     77          1           0       -5.675893   -1.309466    0.476536
     78          1           0       -7.222012   -1.255208    0.981844
     79          1           0       -7.004445   -1.587135   -0.740761
     80          1           0       -6.769937    2.314920   -0.489609
     81          1           0        6.935250   -3.770671    1.471372
     82          1           0        6.219022   -4.059110   -0.359961
     83          1           0        8.178699   -4.403536    0.136670
     84          1           0        7.102201   -0.473254   -0.650827
     85          1           0       -4.368119    0.231419   -0.072290
     86          1           0        4.835843   -2.440338   -0.181971
     87          1           0       -4.428880    3.597555   -0.778527
     88          1           0        4.435284    0.493180   -0.612562
     89          1           0       -1.260587    3.705627   -2.078745
     90          1           0       -0.952317    4.320640   -0.537157
     91          1           0       -2.579691    4.636037   -1.165642
     92          1           0       -2.377667    0.510597   -0.467130
     93          1           0        1.976007    1.382358   -0.707729
     94          1           0        2.337659   -2.559147    0.783763
     95          1           0        1.139675   -2.210489   -0.244090
     96          1           0        2.533430   -2.847947   -0.996949
     97          1           0        0.149022    2.384136   -0.670727
     98          1           0        0.007622   -0.834169   -0.287995
 ---------------------------------------------------------------------

 SCF Done:  E(RCAM-B3LYP) =  -1706.85000197     A.U. after   15 cycles

 Excitation energies and oscillator strengths:

 Excited State   1:      Singlet-A      2.0431 eV  606.84 nm  f=3.0108  <S**2>=0.000
     155 ->158         0.13529
     156 ->157         0.69777
     156 <-157        -0.10137
 This state for optimization and/or second-order correction.
 Total Energy, E(TD-HF/TD-DFT) =  -1706.77491943
 Copying the excited state density for this state as the 1-particle RhoCI density.

 The electronic state is 1-A.
 Alpha  occ. eigenvalues --  -19.23374 -19.20184 -10.31422 -10.31410 -10.29721
 Alpha  occ. eigenvalues --  -10.28633 -10.28587 -10.28289 -10.28252 -10.28160
 Alpha  occ. eigenvalues --  -10.27676 -10.27644 -10.27432 -10.27345 -10.27144
 Alpha  occ. eigenvalues --  -10.27017 -10.26789 -10.26786 -10.26739 -10.26622
 Alpha  occ. eigenvalues --  -10.26570 -10.26558 -10.26268 -10.26138 -10.26108
 Alpha  occ. eigenvalues --  -10.26044 -10.25996 -10.25973 -10.25948 -10.25903
 Alpha  occ. eigenvalues --  -10.25896 -10.25792 -10.25759 -10.25739 -10.25666
 Alpha  occ. eigenvalues --  -10.25589 -10.25539 -10.25290 -10.25284 -10.24862
 Alpha  occ. eigenvalues --  -10.24646 -10.24356  -1.10099  -1.07821  -0.94158
 Alpha  occ. eigenvalues --   -0.93917  -0.92826  -0.91954  -0.91451  -0.90521
 Alpha  occ. eigenvalues --   -0.88085  -0.86977  -0.86616  -0.86358  -0.85329
 Alpha  occ. eigenvalues --   -0.83782  -0.82905  -0.80953  -0.80235  -0.79143
 Alpha  occ. eigenvalues --   -0.77208  -0.76523  -0.76385  -0.75870  -0.75540
 Alpha  occ. eigenvalues --   -0.75327  -0.74981  -0.73751  -0.73004  -0.70990
 Alpha  occ. eigenvalues --   -0.68972  -0.67685  -0.66632  -0.64724  -0.63504
 Alpha  occ. eigenvalues --   -0.63249  -0.62594  -0.61540  -0.60478  -0.59436
 Alpha  occ. eigenvalues --   -0.59216  -0.58952  -0.57717  -0.57054  -0.56278
 Alpha  occ. eigenvalues --   -0.55776  -0.55241  -0.54680  -0.54514  -0.54115
 Alpha  occ. eigenvalues --   -0.53195  -0.52487  -0.52444  -0.51939  -0.51221
 Alpha  occ. eigenvalues --   -0.50935  -0.50441  -0.50363  -0.49813  -0.49520
 Alpha  occ. eigenvalues --   -0.49467  -0.49053  -0.48815  -0.48642  -0.48067
 Alpha  occ. eigenvalues --   -0.47824  -0.47309  -0.46981  -0.46343  -0.46114
 Alpha  occ. eigenvalues --   -0.45982  -0.45333  -0.45117  -0.44857  -0.44617
 Alpha  occ. eigenvalues --   -0.44554  -0.44211  -0.43730  -0.43242  -0.43004
 Alpha  occ. eigenvalues --   -0.42556  -0.42445  -0.41804  -0.41493  -0.41317
 Alpha  occ. eigenvalues --   -0.41225  -0.40968  -0.40853  -0.40774  -0.40517
 Alpha  occ. eigenvalues --   -0.40150  -0.39965  -0.39760  -0.39674  -0.39594
 Alpha  occ. eigenvalues --   -0.39336  -0.38441  -0.38132  -0.38026  -0.37089
 Alpha  occ. eigenvalues --   -0.37049  -0.36908  -0.36711  -0.36271  -0.35311
 Alpha  occ. eigenvalues --   -0.34525  -0.34117  -0.33772  -0.32885  -0.32402
 Alpha  occ. eigenvalues --   -0.31396  -0.30512  -0.29921  -0.27707  -0.24288
 Alpha  occ. eigenvalues --   -0.19417
 Alpha virt. eigenvalues --   -0.06712  -0.01292   0.02343   0.04542   0.06582
 Alpha virt. eigenvalues --    0.09082   0.09868   0.10015   0.10793   0.11257
 Alpha virt. eigenvalues --    0.11372   0.12324   0.12543   0.13254   0.13380

 Mulliken charges:
               1
     1  O   -0.532585
     2  O   -0.573096
     3  C   -0.003443
     4  C   -0.127865
     5  C   -0.165863
     6  C    0.144624
     7  C    0.091798
     8  C   -0.049030
     9  C   -0.291246
    10  C   -0.260605
    11  C   -0.149070
    12  C   -0.119485
    13  C    0.138681
    14  C    0.072305
    15  C   -0.084016
    16  C   -0.216549
    17  C    0.064827
    18  C   -0.307952
    19  C   -0.263263
    20  C   -0.332180
    21  C   -0.058470
    22  C   -0.114149
    23  C   -0.372897
    24  C    0.089238
    25  C   -0.113504
    26  C   -0.390255
    27  C    0.089489
    28  C   -0.105973
    29  C   -0.359050
    30  C   -0.083619
    31  C   -0.070332
    32  C   -0.075542
    33  C   -0.115756
    34  C    0.105827
    35  C   -0.092496
    36  C    0.062602
    37  C   -0.401635
    38  C   -0.081752
    39  C   -0.112262
    40  C   -0.349297
    41  C   -0.099163
    42  C   -0.059024
    43  H    0.061397
    44  H    0.100869
    45  H    0.067450
    46  H    0.068973
    47  H    0.097255
    48  H    0.075978
    49  H    0.107818
    50  H    0.111727
    51  H    0.101647
    52  H    0.067329
    53  H    0.106249
    54  H    0.093808
    55  H    0.061046
    56  H    0.048775
    57  H    0.079533
    58  H    0.115947
    59  H    0.123631
    60  H    0.109535
    61  H    0.119101
    62  H    0.059162
    63  H    0.092237
    64  H    0.116902
    65  H    0.057668
    66  H    0.143102
    67  H    0.093794
    68  H    0.115498
    69  H    0.307201
    70  H    0.103877
    71  H    0.072221
    72  H    0.111961
    73  H    0.108965
    74  H    0.095427
    75  H    0.301646
    76  H    0.096522
    77  H    0.111213
    78  H    0.132089
    79  H    0.116582
    80  H    0.065341
    81  H    0.122869
    82  H    0.083738
    83  H    0.084366
    84  H    0.071935
    85  H    0.073652
    86  H    0.067036
    87  H    0.079616
    88  H    0.084647
    89  H    0.123392
    90  H    0.120190
    91  H    0.083139
    92  H    0.068004
    93  H    0.071397
    94  H    0.124797
    95  H    0.110274
    96  H    0.124512
    97  H    0.087433
    98  H    0.071557
 Sum of Mulliken charges =  -0.00000

 Dipole moment (field-independent basis, Debye):
    X=             -1.3005    Y=             -1.8474    Z=             -0.4303  Tot=              2.2998
 Quadrupole moment (field-independent basis, Debye-Ang):
   XX=           -284.5080   YY=           -247.2388   ZZ=           -263.3285
   XY=              7.1534   XZ=             33.8113   YZ=              1.0860

 Normal termination of Gaussian 16 at Sun Jul 14 21:23:43 2019.
