 Gaussian 16, Revision A.03,
 Gaussian 16:  ES64L-G16RevA.03 25-Dec-2016

 -------------------------------------
 # td=(NStates=1) CAM-B3LYP/6-31G(d,p)
 -------------------------------------

 --
 TD
 --
 Symbolic Z-matrix:
 Charge =  0 Multiplicity = 1

                         Standard orientation:
 ---------------------------------------------------------------------
 Center     Atomic      Atomic             Coordinates (Angstroms)
 Number     Number       Type             X           Y           Z
 ---------------------------------------------------------------------
      1          8           0      -14.083324   -2.095373    0.059116
      2          8           0       14.811630    0.785394   -0.246500
      3          6           0      -11.893623   -0.086684    1.278048
      4          6           0      -10.957700    0.307161   -0.005418
      5          6           0      -12.063538   -1.616606    1.229660
      6          6           0      -12.715015   -2.161004   -0.047842
      7          6           0      -11.477461   -0.435813   -1.304349
      8          6           0       11.293460    0.866373    0.992196
      9          6           0      -11.120908    0.327425    2.493637
     10          6           0      -13.180231    0.630447    1.230944
     11          6           0       12.606636    1.382697    0.571477
     12          6           0      -12.172524   -1.596406   -1.300983
     13          6           0       13.583461    0.309075    0.133428
     14          6           0       10.700465   -0.128711    0.005333
     15          6           0       -9.586863   -0.104872    0.113043
     16          6           0       12.949319   -0.413672   -1.088950
     17          6           0       11.395733   -0.669563   -0.982940
     18          6           0       10.374983    2.196296    1.115194
     19          6           0       11.272915    0.281532    2.387790
     20          6           0      -11.006072    0.306593   -2.533637
     21          6           0       -8.541427    0.733747    0.010520
     22          6           0        9.345635   -0.469779    0.194904
     23          6           0       10.957944   -1.544090   -2.109601
     24          6           0       -7.066267    0.481793    0.004035
     25          6           0        8.781471   -1.654666    0.040686
     26          6           0       -6.662228   -0.923441    0.460656
     27          6           0        7.337044   -2.010568    0.054306
     28          6           0       -6.244100    1.657179   -0.268784
     29          6           0        6.966950   -3.484256    0.234502
     30          6           0        6.361855   -1.131426   -0.006364
     31          6           0       -4.860848    1.570453   -0.255921
     32          6           0        4.906100   -1.360955    0.153740
     33          6           0       -3.959078    2.615774   -0.597337
     34          6           0       -2.652717    2.701375   -0.544835
     35          6           0        3.976123   -0.371476   -0.195398
     36          6           0        2.580607   -0.656224   -0.141551
     37          6           0       -1.969777    4.060454   -0.890131
     38          6           0       -1.777878    1.595012   -0.437667
     39          6           0        1.751503    0.483322   -0.140930
     40          6           0        2.076994   -2.025191    0.120166
     41          6           0       -0.413112    1.675335   -0.373235
     42          6           0        0.326096    0.490568   -0.176547
     43          1           0      -11.106532    1.346598   -0.176135
     44          1           0      -12.931399   -1.822040    2.015198
     45          1           0      -11.213902   -2.021454    1.303968
     46          1           0      -12.257652   -3.261311    0.076483
     47          1           0      -10.119439   -0.127931    2.610273
     48          1           0      -10.784150    1.330035    2.452494
     49          1           0      -11.593171    0.328723    3.321281
     50          1           0      -13.713859    0.573947    0.048171
     51          1           0      -13.814243    0.063412    2.064976
     52          1           0      -12.969084    1.729121    1.564675
     53          1           0       12.631221    2.091607   -0.304987
     54          1           0       13.158658    1.896522    1.358832
     55          1           0      -12.365717   -2.175674   -2.293248
     56          1           0       13.666445   -0.483256    0.806129
     57          1           0       -9.320891   -1.045306    0.355940
     58          1           0       13.621597   -1.518742   -1.339037
     59          1           0       12.939265    0.376958   -1.855171
     60          1           0        9.254685    1.939524    1.491357
     61          1           0       10.168928    2.420197    0.019442
     62          1           0       10.819274    3.012806    1.719102
     63          1           0       12.168989   -0.242891    2.445423
     64          1           0       10.422134   -0.282242    2.521992
     65          1           0       11.491498    1.044848    3.133644
     66          1           0       -9.966216    0.718976   -2.764265
     67          1           0      -11.677455    1.243166   -2.550656
     68          1           0      -11.281403   -0.029921   -3.699495
     69          1           0      -14.478041   -2.217402   -0.902299
     70          1           0        8.689203    0.318174    0.787584
     71          1           0       -8.909414    1.793687   -0.306119
     72          1           0       11.172273   -2.826187   -1.906246
     73          1           0        9.891716   -1.457874   -2.415395
     74          1           0       11.587267   -1.171079   -2.990842
     75          1           0       15.358096    0.970572    0.687065
     76          1           0        9.475183   -2.533916   -0.061482
     77          1           0       -5.553833   -1.070709    0.714775
     78          1           0       -7.217921   -1.179163    1.360197
     79          1           0       -7.043399   -1.534786   -0.306806
     80          1           0       -6.812328    2.781829   -0.495063
     81          1           0        6.723513   -3.932225    1.166479
     82          1           0        6.382622   -3.816885   -0.406171
     83          1           0        7.821995   -4.304063    0.044068
     84          1           0        6.560819   -0.012329   -0.359586
     85          1           0       -4.466964    0.574903   -0.059607
     86          1           0        4.623680   -2.297507    0.148052
     87          1           0       -4.796832    3.453955   -0.839088
     88          1           0        4.372906    0.585180   -0.540776
     89          1           0       -1.162999    4.059822   -1.650643
     90          1           0       -1.356590    4.188610    0.035282
     91          1           0       -2.743592    4.860632   -0.944640
     92          1           0       -2.297831    0.645836   -0.280269
     93          1           0        2.172875    1.571391   -0.337420
     94          1           0        2.524679   -2.205033    1.288555
     95          1           0        1.031250   -2.160207    0.118439
     96          1           0        2.138713   -2.868631   -0.407336
     97          1           0        0.113885    2.724180   -0.206494
     98          1           0       -0.198526   -0.529858   -0.292593
 ---------------------------------------------------------------------

 SCF Done:  E(RCAM-B3LYP) =  -1706.84771058     A.U. after   16 cycles

 Excitation energies and oscillator strengths:

 Excited State   1:      Singlet-A      1.9188 eV  646.15 nm  f=2.8839  <S**2>=0.000
     155 ->158        -0.11899
     156 ->157         0.70498
     156 <-157        -0.12798
 This state for optimization and/or second-order correction.
 Total Energy, E(TD-HF/TD-DFT) =  -1706.77719556
 Copying the excited state density for this state as the 1-particle RhoCI density.

 The electronic state is 1-A.
 Alpha  occ. eigenvalues --  -19.22534 -19.22445 -10.30778 -10.29443 -10.29017
 Alpha  occ. eigenvalues --  -10.28898 -10.28329 -10.28194 -10.27650 -10.27573
 Alpha  occ. eigenvalues --  -10.27494 -10.27406 -10.27234 -10.26968 -10.26907
 Alpha  occ. eigenvalues --  -10.26832 -10.26819 -10.26727 -10.26714 -10.26689
 Alpha  occ. eigenvalues --  -10.26577 -10.26522 -10.26519 -10.26518 -10.26502
 Alpha  occ. eigenvalues --  -10.26245 -10.26178 -10.26149 -10.26038 -10.26002
 Alpha  occ. eigenvalues --  -10.25978 -10.25933 -10.25672 -10.25229 -10.25108
 Alpha  occ. eigenvalues --  -10.24943 -10.24941 -10.24430 -10.24054 -10.23803
 Alpha  occ. eigenvalues --  -10.22761 -10.21995  -1.10253  -1.09611  -0.94079
 Alpha  occ. eigenvalues --   -0.93766  -0.92333  -0.91485  -0.90021  -0.89638
 Alpha  occ. eigenvalues --   -0.87518  -0.87091  -0.86704  -0.85357  -0.84733
 Alpha  occ. eigenvalues --   -0.83038  -0.81963  -0.80844  -0.80020  -0.78903
 Alpha  occ. eigenvalues --   -0.77076  -0.76757  -0.76475  -0.76274  -0.75493
 Alpha  occ. eigenvalues --   -0.75316  -0.74874  -0.73785  -0.72889  -0.70519
 Alpha  occ. eigenvalues --   -0.68238  -0.67428  -0.66154  -0.64170  -0.63753
 Alpha  occ. eigenvalues --   -0.62996  -0.62645  -0.62208  -0.61171  -0.59822
 Alpha  occ. eigenvalues --   -0.59650  -0.59125  -0.58842  -0.57782  -0.56018
 Alpha  occ. eigenvalues --   -0.55467  -0.54624  -0.54462  -0.53914  -0.53472
 Alpha  occ. eigenvalues --   -0.53236  -0.52977  -0.52318  -0.51901  -0.50655
 Alpha  occ. eigenvalues --   -0.50154  -0.50126  -0.49786  -0.49477  -0.49342
 Alpha  occ. eigenvalues --   -0.49120  -0.49002  -0.48249  -0.47960  -0.47793
 Alpha  occ. eigenvalues --   -0.47343  -0.47298  -0.47071  -0.46513  -0.46287
 Alpha  occ. eigenvalues --   -0.45886  -0.45617  -0.45447  -0.45138  -0.44903
 Alpha  occ. eigenvalues --   -0.44549  -0.44361  -0.43820  -0.43577  -0.43482
 Alpha  occ. eigenvalues --   -0.42940  -0.42276  -0.42158  -0.41804  -0.41749
 Alpha  occ. eigenvalues --   -0.41683  -0.41440  -0.40754  -0.40522  -0.40373
 Alpha  occ. eigenvalues --   -0.40256  -0.40054  -0.39729  -0.39433  -0.39253
 Alpha  occ. eigenvalues --   -0.38605  -0.38454  -0.38311  -0.38116  -0.37662
 Alpha  occ. eigenvalues --   -0.36896  -0.36694  -0.36603  -0.36241  -0.35904
 Alpha  occ. eigenvalues --   -0.34967  -0.34694  -0.33594  -0.31967  -0.31398
 Alpha  occ. eigenvalues --   -0.31309  -0.29633  -0.29238  -0.26838  -0.23689
 Alpha  occ. eigenvalues --   -0.18626
 Alpha virt. eigenvalues --   -0.06811  -0.00804   0.02606   0.05178   0.07013
 Alpha virt. eigenvalues --    0.09035   0.09221   0.10883   0.11050   0.11637
 Alpha virt. eigenvalues --    0.12023   0.12631   0.13082   0.13122   0.13452

 Mulliken charges:
               1
     1  O   -0.535589
     2  O   -0.548735
     3  C    0.031031
     4  C   -0.148176
     5  C   -0.154583
     6  C    0.176049
     7  C    0.113351
     8  C   -0.017283
     9  C   -0.300681
    10  C   -0.268316
    11  C   -0.186536
    12  C   -0.170713
    13  C    0.161854
    14  C    0.100295
    15  C   -0.037607
    16  C   -0.218698
    17  C    0.038047
    18  C   -0.298523
    19  C   -0.284634
    20  C   -0.364437
    21  C   -0.098243
    22  C   -0.119839
    23  C   -0.333382
    24  C    0.064240
    25  C   -0.111987
    26  C   -0.374398
    27  C    0.097847
    28  C   -0.118000
    29  C   -0.380061
    30  C   -0.140935
    31  C   -0.064031
    32  C   -0.086386
    33  C   -0.138181
    34  C    0.092780
    35  C   -0.100167
    36  C    0.094538
    37  C   -0.369926
    38  C   -0.093706
    39  C   -0.122543
    40  C   -0.357177
    41  C   -0.088603
    42  C   -0.091138
    43  H    0.093481
    44  H    0.096647
    45  H    0.089401
    46  H    0.040937
    47  H    0.093344
    48  H    0.098645
    49  H    0.103574
    50  H    0.078475
    51  H    0.092876
    52  H    0.082743
    53  H    0.101115
    54  H    0.071116
    55  H    0.083196
    56  H    0.081663
    57  H    0.074744
    58  H    0.073275
    59  H    0.118317
    60  H    0.077589
    61  H    0.097793
    62  H    0.106801
    63  H    0.094424
    64  H    0.119708
    65  H    0.093316
    66  H    0.130848
    67  H    0.110134
    68  H    0.080072
    69  H    0.311681
    70  H    0.074690
    71  H    0.061300
    72  H    0.075697
    73  H    0.124321
    74  H    0.103186
    75  H    0.307114
    76  H    0.084083
    77  H    0.113090
    78  H    0.133342
    79  H    0.142309
    80  H    0.081282
    81  H    0.126218
    82  H    0.133838
    83  H    0.074252
    84  H    0.071457
    85  H    0.074286
    86  H    0.085935
    87  H    0.066711
    88  H    0.092325
    89  H    0.128866
    90  H    0.116970
    91  H    0.110646
    92  H    0.080114
    93  H    0.082200
    94  H    0.102147
    95  H    0.104104
    96  H    0.131293
    97  H    0.090250
    98  H    0.085237
 Sum of Mulliken charges =  -0.00000

 Dipole moment (field-independent basis, Debye):
    X=             -0.2139    Y=             -0.8226    Z=              0.2039  Tot=              0.8741
 Quadrupole moment (field-independent basis, Debye-Ang):
   XX=           -273.5871   YY=           -247.6767   ZZ=           -262.6017
   XY=             -1.5417   XZ=             40.8699   YZ=              2.7941

 Normal termination of Gaussian 16 at Sat Jul 13 15:43:44 2019.
