 Gaussian 16, Revision A.03,
 Gaussian 16:  ES64L-G16RevA.03 25-Dec-2016

 -------------------------------------
 # td=(NStates=1) CAM-B3LYP/6-31G(d,p)
 -------------------------------------

 --
 TD
 --
 Symbolic Z-matrix:
 Charge =  0 Multiplicity = 1

                         Standard orientation:
 ---------------------------------------------------------------------
 Center     Atomic      Atomic             Coordinates (Angstroms)
 Number     Number       Type             X           Y           Z
 ---------------------------------------------------------------------
      1          8           0       14.126447   -1.902008   -0.547268
      2          8           0      -14.871710    0.862735   -0.117382
      3          6           0       11.797655    0.148612   -1.165782
      4          6           0       11.098159    0.322305    0.150604
      5          6           0       11.982745   -1.456147   -1.388125
      6          6           0       12.756348   -2.080901   -0.329126
      7          6           0       11.612198   -0.637273    1.270202
      8          6           0      -11.080548    0.974076   -1.006600
      9          6           0       11.089495    0.783932   -2.434445
     10          6           0       13.193193    0.771556   -0.992698
     11          6           0      -12.575716    1.411851   -0.622841
     12          6           0       12.337295   -1.626497    1.019516
     13          6           0      -13.606275    0.365302   -0.296523
     14          6           0      -10.705820   -0.129383    0.081171
     15          6           0        9.544234    0.015828    0.031518
     16          6           0      -13.178451   -0.417776    0.949856
     17          6           0      -11.591568   -0.683088    0.922516
     18          6           0      -10.295504    2.321392   -0.917334
     19          6           0      -10.959659    0.354565   -2.352450
     20          6           0       11.301477   -0.138030    2.760151
     21          6           0        8.532636    0.860100    0.253739
     22          6           0       -9.333736   -0.492218    0.124763
     23          6           0      -11.204172   -1.519102    2.093214
     24          6           0        7.109766    0.517555    0.172565
     25          6           0       -8.781960   -1.727198    0.146061
     26          6           0        6.687730   -0.905048   -0.209002
     27          6           0       -7.376078   -2.034414    0.041403
     28          6           0        6.224316    1.415994    0.495524
     29          6           0       -7.091885   -3.480398   -0.110912
     30          6           0       -6.381437   -1.019399   -0.024806
     31          6           0        4.800254    1.447441    0.419345
     32          6           0       -4.979705   -1.411704   -0.190633
     33          6           0        4.000146    2.507537    0.670513
     34          6           0        2.527425    2.618601    0.715039
     35          6           0       -4.040989   -0.455687   -0.001548
     36          6           0       -2.659869   -0.708231   -0.063647
     37          6           0        1.963267    3.886413    0.879625
     38          6           0        1.852507    1.455318    0.384848
     39          6           0       -1.824117    0.377481    0.184337
     40          6           0       -2.127772   -1.979216   -0.400660
     41          6           0        0.411706    1.459300    0.462114
     42          6           0       -0.310136    0.302584    0.143074
     43          1           0       11.030001    1.370257    0.419944
     44          1           0       12.487379   -1.715782   -2.346093
     45          1           0       10.956109   -1.953389   -1.617269
     46          1           0       12.658782   -3.060597   -0.569825
     47          1           0       10.030331    0.304263   -2.534049
     48          1           0       11.109895    1.980915   -2.237968
     49          1           0       11.667065    0.431335   -3.321043
     50          1           0       13.984218    0.415836   -0.321108
     51          1           0       13.761281    0.576459   -2.044781
     52          1           0       13.407872    1.828976   -1.223103
     53          1           0      -12.510864    2.079189    0.284655
     54          1           0      -13.022697    2.003411   -1.420946
     55          1           0       12.928040   -2.214793    1.717704
     56          1           0      -13.497462   -0.135088   -1.217601
     57          1           0        9.299289   -0.900387   -0.386505
     58          1           0      -13.890314   -1.389519    0.903126
     59          1           0      -13.412334    0.174872    1.982131
     60          1           0       -9.267836    2.308610   -1.114827
     61          1           0      -10.465376    2.633494    0.132715
     62          1           0      -10.821285    3.097853   -1.477263
     63          1           0      -11.797189   -0.265752   -2.354184
     64          1           0       -9.900780   -0.096763   -2.441048
     65          1           0      -10.984291    1.199023   -2.900140
     66          1           0       10.204202   -0.493788    2.744098
     67          1           0       11.511533    0.978328    2.989927
     68          1           0       11.751475   -0.700353    3.341211
     69          1           0       14.654947   -2.473731    0.157055
     70          1           0       -8.778617    0.299743   -0.240289
     71          1           0        8.699643    1.742903    0.624501
     72          1           0      -11.356368   -2.627529    2.020503
     73          1           0      -10.312599   -1.428256    2.387408
     74          1           0      -11.630656   -1.083081    3.019412
     75          1           0      -15.071739    1.198341   -0.979216
     76          1           0       -9.423284   -2.436172    0.044459
     77          1           0        5.666611   -1.085757   -0.316594
     78          1           0        7.029950   -0.980693   -1.321617
     79          1           0        7.097719   -1.805050    0.302506
     80          1           0        6.661542    2.451660    0.664085
     81          1           0       -6.524403   -3.972329   -1.005005
     82          1           0       -6.707882   -4.005576    0.821776
     83          1           0       -7.962381   -4.178799   -0.193352
     84          1           0       -6.558043   -0.023023    0.265437
     85          1           0        4.176324    0.502720    0.079742
     86          1           0       -4.849613   -2.433587   -0.649899
     87          1           0        4.405288    3.442052    0.735396
     88          1           0       -4.289685    0.578398    0.361783
     89          1           0        1.298102    3.923406    1.815880
     90          1           0        1.558320    4.261949   -0.125593
     91          1           0        2.622473    4.699332    1.230530
     92          1           0        2.286694    0.551762    0.242359
     93          1           0       -2.286223    1.307104    0.557740
     94          1           0       -2.411220   -2.236144   -1.523500
     95          1           0       -1.173526   -1.908466   -0.467182
     96          1           0       -2.365119   -2.820268    0.269850
     97          1           0       -0.150874    2.554012    0.745559
     98          1           0        0.136761   -0.653555   -0.381686
 ---------------------------------------------------------------------

 SCF Done:  E(RCAM-B3LYP) =  -1706.91738451     A.U. after   14 cycles

 Excitation energies and oscillator strengths:

 Excited State   1:      Singlet-A      2.4541 eV  505.21 nm  f=2.9342  <S**2>=0.000
     155 ->158         0.18681
     156 ->157         0.67861
 This state for optimization and/or second-order correction.
 Total Energy, E(TD-HF/TD-DFT) =  -1706.82719734
 Copying the excited state density for this state as the 1-particle RhoCI density.

 The electronic state is 1-A.
 Alpha  occ. eigenvalues --  -19.21420 -19.21285 -10.29151 -10.28446 -10.28018
 Alpha  occ. eigenvalues --  -10.27919 -10.27615 -10.27431 -10.27409 -10.27269
 Alpha  occ. eigenvalues --  -10.26744 -10.26647 -10.26629 -10.26572 -10.26549
 Alpha  occ. eigenvalues --  -10.26535 -10.26504 -10.26451 -10.26441 -10.26399
 Alpha  occ. eigenvalues --  -10.25980 -10.25834 -10.25784 -10.25632 -10.25575
 Alpha  occ. eigenvalues --  -10.25384 -10.25244 -10.25239 -10.25086 -10.25035
 Alpha  occ. eigenvalues --  -10.25034 -10.24978 -10.24455 -10.24415 -10.24225
 Alpha  occ. eigenvalues --  -10.24209 -10.24181 -10.24132 -10.23675 -10.23623
 Alpha  occ. eigenvalues --  -10.23307 -10.22778  -1.12023  -1.09166  -0.93199
 Alpha  occ. eigenvalues --   -0.93123  -0.92290  -0.91873  -0.90722  -0.89877
 Alpha  occ. eigenvalues --   -0.87055  -0.86303  -0.85921  -0.85164  -0.84385
 Alpha  occ. eigenvalues --   -0.83088  -0.82608  -0.80616  -0.80549  -0.78341
 Alpha  occ. eigenvalues --   -0.77381  -0.76866  -0.76612  -0.76335  -0.76281
 Alpha  occ. eigenvalues --   -0.75082  -0.74672  -0.73838  -0.72736  -0.69804
 Alpha  occ. eigenvalues --   -0.68972  -0.67369  -0.65890  -0.64696  -0.63838
 Alpha  occ. eigenvalues --   -0.63157  -0.62979  -0.61189  -0.60643  -0.60525
 Alpha  occ. eigenvalues --   -0.59870  -0.59562  -0.58690  -0.58026  -0.56306
 Alpha  occ. eigenvalues --   -0.55562  -0.55370  -0.55001  -0.54677  -0.53795
 Alpha  occ. eigenvalues --   -0.53696  -0.52907  -0.52611  -0.52348  -0.51852
 Alpha  occ. eigenvalues --   -0.50866  -0.50435  -0.49996  -0.49241  -0.49081
 Alpha  occ. eigenvalues --   -0.48913  -0.48647  -0.48218  -0.48019  -0.47703
 Alpha  occ. eigenvalues --   -0.47334  -0.47121  -0.46985  -0.46854  -0.46335
 Alpha  occ. eigenvalues --   -0.46070  -0.45578  -0.45314  -0.45283  -0.44710
 Alpha  occ. eigenvalues --   -0.44557  -0.44182  -0.43786  -0.43341  -0.43167
 Alpha  occ. eigenvalues --   -0.42715  -0.42594  -0.42309  -0.42276  -0.41849
 Alpha  occ. eigenvalues --   -0.41741  -0.41504  -0.41372  -0.41118  -0.40762
 Alpha  occ. eigenvalues --   -0.40272  -0.39795  -0.39478  -0.39112  -0.38753
 Alpha  occ. eigenvalues --   -0.38587  -0.38298  -0.38135  -0.37968  -0.37450
 Alpha  occ. eigenvalues --   -0.37158  -0.36907  -0.36323  -0.35820  -0.35464
 Alpha  occ. eigenvalues --   -0.34696  -0.34277  -0.33631  -0.31744  -0.31287
 Alpha  occ. eigenvalues --   -0.31188  -0.30490  -0.29159  -0.26657  -0.23348
 Alpha  occ. eigenvalues --   -0.19858
 Alpha virt. eigenvalues --   -0.04402  -0.00762   0.03345   0.06490   0.07943
 Alpha virt. eigenvalues --    0.09402   0.10942   0.11593   0.11969   0.12558
 Alpha virt. eigenvalues --    0.13287   0.13363   0.13912   0.14048   0.14263

 Mulliken charges:
               1
     1  O   -0.551467
     2  O   -0.528039
     3  C    0.023085
     4  C   -0.108508
     5  C   -0.202057
     6  C    0.157423
     7  C    0.094347
     8  C   -0.045059
     9  C   -0.294334
    10  C   -0.312168
    11  C   -0.206138
    12  C   -0.109972
    13  C    0.169093
    14  C    0.066759
    15  C   -0.102099
    16  C   -0.203767
    17  C    0.020536
    18  C   -0.318461
    19  C   -0.265600
    20  C   -0.323492
    21  C   -0.066477
    22  C   -0.115194
    23  C   -0.345857
    24  C    0.141368
    25  C   -0.066593
    26  C   -0.377107
    27  C    0.095351
    28  C   -0.154133
    29  C   -0.405466
    30  C   -0.123161
    31  C   -0.061959
    32  C   -0.090812
    33  C   -0.114376
    34  C    0.118111
    35  C   -0.113431
    36  C    0.136475
    37  C   -0.410809
    38  C   -0.090423
    39  C   -0.141471
    40  C   -0.352461
    41  C   -0.092153
    42  C   -0.123062
    43  H    0.093282
    44  H    0.100153
    45  H    0.085593
    46  H    0.080374
    47  H    0.096482
    48  H    0.088473
    49  H    0.109328
    50  H    0.136252
    51  H    0.062760
    52  H    0.090195
    53  H    0.091502
    54  H    0.059584
    55  H    0.058207
    56  H    0.070446
    57  H    0.077181
    58  H    0.095927
    59  H    0.101017
    60  H    0.107278
    61  H    0.108247
    62  H    0.108391
    63  H    0.105969
    64  H    0.102742
    65  H    0.105277
    66  H    0.118531
    67  H    0.108677
    68  H    0.115358
    69  H    0.303660
    70  H    0.069135
    71  H    0.059989
    72  H    0.104849
    73  H    0.123031
    74  H    0.093327
    75  H    0.300761
    76  H    0.071463
    77  H    0.116029
    78  H    0.101011
    79  H    0.118579
    80  H    0.070573
    81  H    0.110764
    82  H    0.120327
    83  H    0.108429
    84  H    0.088548
    85  H    0.069177
    86  H    0.100501
    87  H    0.063859
    88  H    0.079796
    89  H    0.122644
    90  H    0.135657
    91  H    0.116037
    92  H    0.082360
    93  H    0.079652
    94  H    0.096622
    95  H    0.102332
    96  H    0.122552
    97  H    0.086250
    98  H    0.098416
 Sum of Mulliken charges =  -0.00000

 Dipole moment (field-independent basis, Debye):
    X=              1.4874    Y=             -0.8017    Z=             -0.4890  Tot=              1.7590
 Quadrupole moment (field-independent basis, Debye-Ang):
   XX=           -280.6787   YY=           -236.6507   ZZ=           -261.3574
   XY=            -15.9933   XZ=             34.8285   YZ=              0.3009

 Normal termination of Gaussian 16 at Sun Jul 14 14:29:32 2019.
