 Gaussian 16, Revision A.03,
 Gaussian 16:  ES64L-G16RevA.03 25-Dec-2016

 -------------------------------------
 # td=(NStates=1) CAM-B3LYP/6-31G(d,p)
 -------------------------------------

 --
 TD
 --
 Symbolic Z-matrix:
 Charge =  0 Multiplicity = 1

                         Standard orientation:
 ---------------------------------------------------------------------
 Center     Atomic      Atomic             Coordinates (Angstroms)
 Number     Number       Type             X           Y           Z
 ---------------------------------------------------------------------
      1          8           0      -14.332920   -1.959780    0.448513
      2          8           0       14.977121    0.810243    0.162908
      3          6           0      -11.852704   -0.126300    1.275342
      4          6           0      -10.998138    0.250357   -0.037456
      5          6           0      -12.082289   -1.651025    1.353542
      6          6           0      -13.001327   -2.116310    0.206772
      7          6           0      -11.727972   -0.432644   -1.136205
      8          6           0       11.240874    0.815316    1.178128
      9          6           0      -11.017562    0.298186    2.511116
     10          6           0      -13.188233    0.743791    1.345652
     11          6           0       12.780839    1.319372    0.857461
     12          6           0      -12.440750   -1.527410   -1.042209
     13          6           0       13.712004    0.304671    0.375716
     14          6           0       10.828060   -0.040192    0.037936
     15          6           0       -9.579494   -0.217124   -0.017137
     16          6           0       13.233934   -0.323957   -0.919482
     17          6           0       11.753817   -0.591096   -0.908386
     18          6           0       10.442547    2.128246    1.328415
     19          6           0       11.249276    0.025806    2.477379
     20          6           0      -11.408781    0.302566   -2.567267
     21          6           0       -8.647020    0.766906   -0.187595
     22          6           0        9.366831   -0.437627   -0.115580
     23          6           0       11.363760   -1.425866   -2.153489
     24          6           0       -7.215511    0.498994   -0.044738
     25          6           0        8.809074   -1.627062   -0.181870
     26          6           0       -6.707068   -1.028672    0.230247
     27          6           0        7.413264   -2.012423   -0.129279
     28          6           0       -6.230704    1.487545   -0.203018
     29          6           0        7.103793   -3.521211    0.203427
     30          6           0        6.354143   -1.140235   -0.337011
     31          6           0       -4.875259    1.436949   -0.182011
     32          6           0        5.005958   -1.379306   -0.259100
     33          6           0       -4.136088    2.567314   -0.514366
     34          6           0       -2.734437    2.679449   -0.535216
     35          6           0        4.027233   -0.392863   -0.391194
     36          6           0        2.654612   -0.482635   -0.370316
     37          6           0       -2.221517    4.065426   -0.907223
     38          6           0       -1.847387    1.639674   -0.505276
     39          6           0        1.812165    0.501788   -0.599926
     40          6           0        2.151811   -1.887623   -0.028779
     41          6           0       -0.411433    1.626460   -0.492862
     42          6           0        0.394370    0.499539   -0.437463
     43          1           0      -11.093894    1.218628   -0.102361
     44          1           0      -12.467099   -2.082226    2.314727
     45          1           0      -11.048879   -2.210944    1.221869
     46          1           0      -12.773587   -3.295974    0.154730
     47          1           0      -10.110172   -0.042771    2.677607
     48          1           0      -11.046359    1.305666    2.311499
     49          1           0      -11.501574    0.116963    3.319724
     50          1           0      -13.644287    0.702417    0.380068
     51          1           0      -13.823825    0.653367    2.241080
     52          1           0      -12.710800    1.867161    1.372168
     53          1           0       12.495748    2.177532    0.067707
     54          1           0       13.091682    1.866995    1.797542
     55          1           0      -12.746342   -1.860591   -2.018686
     56          1           0       13.501044   -0.318394    1.337289
     57          1           0       -9.394230   -1.406037   -0.094064
     58          1           0       13.877359   -1.180669   -1.110415
     59          1           0       13.345226    0.542934   -1.839259
     60          1           0        9.476956    1.757453    1.789627
     61          1           0       10.222466    2.813483    0.537778
     62          1           0       10.797559    2.755725    2.231391
     63          1           0       11.992890   -0.688876    2.442440
     64          1           0       10.373439   -0.536813    2.666461
     65          1           0       11.411316    0.648194    3.348577
     66          1           0      -10.507193    0.491827   -2.798354
     67          1           0      -11.849682    1.276288   -2.636245
     68          1           0      -12.024116   -0.374201   -3.128455
     69          1           0      -14.845826   -2.111587   -0.316003
     70          1           0        8.643604    0.497399    0.130332
     71          1           0       -8.873459    1.757953   -0.405838
     72          1           0       11.584585   -2.435219   -1.766849
     73          1           0       10.340369   -1.609410   -2.343447
     74          1           0       11.774997   -1.051259   -3.117298
     75          1           0       15.245522    1.266661    1.005362
     76          1           0        9.604002   -2.388465   -0.304852
     77          1           0       -5.596586   -1.152377    0.296969
     78          1           0       -6.976195   -1.215454    1.251097
     79          1           0       -7.119960   -1.706009   -0.488100
     80          1           0       -6.664688    2.595977   -0.430355
     81          1           0        6.910459   -3.635271    1.361575
     82          1           0        6.240081   -4.094374   -0.196157
     83          1           0        8.083357   -4.084133   -0.044008
     84          1           0        6.525639   -0.136596   -0.523291
     85          1           0       -4.236358    0.469658    0.170320
     86          1           0        4.856209   -2.530700   -0.063769
     87          1           0       -4.672085    3.409493   -0.807601
     88          1           0        4.432255    0.700931   -0.537771
     89          1           0       -1.774255    3.938151   -2.025467
     90          1           0       -1.482565    4.448597   -0.233276
     91          1           0       -2.966021    4.941016   -0.911392
     92          1           0       -2.403359    0.669914   -0.558154
     93          1           0        2.287144    1.562635   -0.704838
     94          1           0        2.309019   -2.221398    0.850066
     95          1           0        1.093234   -2.083468   -0.443741
     96          1           0        2.562456   -2.691078   -0.743724
     97          1           0       -0.067853    2.671473   -0.584411
     98          1           0       -0.059112   -0.364532    0.048746
 ---------------------------------------------------------------------

 SCF Done:  E(RCAM-B3LYP) =  -1706.95434873     A.U. after   15 cycles

 Excitation energies and oscillator strengths:

 Excited State   1:      Singlet-A      2.1758 eV  569.82 nm  f=3.2118  <S**2>=0.000
     155 ->158         0.15501
     156 ->157         0.68927
 This state for optimization and/or second-order correction.
 Total Energy, E(TD-HF/TD-DFT) =  -1706.87438821
 Copying the excited state density for this state as the 1-particle RhoCI density.

 The electronic state is 1-A.
 Alpha  occ. eigenvalues --  -19.21993 -19.21594 -10.31157 -10.30406 -10.28347
 Alpha  occ. eigenvalues --  -10.28297 -10.28113 -10.28034 -10.27831 -10.27495
 Alpha  occ. eigenvalues --  -10.27320 -10.27094 -10.27058 -10.26978 -10.26967
 Alpha  occ. eigenvalues --  -10.26922 -10.26915 -10.26875 -10.26792 -10.26746
 Alpha  occ. eigenvalues --  -10.26711 -10.26621 -10.26580 -10.26569 -10.26362
 Alpha  occ. eigenvalues --  -10.26245 -10.26060 -10.25858 -10.25742 -10.25685
 Alpha  occ. eigenvalues --  -10.25677 -10.25509 -10.25503 -10.25140 -10.25009
 Alpha  occ. eigenvalues --  -10.24841 -10.24718 -10.24582 -10.24382 -10.23739
 Alpha  occ. eigenvalues --  -10.23526 -10.19803  -1.12116  -1.10870  -0.93696
 Alpha  occ. eigenvalues --   -0.93022  -0.92343  -0.91724  -0.90215  -0.89374
 Alpha  occ. eigenvalues --   -0.87060  -0.86657  -0.86142  -0.85927  -0.84583
 Alpha  occ. eigenvalues --   -0.82862  -0.82186  -0.80302  -0.79849  -0.78044
 Alpha  occ. eigenvalues --   -0.77096  -0.76915  -0.76153  -0.76083  -0.75843
 Alpha  occ. eigenvalues --   -0.75833  -0.75275  -0.74956  -0.73293  -0.70430
 Alpha  occ. eigenvalues --   -0.69149  -0.68182  -0.66531  -0.64769  -0.64140
 Alpha  occ. eigenvalues --   -0.63144  -0.62570  -0.62088  -0.60196  -0.59873
 Alpha  occ. eigenvalues --   -0.59304  -0.59184  -0.58811  -0.57644  -0.56825
 Alpha  occ. eigenvalues --   -0.55755  -0.55296  -0.54636  -0.54457  -0.53788
 Alpha  occ. eigenvalues --   -0.53094  -0.52717  -0.52288  -0.52068  -0.51455
 Alpha  occ. eigenvalues --   -0.50868  -0.50659  -0.50571  -0.50038  -0.49765
 Alpha  occ. eigenvalues --   -0.49350  -0.48822  -0.48534  -0.48198  -0.48025
 Alpha  occ. eigenvalues --   -0.47607  -0.47341  -0.46792  -0.46669  -0.46085
 Alpha  occ. eigenvalues --   -0.45918  -0.45629  -0.45461  -0.44870  -0.44656
 Alpha  occ. eigenvalues --   -0.44383  -0.44343  -0.43913  -0.43390  -0.43220
 Alpha  occ. eigenvalues --   -0.43024  -0.42967  -0.42800  -0.42381  -0.42102
 Alpha  occ. eigenvalues --   -0.41872  -0.41697  -0.41287  -0.40670  -0.40400
 Alpha  occ. eigenvalues --   -0.40265  -0.39846  -0.39767  -0.39701  -0.39528
 Alpha  occ. eigenvalues --   -0.39033  -0.38941  -0.38564  -0.38015  -0.37605
 Alpha  occ. eigenvalues --   -0.37429  -0.37056  -0.36864  -0.36518  -0.35933
 Alpha  occ. eigenvalues --   -0.34891  -0.34208  -0.33338  -0.31971  -0.31388
 Alpha  occ. eigenvalues --   -0.31258  -0.29902  -0.28710  -0.26834  -0.23442
 Alpha  occ. eigenvalues --   -0.19605
 Alpha virt. eigenvalues --   -0.05922  -0.01559   0.03008   0.05542   0.07284
 Alpha virt. eigenvalues --    0.08740   0.10715   0.11341   0.11956   0.12309
 Alpha virt. eigenvalues --    0.12499   0.12955   0.13428   0.13531   0.14243

 Mulliken charges:
               1
     1  O   -0.517367
     2  O   -0.546261
     3  C   -0.014564
     4  C   -0.099935
     5  C   -0.177476
     6  C    0.173565
     7  C    0.082072
     8  C   -0.030866
     9  C   -0.276171
    10  C   -0.285979
    11  C   -0.198066
    12  C   -0.146881
    13  C    0.206070
    14  C    0.055841
    15  C   -0.065577
    16  C   -0.203072
    17  C    0.027690
    18  C   -0.315066
    19  C   -0.308332
    20  C   -0.345718
    21  C   -0.089101
    22  C   -0.113635
    23  C   -0.357628
    24  C    0.062892
    25  C   -0.090524
    26  C   -0.368394
    27  C    0.075936
    28  C   -0.130289
    29  C   -0.377736
    30  C   -0.088376
    31  C   -0.047864
    32  C   -0.057518
    33  C   -0.116855
    34  C    0.099084
    35  C   -0.154268
    36  C    0.164312
    37  C   -0.381713
    38  C   -0.120416
    39  C   -0.138828
    40  C   -0.375031
    41  C   -0.084153
    42  C   -0.101562
    43  H    0.079723
    44  H    0.096128
    45  H    0.078893
    46  H    0.034835
    47  H    0.100713
    48  H    0.086817
    49  H    0.096995
    50  H    0.113191
    51  H    0.119422
    52  H    0.054858
    53  H    0.070379
    54  H    0.071291
    55  H    0.062786
    56  H    0.056333
    57  H    0.106615
    58  H    0.121317
    59  H    0.097089
    60  H    0.096738
    61  H    0.120695
    62  H    0.091247
    63  H    0.112956
    64  H    0.114408
    65  H    0.099135
    66  H    0.126763
    67  H    0.109455
    68  H    0.102441
    69  H    0.305093
    70  H    0.069465
    71  H    0.090667
    72  H    0.118749
    73  H    0.123067
    74  H    0.115479
    75  H    0.307583
    76  H    0.076234
    77  H    0.103129
    78  H    0.130094
    79  H    0.124348
    80  H    0.064350
    81  H    0.112338
    82  H    0.125564
    83  H    0.103549
    84  H    0.070371
    85  H    0.089250
    86  H    0.072419
    87  H    0.082377
    88  H    0.072645
    89  H    0.113040
    90  H    0.126205
    91  H    0.100814
    92  H    0.066559
    93  H    0.075005
    94  H    0.136141
    95  H    0.096979
    96  H    0.102070
    97  H    0.082892
    98  H    0.100062
 Sum of Mulliken charges =  -0.00000

 Dipole moment (field-independent basis, Debye):
    X=             -0.3554    Y=             -0.1834    Z=              0.3856  Tot=              0.5556
 Quadrupole moment (field-independent basis, Debye-Ang):
   XX=           -263.3564   YY=           -244.3062   ZZ=           -261.3279
   XY=             -0.6210   XZ=             40.5330   YZ=              1.2533

 Normal termination of Gaussian 16 at Sat Jul 13 02:33:15 2019.
