 Gaussian 16, Revision A.03,
 Gaussian 16:  ES64L-G16RevA.03 25-Dec-2016

 -------------------------------------
 # td=(NStates=1) CAM-B3LYP/6-31G(d,p)
 -------------------------------------

 --
 TD
 --
 Symbolic Z-matrix:
 Charge =  0 Multiplicity = 1

                         Standard orientation:
 ---------------------------------------------------------------------
 Center     Atomic      Atomic             Coordinates (Angstroms)
 Number     Number       Type             X           Y           Z
 ---------------------------------------------------------------------
      1          8           0      -14.157602   -1.956071    0.706503
      2          8           0       14.758923    0.941977    0.602337
      3          6           0      -11.727962    0.041910    1.340704
      4          6           0      -10.947531    0.245098    0.007890
      5          6           0      -11.938382   -1.427998    1.591046
      6          6           0      -12.827537   -2.190214    0.436413
      7          6           0      -11.521515   -0.538703   -1.151498
      8          6           0       11.074456    0.821226    1.258939
      9          6           0      -10.949547    0.757948    2.476181
     10          6           0      -13.018026    0.836648    1.350823
     11          6           0       12.419612    1.334716    1.102017
     12          6           0      -12.331234   -1.510444   -0.869461
     13          6           0       13.489978    0.415647    0.592558
     14          6           0       10.656367   -0.069642    0.019431
     15          6           0       -9.429871   -0.050626    0.110597
     16          6           0       13.028022   -0.001074   -0.806743
     17          6           0       11.646625   -0.377247   -0.909996
     18          6           0       10.136853    2.063357    1.262943
     19          6           0       10.889682    0.080029    2.667558
     20          6           0      -11.309331   -0.097932   -2.566558
     21          6           0       -8.554267    0.844531   -0.110588
     22          6           0        9.326946   -0.490060    0.037605
     23          6           0       11.259798   -1.177170   -2.150431
     24          6           0       -7.040634    0.656139   -0.113540
     25          6           0        8.751336   -1.712491   -0.373325
     26          6           0       -6.670606   -0.769984    0.329993
     27          6           0        7.439718   -2.185877   -0.244758
     28          6           0       -6.261606    1.596891   -0.393122
     29          6           0        7.109707   -3.557495   -0.168630
     30          6           0        6.363579   -1.256042   -0.325614
     31          6           0       -4.805556    1.539409   -0.544030
     32          6           0        5.052725   -1.424542   -0.194483
     33          6           0       -4.021861    2.582091   -0.981686
     34          6           0       -2.636750    2.616188   -0.869877
     35          6           0        3.999473   -0.551977   -0.467538
     36          6           0        2.669024   -0.648773   -0.319302
     37          6           0       -1.854015    3.872710   -1.167307
     38          6           0       -1.878427    1.424218   -0.632330
     39          6           0        1.759747    0.327802   -0.527489
     40          6           0        2.194371   -2.118683   -0.094934
     41          6           0       -0.417646    1.466913   -0.734825
     42          6           0        0.350697    0.242773   -0.439521
     43          1           0      -11.083195    1.375625   -0.189169
     44          1           0      -12.554134   -1.488426    2.536030
     45          1           0      -11.004383   -1.965734    1.845325
     46          1           0      -12.654840   -3.265042    0.423865
     47          1           0      -10.051052    0.144417    2.495645
     48          1           0      -10.461343    1.729565    2.283978
     49          1           0      -11.547686    0.459808    3.384947
     50          1           0      -13.777321    0.329301    0.590147
     51          1           0      -13.582622    0.859040    2.319944
     52          1           0      -12.683045    1.867867    1.082660
     53          1           0       12.438665    2.154175    0.398857
     54          1           0       12.717112    1.760266    2.143981
     55          1           0      -12.891183   -1.926248   -1.715737
     56          1           0       13.574127   -0.603732    1.205185
     57          1           0       -9.239847   -1.129477    0.392588
     58          1           0       13.669207   -0.705702   -1.227538
     59          1           0       13.324768    0.995569   -1.476457
     60          1           0        9.085862    1.761226    1.611251
     61          1           0       10.205984    2.369729    0.307246
     62          1           0       10.474976    2.943642    1.790498
     63          1           0       11.587410   -0.851669    2.794137
     64          1           0        9.735091   -0.162856    2.758670
     65          1           0       11.005260    0.946452    3.403954
     66          1           0      -10.169208   -0.087256   -2.814670
     67          1           0      -11.675440    0.839404   -2.797816
     68          1           0      -11.607023   -0.869568   -3.248323
     69          1           0      -14.644084   -2.581662   -0.014211
     70          1           0        8.838852    0.327800    0.357356
     71          1           0       -8.938656    2.001402   -0.448329
     72          1           0       11.447003   -2.345381   -2.049729
     73          1           0       10.212613   -0.822368   -2.292795
     74          1           0       11.965447   -0.981364   -2.994704
     75          1           0       15.021423    0.959356    1.614054
     76          1           0        9.421386   -2.531921   -0.639218
     77          1           0       -5.633897   -0.983246    0.758751
     78          1           0       -7.497513   -1.345748    1.115272
     79          1           0       -6.669432   -1.762999   -0.797501
     80          1           0       -6.706796    2.596462   -0.568719
     81          1           0        6.572191   -3.867314    0.830290
     82          1           0        6.153884   -3.907724   -0.928519
     83          1           0        7.987404   -4.117218   -0.492661
     84          1           0        6.636685   -0.252313   -0.720828
     85          1           0       -4.401287    0.546011   -0.155245
     86          1           0        4.857888   -2.470349    0.035856
     87          1           0       -4.637202    3.507178   -1.146111
     88          1           0        4.463964    0.488357   -0.803660
     89          1           0       -0.944538    3.644203   -1.979903
     90          1           0       -1.632289    4.169759   -0.079504
     91          1           0       -2.419521    4.822278   -1.576795
     92          1           0       -2.461759    0.593380   -0.403771
     93          1           0        2.294691    1.282883   -0.623549
     94          1           0        2.195958   -2.417099    0.971716
     95          1           0        1.196263   -2.102727   -0.367353
     96          1           0        2.759613   -2.898496   -0.530612
     97          1           0        0.133145    2.151952   -1.304765
     98          1           0       -0.076639   -0.726342   -0.097404
 ---------------------------------------------------------------------

 SCF Done:  E(RCAM-B3LYP) =  -1706.91500291     A.U. after   16 cycles

 Excitation energies and oscillator strengths:

 Excited State   1:      Singlet-A      1.8301 eV  677.47 nm  f=2.8791  <S**2>=0.000
     155 ->158         0.14258
     156 ->157         0.69905
     156 <-157        -0.11871
 This state for optimization and/or second-order correction.
 Total Energy, E(TD-HF/TD-DFT) =  -1706.84774758
 Copying the excited state density for this state as the 1-particle RhoCI density.

 The electronic state is 1-A.
 Alpha  occ. eigenvalues --  -19.23238 -19.22209 -10.31819 -10.31106 -10.30682
 Alpha  occ. eigenvalues --  -10.28260 -10.27796 -10.27793 -10.27734 -10.27561
 Alpha  occ. eigenvalues --  -10.27529 -10.27205 -10.27105 -10.27099 -10.26946
 Alpha  occ. eigenvalues --  -10.26666 -10.26589 -10.26549 -10.26518 -10.26470
 Alpha  occ. eigenvalues --  -10.26434 -10.26424 -10.26279 -10.25976 -10.25968
 Alpha  occ. eigenvalues --  -10.25896 -10.25836 -10.25775 -10.25762 -10.25546
 Alpha  occ. eigenvalues --  -10.25510 -10.25442 -10.25221 -10.25134 -10.24873
 Alpha  occ. eigenvalues --  -10.24726 -10.24448 -10.24208 -10.24100 -10.24069
 Alpha  occ. eigenvalues --  -10.23921 -10.23796  -1.10589  -1.10266  -0.94040
 Alpha  occ. eigenvalues --   -0.93461  -0.92524  -0.92208  -0.91112  -0.90407
 Alpha  occ. eigenvalues --   -0.87329  -0.87195  -0.86813  -0.85871  -0.85006
 Alpha  occ. eigenvalues --   -0.83208  -0.81167  -0.79944  -0.79625  -0.77679
 Alpha  occ. eigenvalues --   -0.76377  -0.76150  -0.75902  -0.75629  -0.75018
 Alpha  occ. eigenvalues --   -0.74865  -0.74171  -0.73799  -0.72539  -0.70322
 Alpha  occ. eigenvalues --   -0.69507  -0.68169  -0.66650  -0.65014  -0.63601
 Alpha  occ. eigenvalues --   -0.62391  -0.62157  -0.61868  -0.60104  -0.59351
 Alpha  occ. eigenvalues --   -0.58596  -0.58369  -0.58213  -0.57991  -0.56520
 Alpha  occ. eigenvalues --   -0.56197  -0.55000  -0.54755  -0.54480  -0.53835
 Alpha  occ. eigenvalues --   -0.53733  -0.53194  -0.52475  -0.52171  -0.51046
 Alpha  occ. eigenvalues --   -0.50941  -0.50536  -0.49843  -0.49367  -0.49071
 Alpha  occ. eigenvalues --   -0.48926  -0.48524  -0.48126  -0.47897  -0.47597
 Alpha  occ. eigenvalues --   -0.47385  -0.46953  -0.46764  -0.46458  -0.46263
 Alpha  occ. eigenvalues --   -0.45708  -0.45624  -0.45289  -0.44990  -0.44921
 Alpha  occ. eigenvalues --   -0.44329  -0.44232  -0.43804  -0.43570  -0.43435
 Alpha  occ. eigenvalues --   -0.43198  -0.42825  -0.42594  -0.42295  -0.42049
 Alpha  occ. eigenvalues --   -0.41623  -0.41189  -0.41082  -0.40807  -0.40373
 Alpha  occ. eigenvalues --   -0.40250  -0.39774  -0.39498  -0.39445  -0.39019
 Alpha  occ. eigenvalues --   -0.38597  -0.38119  -0.38036  -0.37804  -0.37314
 Alpha  occ. eigenvalues --   -0.37036  -0.36513  -0.36291  -0.36166  -0.35529
 Alpha  occ. eigenvalues --   -0.34658  -0.33596  -0.33180  -0.32697  -0.31948
 Alpha  occ. eigenvalues --   -0.31565  -0.30100  -0.29115  -0.27275  -0.23645
 Alpha  occ. eigenvalues --   -0.18496
 Alpha virt. eigenvalues --   -0.07018  -0.01620   0.02925   0.05782   0.06793
 Alpha virt. eigenvalues --    0.08329   0.08535   0.10350   0.10712   0.11082
 Alpha virt. eigenvalues --    0.11204   0.12711   0.12916   0.13297   0.13579

 Mulliken charges:
               1
     1  O   -0.513415
     2  O   -0.551223
     3  C    0.004757
     4  C   -0.152246
     5  C   -0.194195
     6  C    0.128586
     7  C    0.151708
     8  C   -0.011462
     9  C   -0.298286
    10  C   -0.274801
    11  C   -0.174322
    12  C   -0.133044
    13  C    0.179125
    14  C    0.049427
    15  C   -0.073715
    16  C   -0.237097
    17  C    0.075761
    18  C   -0.322794
    19  C   -0.287803
    20  C   -0.362594
    21  C   -0.089073
    22  C   -0.085287
    23  C   -0.361961
    24  C    0.169668
    25  C   -0.128629
    26  C   -0.324302
    27  C    0.134027
    28  C   -0.151132
    29  C   -0.386112
    30  C   -0.113905
    31  C   -0.065155
    32  C   -0.053124
    33  C   -0.123062
    34  C    0.071130
    35  C   -0.143556
    36  C    0.136927
    37  C   -0.354100
    38  C   -0.089121
    39  C   -0.120161
    40  C   -0.372434
    41  C   -0.101941
    42  C   -0.105513
    43  H    0.073763
    44  H    0.094213
    45  H    0.087150
    46  H    0.087873
    47  H    0.090629
    48  H    0.110848
    49  H    0.097609
    50  H    0.102840
    51  H    0.095178
    52  H    0.083104
    53  H    0.100525
    54  H    0.061134
    55  H    0.044340
    56  H    0.042354
    57  H    0.097296
    58  H    0.115385
    59  H    0.088168
    60  H    0.100698
    61  H    0.120656
    62  H    0.102020
    63  H    0.100459
    64  H    0.094633
    65  H    0.096292
    66  H    0.103148
    67  H    0.128831
    68  H    0.114299
    69  H    0.310063
    70  H    0.077672
    71  H    0.063780
    72  H    0.098568
    73  H    0.130148
    74  H    0.100038
    75  H    0.316269
    76  H    0.079494
    77  H    0.116459
    78  H    0.098332
    79  H    0.026094
    80  H    0.080844
    81  H    0.124855
    82  H    0.086318
    83  H    0.111201
    84  H    0.067537
    85  H    0.082821
    86  H    0.057370
    87  H    0.088382
    88  H    0.056676
    89  H    0.107882
    90  H    0.134363
    91  H    0.098642
    92  H    0.082168
    93  H    0.082888
    94  H    0.111814
    95  H    0.104131
    96  H    0.122140
    97  H    0.104736
    98  H    0.099324
 Sum of Mulliken charges =  -0.00000

 Dipole moment (field-independent basis, Debye):
    X=             -0.9031    Y=             -1.2485    Z=              0.1111  Tot=              1.5449
 Quadrupole moment (field-independent basis, Debye-Ang):
   XX=           -266.6071   YY=           -242.5088   ZZ=           -263.0802
   XY=             10.8727   XZ=             31.5885   YZ=             -0.0970

 Normal termination of Gaussian 16 at Mon Jul 15 11:58:33 2019.
