 Gaussian 16, Revision A.03,
 Gaussian 16:  ES64L-G16RevA.03 25-Dec-2016

 -------------------------------------
 # td=(NStates=1) CAM-B3LYP/6-31G(d,p)
 -------------------------------------

 --
 TD
 --
 Symbolic Z-matrix:
 Charge =  0 Multiplicity = 1

                         Standard orientation:
 ---------------------------------------------------------------------
 Center     Atomic      Atomic             Coordinates (Angstroms)
 Number     Number       Type             X           Y           Z
 ---------------------------------------------------------------------
      1          8           0      -14.221990   -1.910452    0.527623
      2          8           0       14.847369    0.802397    0.298699
      3          6           0      -11.810501    0.209198    1.281754
      4          6           0      -10.995659    0.301104   -0.034912
      5          6           0      -11.997666   -1.301385    1.501532
      6          6           0      -12.817188   -2.074662    0.308170
      7          6           0      -11.581171   -0.377618   -1.204858
      8          6           0       11.196941    1.135538    0.986986
      9          6           0      -11.073468    0.681670    2.452566
     10          6           0      -13.212430    0.965920    1.219927
     11          6           0       12.565374    1.676574    0.707312
     12          6           0      -12.376392   -1.506850   -1.004105
     13          6           0       13.451061    0.503235    0.428962
     14          6           0       10.734966   -0.012936    0.102669
     15          6           0       -9.536867    0.019552    0.141839
     16          6           0       13.084194   -0.273085   -0.825955
     17          6           0       11.615632   -0.591616   -0.740160
     18          6           0       10.203472    2.343439    0.857535
     19          6           0       11.150603    0.504560    2.350948
     20          6           0      -11.198599   -0.030985   -2.553222
     21          6           0       -8.488379    0.895236   -0.094336
     22          6           0        9.330293   -0.385993    0.080551
     23          6           0       11.121286   -1.519294   -1.906165
     24          6           0       -7.109838    0.480352    0.096485
     25          6           0        8.759724   -1.598216    0.160586
     26          6           0       -6.746524   -0.978198    0.322232
     27          6           0        7.454288   -2.026590    0.103140
     28          6           0       -6.178001    1.418966   -0.141422
     29          6           0        7.213108   -3.508871    0.376561
     30          6           0        6.471243   -1.115486   -0.222461
     31          6           0       -4.805332    1.268883   -0.261619
     32          6           0        5.055392   -1.470466   -0.204327
     33          6           0       -4.035725    2.397611   -0.564829
     34          6           0       -2.623101    2.506774   -0.727950
     35          6           0        4.051510   -0.640809   -0.551553
     36          6           0        2.618966   -0.898820   -0.479316
     37          6           0       -2.040127    3.772750   -1.151625
     38          6           0       -1.844525    1.258402   -0.618530
     39          6           0        1.718116    0.175168   -0.739271
     40          6           0        2.206011   -2.194099    0.059209
     41          6           0       -0.465414    1.314423   -0.810257
     42          6           0        0.287979    0.149367   -0.767571
     43          1           0      -10.954411    1.479464   -0.256379
     44          1           0      -12.416803   -1.728554    2.455541
     45          1           0      -10.942029   -1.551100    1.649163
     46          1           0      -12.339339   -2.988781    0.469516
     47          1           0       -9.958504    0.309210    2.314626
     48          1           0      -11.165143    1.926941    2.317797
     49          1           0      -11.592045    0.488151    3.519922
     50          1           0      -13.829810    0.592898    0.348650
     51          1           0      -13.840672    1.022647    2.124223
     52          1           0      -13.090831    1.921751    1.059489
     53          1           0       12.706298    2.224750   -0.276943
     54          1           0       12.999368    2.100407    1.683415
     55          1           0      -12.724196   -2.218737   -1.772234
     56          1           0       13.288242   -0.267421    1.360565
     57          1           0       -9.248687   -1.074532    0.178722
     58          1           0       13.683974   -1.154232   -0.966269
     59          1           0       13.331073    0.358945   -1.781600
     60          1           0        9.155874    2.123666    1.186050
     61          1           0       10.083747    2.664766   -0.029960
     62          1           0       10.316009    3.217164    1.463352
     63          1           0       11.655553   -0.306252    2.548620
     64          1           0       10.146263    0.206240    2.555052
     65          1           0       11.508239    1.362952    3.118944
     66          1           0      -10.225296   -0.000872   -2.849590
     67          1           0      -11.837307    0.860429   -2.960815
     68          1           0      -11.881758   -0.450733   -3.282394
     69          1           0      -14.669373   -2.363197   -0.183079
     70          1           0        8.684596    0.451341    0.392125
     71          1           0       -8.800482    1.860282   -0.388774
     72          1           0       11.480395   -2.592030   -1.585095
     73          1           0       10.101156   -1.488097   -2.336329
     74          1           0       11.674404   -1.332382   -2.772329
     75          1           0       15.304298    1.003202    1.108459
     76          1           0        9.465595   -2.505480    0.266905
     77          1           0       -5.785404   -1.188158    0.273342
     78          1           0       -7.073325   -1.125988    1.241101
     79          1           0       -7.238647   -1.843516   -0.369793
     80          1           0       -6.633919    2.289917   -0.405474
     81          1           0        6.402083   -3.338010    1.270969
     82          1           0        6.959359   -4.291776   -0.455243
     83          1           0        8.369107   -3.862176    0.783912
     84          1           0        6.667446   -0.114839   -0.503872
     85          1           0       -4.439680    0.348623    0.012732
     86          1           0        4.983127   -2.523877    0.162483
     87          1           0       -4.608364    3.254704   -0.491124
     88          1           0        4.250351    0.667576   -0.639299
     89          1           0       -1.173666    3.642644   -1.899860
     90          1           0       -1.663475    4.267969   -0.283332
     91          1           0       -2.682938    4.565022   -1.566872
     92          1           0       -2.227617    0.382191   -0.371088
     93          1           0        2.188780    1.064767   -1.018467
     94          1           0        2.417625   -2.212835    1.176089
     95          1           0        1.094672   -2.464786   -0.075645
     96          1           0        3.069975   -3.140199   -0.297327
     97          1           0        0.015679    2.288631   -0.942305
     98          1           0       -0.082103   -0.790717   -0.497962
 ---------------------------------------------------------------------

 SCF Done:  E(RCAM-B3LYP) =  -1706.89655707     A.U. after   15 cycles

 Excitation energies and oscillator strengths:

 Excited State   1:      Singlet-A      2.0239 eV  612.59 nm  f=3.0352  <S**2>=0.000
     155 ->158        -0.15096
     156 ->157         0.69284
 This state for optimization and/or second-order correction.
 Total Energy, E(TD-HF/TD-DFT) =  -1706.82217938
 Copying the excited state density for this state as the 1-particle RhoCI density.

 The electronic state is 1-A.
 Alpha  occ. eigenvalues --  -19.21533 -19.20457 -10.30913 -10.29959 -10.29333
 Alpha  occ. eigenvalues --  -10.28229 -10.28228 -10.28113 -10.27710 -10.27384
 Alpha  occ. eigenvalues --  -10.27288 -10.27048 -10.26972 -10.26725 -10.26591
 Alpha  occ. eigenvalues --  -10.26513 -10.26389 -10.26332 -10.26270 -10.26194
 Alpha  occ. eigenvalues --  -10.26143 -10.26032 -10.26011 -10.25994 -10.25992
 Alpha  occ. eigenvalues --  -10.25787 -10.25733 -10.25708 -10.25621 -10.25547
 Alpha  occ. eigenvalues --  -10.25477 -10.25466 -10.25441 -10.25351 -10.24934
 Alpha  occ. eigenvalues --  -10.24700 -10.24681 -10.24389 -10.24207 -10.23764
 Alpha  occ. eigenvalues --  -10.23218 -10.21906  -1.09352  -1.08554  -0.94529
 Alpha  occ. eigenvalues --   -0.93629  -0.92445  -0.91767  -0.91107  -0.89964
 Alpha  occ. eigenvalues --   -0.87307  -0.87011  -0.86714  -0.85531  -0.84811
 Alpha  occ. eigenvalues --   -0.82927  -0.82362  -0.80810  -0.79636  -0.78560
 Alpha  occ. eigenvalues --   -0.78286  -0.78251  -0.76425  -0.75763  -0.75535
 Alpha  occ. eigenvalues --   -0.75492  -0.74746  -0.73017  -0.72622  -0.70785
 Alpha  occ. eigenvalues --   -0.69169  -0.67385  -0.66184  -0.65428  -0.64272
 Alpha  occ. eigenvalues --   -0.63291  -0.62746  -0.62723  -0.61745  -0.60461
 Alpha  occ. eigenvalues --   -0.59178  -0.58676  -0.58452  -0.57886  -0.57029
 Alpha  occ. eigenvalues --   -0.56324  -0.55067  -0.54549  -0.54323  -0.53788
 Alpha  occ. eigenvalues --   -0.53389  -0.53170  -0.52432  -0.52195  -0.51182
 Alpha  occ. eigenvalues --   -0.50893  -0.50649  -0.50171  -0.49495  -0.49406
 Alpha  occ. eigenvalues --   -0.49257  -0.49115  -0.48966  -0.48386  -0.47731
 Alpha  occ. eigenvalues --   -0.47390  -0.47090  -0.46680  -0.46501  -0.46321
 Alpha  occ. eigenvalues --   -0.46181  -0.45408  -0.45291  -0.45060  -0.44702
 Alpha  occ. eigenvalues --   -0.44290  -0.43835  -0.43412  -0.43057  -0.42906
 Alpha  occ. eigenvalues --   -0.42672  -0.42395  -0.42140  -0.42057  -0.41957
 Alpha  occ. eigenvalues --   -0.41668  -0.41562  -0.41232  -0.41148  -0.40589
 Alpha  occ. eigenvalues --   -0.40406  -0.40081  -0.39989  -0.39678  -0.39559
 Alpha  occ. eigenvalues --   -0.39111  -0.38683  -0.38193  -0.38005  -0.37624
 Alpha  occ. eigenvalues --   -0.37290  -0.36824  -0.36297  -0.35680  -0.35229
 Alpha  occ. eigenvalues --   -0.35072  -0.33976  -0.33616  -0.31551  -0.31427
 Alpha  occ. eigenvalues --   -0.31267  -0.29136  -0.28408  -0.26454  -0.23116
 Alpha  occ. eigenvalues --   -0.19059
 Alpha virt. eigenvalues --   -0.06158  -0.01474   0.02444   0.05075   0.06747
 Alpha virt. eigenvalues --    0.08348   0.09884   0.10812   0.12116   0.12179
 Alpha virt. eigenvalues --    0.12520   0.13125   0.13757   0.14005   0.14203

 Mulliken charges:
               1
     1  O   -0.530528
     2  O   -0.577778
     3  C    0.032098
     4  C   -0.141230
     5  C   -0.186866
     6  C    0.130614
     7  C    0.150602
     8  C   -0.019442
     9  C   -0.276087
    10  C   -0.300251
    11  C   -0.153445
    12  C   -0.143875
    13  C    0.158719
    14  C    0.064766
    15  C   -0.115113
    16  C   -0.207249
    17  C    0.032578
    18  C   -0.315511
    19  C   -0.282883
    20  C   -0.366940
    21  C   -0.094291
    22  C   -0.126834
    23  C   -0.353344
    24  C    0.079806
    25  C   -0.094491
    26  C   -0.355366
    27  C    0.100613
    28  C   -0.105812
    29  C   -0.349565
    30  C   -0.092212
    31  C   -0.046241
    32  C   -0.092131
    33  C   -0.132228
    34  C    0.082196
    35  C   -0.121409
    36  C    0.134108
    37  C   -0.394443
    38  C   -0.077911
    39  C   -0.122729
    40  C   -0.369637
    41  C   -0.073157
    42  C   -0.087149
    43  H    0.069742
    44  H    0.089596
    45  H    0.081435
    46  H    0.100746
    47  H    0.097573
    48  H    0.053817
    49  H    0.095249
    50  H    0.105664
    51  H    0.096407
    52  H    0.096201
    53  H    0.102977
    54  H    0.086026
    55  H    0.071263
    56  H    0.047926
    57  H    0.088390
    58  H    0.121855
    59  H    0.103466
    60  H    0.088018
    61  H    0.120568
    62  H    0.101763
    63  H    0.120211
    64  H    0.110008
    65  H    0.062467
    66  H    0.135301
    67  H    0.094390
    68  H    0.111267
    69  H    0.303642
    70  H    0.078621
    71  H    0.090925
    72  H    0.092404
    73  H    0.122295
    74  H    0.109442
    75  H    0.301805
    76  H    0.063256
    77  H    0.110619
    78  H    0.140427
    79  H    0.097958
    80  H    0.070114
    81  H    0.114223
    82  H    0.130754
    83  H    0.080906
    84  H    0.083909
    85  H    0.079690
    86  H    0.078310
    87  H    0.081417
    88  H    0.057113
    89  H    0.118960
    90  H    0.136584
    91  H    0.121089
    92  H    0.075828
    93  H    0.072603
    94  H    0.130625
    95  H    0.106141
    96  H    0.075818
    97  H    0.089785
    98  H    0.072457
 Sum of Mulliken charges =  -0.00000

 Dipole moment (field-independent basis, Debye):
    X=              0.5861    Y=             -0.3438    Z=             -0.2886  Tot=              0.7382
 Quadrupole moment (field-independent basis, Debye-Ang):
   XX=           -283.0808   YY=           -242.0181   ZZ=           -261.9044
   XY=              9.3943   XZ=             41.6776   YZ=             -0.4157

 Normal termination of Gaussian 16 at Sat Jul 13 21:32:15 2019.
