 Gaussian 16, Revision A.03,
 Gaussian 16:  ES64L-G16RevA.03 25-Dec-2016

 -------------------------------------
 # td=(NStates=1) CAM-B3LYP/6-31G(d,p)
 -------------------------------------

 --
 TD
 --
 Symbolic Z-matrix:
 Charge =  0 Multiplicity = 1

                         Standard orientation:
 ---------------------------------------------------------------------
 Center     Atomic      Atomic             Coordinates (Angstroms)
 Number     Number       Type             X           Y           Z
 ---------------------------------------------------------------------
      1          8           0      -13.948092   -2.183475    0.612752
      2          8           0       14.774220    0.847629    0.244014
      3          6           0      -11.780762    0.047169    1.292229
      4          6           0      -11.046324    0.317249   -0.003252
      5          6           0      -11.969220   -1.440728    1.539184
      6          6           0      -12.561625   -2.273180    0.359746
      7          6           0      -11.500972   -0.557241   -1.196114
      8          6           0       11.164559    0.923644    1.006695
      9          6           0      -11.016599    0.644211    2.415499
     10          6           0      -13.158204    0.740056    1.172471
     11          6           0       12.546117    1.465963    0.739958
     12          6           0      -12.161786   -1.715798   -0.963090
     13          6           0       13.497100    0.288270    0.498108
     14          6           0       10.680712   -0.022669   -0.009052
     15          6           0       -9.505712   -0.005227    0.045450
     16          6           0       13.139973   -0.427345   -0.758734
     17          6           0       11.589337   -0.662434   -0.841099
     18          6           0       10.164388    2.204614    0.887356
     19          6           0       11.032124    0.414631    2.492456
     20          6           0      -11.251985   -0.044534   -2.532786
     21          6           0       -8.497335    0.955751   -0.131140
     22          6           0        9.216916   -0.399912    0.105174
     23          6           0       11.219470   -1.575838   -1.978506
     24          6           0       -7.126056    0.617222   -0.207705
     25          6           0        8.731308   -1.642622   -0.157077
     26          6           0       -6.654465   -0.816568   -0.006991
     27          6           0        7.294038   -2.047881   -0.006184
     28          6           0       -6.184757    1.620693   -0.422216
     29          6           0        7.001860   -3.449084    0.280683
     30          6           0        6.339097   -1.163601   -0.254689
     31          6           0       -4.774221    1.561444   -0.464885
     32          6           0        4.886813   -1.411187   -0.181684
     33          6           0       -3.966180    2.593379   -0.639997
     34          6           0       -2.546350    2.661641   -0.547332
     35          6           0        3.937655   -0.499592   -0.316915
     36          6           0        2.572599   -0.822806   -0.203883
     37          6           0       -1.937460    3.992924   -1.018985
     38          6           0       -1.731941    1.598709   -0.390307
     39          6           0        1.634542    0.346120   -0.417024
     40          6           0        2.129499   -2.247030   -0.060443
     41          6           0       -0.454909    1.531237   -0.492030
     42          6           0        0.263566    0.364169   -0.357610
     43          1           0      -11.257724    1.481671   -0.115584
     44          1           0      -12.407701   -1.811476    2.565318
     45          1           0      -11.027392   -1.843262    1.451018
     46          1           0      -12.242703   -3.400602    0.726941
     47          1           0       -9.890824    0.105495    2.599887
     48          1           0      -10.886093    1.918669    2.290829
     49          1           0      -11.509395    0.486570    3.255216
     50          1           0      -13.743927    0.456587    0.366798
     51          1           0      -13.778942    0.827249    2.106001
     52          1           0      -13.178940    1.962621    0.787323
     53          1           0       12.548612    2.026299   -0.150159
     54          1           0       12.984784    2.069279    1.643673
     55          1           0      -12.495048   -2.390808   -1.905090
     56          1           0       13.263998   -0.358567    1.206608
     57          1           0       -9.095922   -1.107278    0.303356
     58          1           0       13.535213   -1.429039   -0.817218
     59          1           0       13.596096    0.013756   -1.915260
     60          1           0        9.204805    2.138526    1.193553
     61          1           0       10.211584    2.581463   -0.169866
     62          1           0       10.381323    3.209438    1.451742
     63          1           0       11.790917   -0.412018    2.445895
     64          1           0       10.019822    0.031228    2.532773
     65          1           0       11.122795    1.373141    3.166088
     66          1           0      -10.284889    0.518040   -2.488596
     67          1           0      -11.803059    0.914424   -2.774279
     68          1           0      -11.225881   -0.595398   -3.664817
     69          1           0      -14.497105   -2.636674   -0.054697
     70          1           0        8.481719    0.395239    0.219254
     71          1           0       -8.695135    1.981078   -0.304169
     72          1           0       11.406148   -2.729881   -1.724120
     73          1           0       10.319474   -1.700631   -2.314683
     74          1           0       11.666802   -1.148029   -2.864247
     75          1           0       15.098065    1.152016    1.029869
     76          1           0        9.582958   -2.546335    0.043227
     77          1           0       -5.491193   -0.718171    0.082794
     78          1           0       -7.206595   -1.197419    0.807516
     79          1           0       -7.029161   -1.527151   -0.794475
     80          1           0       -6.611410    2.663430   -0.516364
     81          1           0        6.631362   -3.484900    1.195053
     82          1           0        6.105757   -3.772236   -0.460353
     83          1           0        8.045823   -4.015750    0.301797
     84          1           0        6.569660   -0.061125   -0.406767
     85          1           0       -4.394969    0.450047   -0.510136
     86          1           0        4.710607   -2.498209    0.012053
     87          1           0       -4.516595    3.510527   -0.825872
     88          1           0        4.000974    0.665255   -0.515492
     89          1           0       -1.266628    4.138990   -2.075597
     90          1           0       -1.112055    4.195715   -0.136111
     91          1           0       -2.705071    4.732454   -1.130359
     92          1           0       -2.451790    0.729106   -0.059655
     93          1           0        2.102146    1.208148   -0.562021
     94          1           0        2.300404   -2.781394    0.803785
     95          1           0        1.014960   -2.182226   -0.051346
     96          1           0        2.319418   -2.860517   -0.844598
     97          1           0        0.163043    2.436617   -0.667282
     98          1           0       -0.271015   -0.460119   -0.274952
 ---------------------------------------------------------------------

 SCF Done:  E(RCAM-B3LYP) =  -1706.85290119     A.U. after   15 cycles

 Excitation energies and oscillator strengths:

 Excited State   1:      Singlet-A      2.0524 eV  604.11 nm  f=3.0381  <S**2>=0.000
     155 ->158        -0.12550
     156 ->157         0.69959
     156 <-157        -0.10732
 This state for optimization and/or second-order correction.
 Total Energy, E(TD-HF/TD-DFT) =  -1706.77747848
 Copying the excited state density for this state as the 1-particle RhoCI density.

 The electronic state is 1-A.
 Alpha  occ. eigenvalues --  -19.20874 -19.20612 -10.31857 -10.29164 -10.28519
 Alpha  occ. eigenvalues --  -10.28413 -10.28347 -10.28207 -10.27720 -10.27510
 Alpha  occ. eigenvalues --  -10.27440 -10.27225 -10.27070 -10.27059 -10.26889
 Alpha  occ. eigenvalues --  -10.26887 -10.26743 -10.26738 -10.26595 -10.26589
 Alpha  occ. eigenvalues --  -10.26578 -10.26479 -10.26439 -10.26434 -10.26381
 Alpha  occ. eigenvalues --  -10.26243 -10.26108 -10.26081 -10.26078 -10.25882
 Alpha  occ. eigenvalues --  -10.25769 -10.25747 -10.25509 -10.25437 -10.25086
 Alpha  occ. eigenvalues --  -10.25049 -10.24839 -10.24700 -10.24543 -10.24383
 Alpha  occ. eigenvalues --  -10.24317 -10.24141  -1.11107  -1.08976  -0.94048
 Alpha  occ. eigenvalues --   -0.93634  -0.93252  -0.91994  -0.91188  -0.90166
 Alpha  occ. eigenvalues --   -0.88256  -0.87338  -0.85993  -0.85553  -0.84855
 Alpha  occ. eigenvalues --   -0.83138  -0.82242  -0.80711  -0.80318  -0.79128
 Alpha  occ. eigenvalues --   -0.76968  -0.76441  -0.76148  -0.75897  -0.75617
 Alpha  occ. eigenvalues --   -0.75145  -0.74725  -0.74650  -0.73236  -0.70457
 Alpha  occ. eigenvalues --   -0.68859  -0.67664  -0.66757  -0.65204  -0.64324
 Alpha  occ. eigenvalues --   -0.63622  -0.63232  -0.61988  -0.61407  -0.60570
 Alpha  occ. eigenvalues --   -0.59369  -0.58790  -0.58589  -0.57361  -0.56741
 Alpha  occ. eigenvalues --   -0.55403  -0.55000  -0.54761  -0.54313  -0.53807
 Alpha  occ. eigenvalues --   -0.53166  -0.53067  -0.52323  -0.51837  -0.50936
 Alpha  occ. eigenvalues --   -0.50323  -0.50067  -0.49985  -0.49772  -0.49346
 Alpha  occ. eigenvalues --   -0.49246  -0.48615  -0.48592  -0.48297  -0.47428
 Alpha  occ. eigenvalues --   -0.47231  -0.47185  -0.47084  -0.46110  -0.45809
 Alpha  occ. eigenvalues --   -0.45571  -0.45317  -0.45169  -0.44509  -0.44129
 Alpha  occ. eigenvalues --   -0.43935  -0.43559  -0.43501  -0.43321  -0.43178
 Alpha  occ. eigenvalues --   -0.42933  -0.42818  -0.42455  -0.42106  -0.41849
 Alpha  occ. eigenvalues --   -0.41747  -0.41416  -0.41148  -0.40855  -0.40488
 Alpha  occ. eigenvalues --   -0.40380  -0.39974  -0.39867  -0.39213  -0.38991
 Alpha  occ. eigenvalues --   -0.38710  -0.38167  -0.37968  -0.37921  -0.37687
 Alpha  occ. eigenvalues --   -0.37438  -0.37278  -0.36988  -0.36841  -0.36516
 Alpha  occ. eigenvalues --   -0.35374  -0.35047  -0.34272  -0.32062  -0.31893
 Alpha  occ. eigenvalues --   -0.31505  -0.29490  -0.29108  -0.26446  -0.24313
 Alpha  occ. eigenvalues --   -0.19029
 Alpha virt. eigenvalues --   -0.06461  -0.00636   0.01858   0.05140   0.06670
 Alpha virt. eigenvalues --    0.08555   0.11007   0.11188   0.11569   0.11978
 Alpha virt. eigenvalues --    0.12548   0.12832   0.12874   0.13257   0.13973

 Mulliken charges:
               1
     1  O   -0.538241
     2  O   -0.543551
     3  C    0.041013
     4  C   -0.151824
     5  C   -0.172977
     6  C    0.141892
     7  C    0.156452
     8  C   -0.054235
     9  C   -0.257093
    10  C   -0.280802
    11  C   -0.158992
    12  C   -0.142454
    13  C    0.169986
    14  C    0.086203
    15  C   -0.110350
    16  C   -0.197444
    17  C    0.004079
    18  C   -0.329676
    19  C   -0.284324
    20  C   -0.373140
    21  C   -0.071341
    22  C   -0.098070
    23  C   -0.340397
    24  C    0.117430
    25  C   -0.115818
    26  C   -0.368881
    27  C    0.079095
    28  C   -0.144093
    29  C   -0.368923
    30  C   -0.096850
    31  C   -0.062796
    32  C   -0.123338
    33  C   -0.130828
    34  C    0.082292
    35  C   -0.081966
    36  C    0.090450
    37  C   -0.348690
    38  C   -0.076042
    39  C   -0.128348
    40  C   -0.384498
    41  C   -0.087521
    42  C   -0.040004
    43  H    0.100104
    44  H    0.101080
    45  H    0.097161
    46  H    0.055283
    47  H    0.073344
    48  H    0.061512
    49  H    0.112353
    50  H    0.132722
    51  H    0.102395
    52  H    0.029872
    53  H    0.110966
    54  H    0.065386
    55  H    0.067719
    56  H    0.090273
    57  H    0.086911
    58  H    0.117684
    59  H    0.078777
    60  H    0.109939
    61  H    0.099744
    62  H    0.072371
    63  H    0.093979
    64  H    0.114681
    65  H    0.101636
    66  H    0.117720
    67  H    0.115882
    68  H    0.102811
    69  H    0.296151
    70  H    0.099918
    71  H    0.081040
    72  H    0.086905
    73  H    0.129552
    74  H    0.108118
    75  H    0.291725
    76  H    0.065348
    77  H    0.097827
    78  H    0.124486
    79  H    0.120138
    80  H    0.069222
    81  H    0.147666
    82  H    0.109690
    83  H    0.097749
    84  H    0.073731
    85  H    0.080974
    86  H    0.081069
    87  H    0.081581
    88  H    0.083814
    89  H    0.091094
    90  H    0.094395
    91  H    0.110989
    92  H    0.067820
    93  H    0.065506
    94  H    0.130932
    95  H    0.100599
    96  H    0.137789
    97  H    0.086935
    98  H    0.069549
 Sum of Mulliken charges =  -0.00000

 Dipole moment (field-independent basis, Debye):
    X=             -0.5586    Y=             -1.3351    Z=              0.1647  Tot=              1.4566
 Quadrupole moment (field-independent basis, Debye-Ang):
   XX=           -275.0446   YY=           -245.3791   ZZ=           -262.4902
   XY=              2.3819   XZ=             36.7231   YZ=             -0.0963

 Normal termination of Gaussian 16 at Sun Jul 14 00:31:11 2019.
