 Gaussian 16, Revision A.03,
 Gaussian 16:  ES64L-G16RevA.03 25-Dec-2016

 -------------------------------------
 # td=(NStates=1) CAM-B3LYP/6-31G(d,p)
 -------------------------------------

 --
 TD
 --
 Symbolic Z-matrix:
 Charge =  0 Multiplicity = 1

                         Standard orientation:
 ---------------------------------------------------------------------
 Center     Atomic      Atomic             Coordinates (Angstroms)
 Number     Number       Type             X           Y           Z
 ---------------------------------------------------------------------
      1          8           0      -13.906384   -2.156986    0.418817
      2          8           0       14.840777    0.647337    0.233649
      3          6           0      -11.754180   -0.197068    1.323110
      4          6           0      -11.073270    0.335738    0.073453
      5          6           0      -11.740450   -1.692703    1.161232
      6          6           0      -12.569327   -2.265553    0.100147
      7          6           0      -11.572007   -0.229718   -1.265675
      8          6           0       11.239242    0.915235    1.157932
      9          6           0      -10.862692    0.104257    2.587625
     10          6           0      -13.162666    0.396580    1.530886
     11          6           0       12.637091    1.374418    0.917485
     12          6           0      -12.306971   -1.397516   -1.120796
     13          6           0       13.469183    0.231816    0.415349
     14          6           0       10.743925    0.014985    0.006335
     15          6           0       -9.465924    0.070170    0.151169
     16          6           0       13.039400   -0.363728   -0.893930
     17          6           0       11.595376   -0.523554   -0.956866
     18          6           0       10.303520    2.120712    1.236442
     19          6           0       11.018511    0.090357    2.436499
     20          6           0      -11.360073    0.468446   -2.506838
     21          6           0       -8.527874    0.978411   -0.250438
     22          6           0        9.321429   -0.283441   -0.051705
     23          6           0       11.072719   -1.404702   -2.121526
     24          6           0       -7.121693    0.561507   -0.143179
     25          6           0        8.844820   -1.521719   -0.327324
     26          6           0       -6.889307   -0.823386    0.027858
     27          6           0        7.381618   -1.947264   -0.278865
     28          6           0       -6.239423    1.643102   -0.426411
     29          6           0        7.016474   -3.434049   -0.238967
     30          6           0        6.390401   -1.028683   -0.245380
     31          6           0       -4.889390    1.538420   -0.448512
     32          6           0        5.022556   -1.377876   -0.242637
     33          6           0       -4.089182    2.654803   -0.625020
     34          6           0       -2.690385    2.689807   -0.569787
     35          6           0        3.931763   -0.493243   -0.361211
     36          6           0        2.568682   -0.683100   -0.129625
     37          6           0       -1.984692    4.030085   -0.888482
     38          6           0       -1.905377    1.472355   -0.268893
     39          6           0        1.632811    0.335240   -0.234410
     40          6           0        2.174837   -2.111643    0.155839
     41          6           0       -0.457201    1.506063   -0.340117
     42          6           0        0.304620    0.350109   -0.069850
     43          1           0      -11.333365    1.367168   -0.135447
     44          1           0      -12.225249   -2.290634    2.037978
     45          1           0      -10.750677   -2.262953    0.987036
     46          1           0      -12.233337   -3.376811    0.115014
     47          1           0       -9.755663   -0.151252    2.315456
     48          1           0      -10.861787    1.297484    2.888845
     49          1           0      -11.354944   -0.261142    3.526891
     50          1           0      -13.661628    0.254952    0.710114
     51          1           0      -13.611156    0.058687    2.453235
     52          1           0      -13.118648    1.524564    1.677605
     53          1           0       12.574721    2.227197    0.140182
     54          1           0       13.114387    1.540474    1.647614
     55          1           0      -12.867784   -1.719236   -2.024607
     56          1           0       13.685493   -0.548631    1.112389
     57          1           0       -9.219800   -0.915081    0.245798
     58          1           0       13.697546   -1.151785   -1.229908
     59          1           0       13.487214    0.500887   -1.469162
     60          1           0        9.248611    1.794398    1.484397
     61          1           0       10.258682    2.611379    0.134494
     62          1           0       10.585124    2.879435    1.923272
     63          1           0       11.660873   -0.995211    2.346542
     64          1           0       10.120946   -0.283865    2.565208
     65          1           0       11.185825    0.720555    3.410844
     66          1           0      -10.361565    0.806923   -2.659406
     67          1           0      -12.091945    1.336205   -2.585022
     68          1           0      -11.818569   -0.210713   -3.313254
     69          1           0      -14.562314   -2.089546   -0.333004
     70          1           0        8.597145    0.340029    0.177596
     71          1           0       -8.842199    2.072538   -0.507063
     72          1           0       11.463712   -2.356462   -1.890024
     73          1           0       10.055462   -1.329885   -2.098934
     74          1           0       11.450401   -1.113381   -3.125123
     75          1           0       15.268272    1.303114    0.883162
     76          1           0        9.445639   -2.379711   -0.457736
     77          1           0       -5.849158   -1.012960    0.180210
     78          1           0       -7.292720   -1.122531    1.064586
     79          1           0       -7.110371   -1.481939   -0.772451
     80          1           0       -6.524213    2.682953   -0.543940
     81          1           0        6.320620   -3.827216    0.554489
     82          1           0        6.734223   -3.762207   -1.120415
     83          1           0        8.108400   -3.895226    0.034145
     84          1           0        6.606993    0.067512    0.065608
     85          1           0       -4.302159    0.723391   -0.351436
     86          1           0        4.750518   -2.374667   -0.060075
     87          1           0       -4.746409    3.611137   -0.861436
     88          1           0        4.272352    0.705913   -0.351091
     89          1           0       -1.628985    4.120441   -1.976094
     90          1           0       -1.085240    4.307445   -0.321218
     91          1           0       -2.843465    4.909617   -0.719812
     92          1           0       -2.519164    0.702787   -0.346281
     93          1           0        2.090064    1.241840   -0.571419
     94          1           0        2.681000   -2.327263    1.098002
     95          1           0        1.105812   -1.940314    0.433637
     96          1           0        2.184889   -2.791068   -0.621370
     97          1           0        0.042384    2.282858   -0.617348
     98          1           0        0.018677   -0.565045   -0.020518
 ---------------------------------------------------------------------

 SCF Done:  E(RCAM-B3LYP) =  -1706.88572218     A.U. after   15 cycles

 Excitation energies and oscillator strengths:

 Excited State   1:      Singlet-A      1.9075 eV  649.99 nm  f=3.0182  <S**2>=0.000
     155 ->158        -0.13157
     156 ->157         0.69986
     156 <-157        -0.11382
 This state for optimization and/or second-order correction.
 Total Energy, E(TD-HF/TD-DFT) =  -1706.81562388
 Copying the excited state density for this state as the 1-particle RhoCI density.

 The electronic state is 1-A.
 Alpha  occ. eigenvalues --  -19.21121 -19.19737 -10.30645 -10.29099 -10.28415
 Alpha  occ. eigenvalues --  -10.27919 -10.27592 -10.27246 -10.27197 -10.27146
 Alpha  occ. eigenvalues --  -10.26756 -10.26723 -10.26666 -10.26607 -10.26581
 Alpha  occ. eigenvalues --  -10.26514 -10.26452 -10.26378 -10.26287 -10.26193
 Alpha  occ. eigenvalues --  -10.26097 -10.26000 -10.25921 -10.25878 -10.25852
 Alpha  occ. eigenvalues --  -10.25829 -10.25820 -10.25650 -10.25609 -10.25564
 Alpha  occ. eigenvalues --  -10.25509 -10.25235 -10.25078 -10.24853 -10.24780
 Alpha  occ. eigenvalues --  -10.24658 -10.24594 -10.24271 -10.24161 -10.23487
 Alpha  occ. eigenvalues --  -10.23325 -10.22592  -1.10054  -1.06936  -0.94050
 Alpha  occ. eigenvalues --   -0.93588  -0.92578  -0.92131  -0.90551  -0.89975
 Alpha  occ. eigenvalues --   -0.87749  -0.87147  -0.86887  -0.85913  -0.84725
 Alpha  occ. eigenvalues --   -0.83337  -0.81972  -0.80970  -0.80257  -0.78583
 Alpha  occ. eigenvalues --   -0.77766  -0.77084  -0.76148  -0.76033  -0.75634
 Alpha  occ. eigenvalues --   -0.75552  -0.75379  -0.73571  -0.72875  -0.70779
 Alpha  occ. eigenvalues --   -0.69013  -0.67726  -0.66847  -0.65901  -0.64356
 Alpha  occ. eigenvalues --   -0.64215  -0.63746  -0.62882  -0.61645  -0.59690
 Alpha  occ. eigenvalues --   -0.59461  -0.58853  -0.58472  -0.58063  -0.56568
 Alpha  occ. eigenvalues --   -0.56246  -0.55477  -0.55189  -0.54300  -0.54117
 Alpha  occ. eigenvalues --   -0.52879  -0.52768  -0.52694  -0.51651  -0.51379
 Alpha  occ. eigenvalues --   -0.51173  -0.50958  -0.50439  -0.50227  -0.49937
 Alpha  occ. eigenvalues --   -0.49636  -0.49182  -0.48939  -0.48658  -0.48246
 Alpha  occ. eigenvalues --   -0.48103  -0.47393  -0.47058  -0.46870  -0.46699
 Alpha  occ. eigenvalues --   -0.46513  -0.45812  -0.45589  -0.45094  -0.44940
 Alpha  occ. eigenvalues --   -0.44570  -0.44251  -0.44134  -0.43775  -0.43313
 Alpha  occ. eigenvalues --   -0.43151  -0.42340  -0.42298  -0.42002  -0.41934
 Alpha  occ. eigenvalues --   -0.41571  -0.41411  -0.41341  -0.40971  -0.40590
 Alpha  occ. eigenvalues --   -0.40346  -0.40114  -0.39914  -0.39760  -0.39338
 Alpha  occ. eigenvalues --   -0.39170  -0.38620  -0.38550  -0.37866  -0.37355
 Alpha  occ. eigenvalues --   -0.36751  -0.36694  -0.36236  -0.35860  -0.35498
 Alpha  occ. eigenvalues --   -0.35005  -0.34253  -0.33681  -0.31847  -0.31596
 Alpha  occ. eigenvalues --   -0.31235  -0.29239  -0.28079  -0.26104  -0.23301
 Alpha  occ. eigenvalues --   -0.18465
 Alpha virt. eigenvalues --   -0.06528  -0.01018   0.02764   0.05182   0.06750
 Alpha virt. eigenvalues --    0.08767   0.10896   0.11663   0.12266   0.12643
 Alpha virt. eigenvalues --    0.12880   0.13344   0.13560   0.13656   0.13900

 Mulliken charges:
               1
     1  O   -0.547542
     2  O   -0.616753
     3  C    0.018866
     4  C   -0.124269
     5  C   -0.169125
     6  C    0.181627
     7  C    0.131696
     8  C   -0.015672
     9  C   -0.283895
    10  C   -0.270672
    11  C   -0.110830
    12  C   -0.165733
    13  C    0.162062
    14  C    0.054424
    15  C   -0.121168
    16  C   -0.233657
    17  C    0.046783
    18  C   -0.304232
    19  C   -0.285547
    20  C   -0.371107
    21  C   -0.090174
    22  C   -0.087029
    23  C   -0.355634
    24  C    0.103661
    25  C   -0.111867
    26  C   -0.398802
    27  C    0.050555
    28  C   -0.126883
    29  C   -0.361014
    30  C   -0.101135
    31  C   -0.008359
    32  C   -0.103174
    33  C   -0.146706
    34  C    0.071288
    35  C   -0.111473
    36  C    0.070432
    37  C   -0.368018
    38  C   -0.094968
    39  C   -0.107642
    40  C   -0.368425
    41  C   -0.074709
    42  C   -0.037825
    43  H    0.082913
    44  H    0.086799
    45  H    0.089059
    46  H    0.068051
    47  H    0.099494
    48  H    0.062375
    49  H    0.101467
    50  H    0.107026
    51  H    0.106117
    52  H    0.074394
    53  H    0.096204
    54  H    0.065291
    55  H    0.044124
    56  H    0.093979
    57  H    0.108804
    58  H    0.112354
    59  H    0.119113
    60  H    0.097160
    61  H    0.084399
    62  H    0.107165
    63  H    0.069544
    64  H    0.127603
    65  H    0.080518
    66  H    0.134614
    67  H    0.113183
    68  H    0.110962
    69  H    0.313003
    70  H    0.070205
    71  H    0.084977
    72  H    0.118026
    73  H    0.132391
    74  H    0.101821
    75  H    0.305046
    76  H    0.088167
    77  H    0.113306
    78  H    0.124132
    79  H    0.144754
    80  H    0.084628
    81  H    0.123557
    82  H    0.145929
    83  H    0.079703
    84  H    0.081798
    85  H    0.069237
    86  H    0.080956
    87  H    0.069575
    88  H    0.044911
    89  H    0.121472
    90  H    0.125464
    91  H    0.085855
    92  H    0.074627
    93  H    0.064424
    94  H    0.125401
    95  H    0.092459
    96  H    0.135752
    97  H    0.078082
    98  H    0.060272
 Sum of Mulliken charges =  -0.00000

 Dipole moment (field-independent basis, Debye):
    X=             -1.6459    Y=              0.0911    Z=             -0.5762  Tot=              1.7463
 Quadrupole moment (field-independent basis, Debye-Ang):
   XX=           -258.8626   YY=           -245.5267   ZZ=           -262.8142
   XY=              4.7544   XZ=             40.7119   YZ=              2.2392

 Normal termination of Gaussian 16 at Sun Jul 14 05:12:06 2019.
