 Gaussian 16, Revision A.03,
 Gaussian 16:  ES64L-G16RevA.03 25-Dec-2016

 -------------------------------------
 # td=(NStates=1) CAM-B3LYP/6-31G(d,p)
 -------------------------------------

 --
 TD
 --
 Symbolic Z-matrix:
 Charge =  0 Multiplicity = 1

                         Standard orientation:
 ---------------------------------------------------------------------
 Center     Atomic      Atomic             Coordinates (Angstroms)
 Number     Number       Type             X           Y           Z
 ---------------------------------------------------------------------
      1          8           0      -13.976984   -2.024762    0.731911
      2          8           0       14.775896    1.182318    0.246331
      3          6           0      -11.797224    0.183778    1.283022
      4          6           0      -10.979484    0.326917   -0.100960
      5          6           0      -11.960071   -1.344227    1.548155
      6          6           0      -12.604535   -2.160343    0.492681
      7          6           0      -11.499814   -0.548328   -1.140795
      8          6           0       11.052761    1.043718    1.135121
      9          6           0      -11.025075    0.883798    2.393232
     10          6           0      -13.111419    0.831798    1.060226
     11          6           0       12.478684    1.510315    0.845216
     12          6           0      -12.217566   -1.619994   -0.839156
     13          6           0       13.494759    0.477481    0.415680
     14          6           0       10.625990   -0.005847    0.062266
     15          6           0       -9.534525    0.022418    0.180584
     16          6           0       12.947681   -0.139621   -0.846912
     17          6           0       11.532169   -0.485442   -0.793533
     18          6           0       10.168206    2.208615    1.093120
     19          6           0       10.814300    0.354030    2.531289
     20          6           0      -11.241089   -0.176209   -2.512542
     21          6           0       -8.519816    0.919628   -0.134474
     22          6           0        9.206124   -0.511745    0.185016
     23          6           0       11.139181   -1.401043   -1.953441
     24          6           0       -7.084053    0.712129   -0.181278
     25          6           0        8.713289   -1.833063    0.045700
     26          6           0       -6.709129   -0.779401    0.234150
     27          6           0        7.438376   -2.266995   -0.076838
     28          6           0       -6.205311    1.619254   -0.459215
     29          6           0        7.076423   -3.733471    0.060636
     30          6           0        6.363603   -1.329581   -0.190476
     31          6           0       -4.799798    1.561300   -0.562897
     32          6           0        4.966855   -1.657571   -0.221387
     33          6           0       -3.886044    2.540349   -0.738320
     34          6           0       -2.501876    2.563272   -0.782215
     35          6           0        4.020642   -0.678507   -0.352033
     36          6           0        2.601620   -0.899796   -0.336870
     37          6           0       -1.830219    3.853749   -1.185154
     38          6           0       -1.706841    1.467880   -0.401647
     39          6           0        1.735612    0.231790   -0.518075
     40          6           0        2.073541   -2.215351   -0.181608
     41          6           0       -0.311465    1.397903   -0.516193
     42          6           0        0.371511    0.296579   -0.391816
     43          1           0      -11.321880    1.480347   -0.246784
     44          1           0      -12.596931   -1.386825    2.326281
     45          1           0      -10.914034   -1.774863    1.738706
     46          1           0      -12.260325   -3.248652    0.615002
     47          1           0       -9.954175    0.297821    2.673840
     48          1           0      -10.876966    1.850535    2.409130
     49          1           0      -11.661738    0.692164    3.203338
     50          1           0      -13.513779    0.619914    0.125459
     51          1           0      -13.958221    0.723508    1.739659
     52          1           0      -13.067474    1.966539    0.971709
     53          1           0       12.467440    2.373972   -0.013513
     54          1           0       12.968627    2.037055    1.775684
     55          1           0      -12.574999   -2.313009   -1.796923
     56          1           0       13.380027   -0.267763    1.196369
     57          1           0       -9.412252   -1.003295    0.743985
     58          1           0       13.372239   -0.964565   -1.191791
     59          1           0       13.102875    0.586180   -1.594300
     60          1           0        9.227382    1.727833    1.596697
     61          1           0       10.044627    2.651815    0.062217
     62          1           0       10.584700    2.961701    1.703393
     63          1           0       11.516524   -0.426513    2.713116
     64          1           0        9.866421    0.089309    2.750398
     65          1           0       11.211095    1.190985    3.248157
     66          1           0      -10.212868   -0.090125   -2.557955
     67          1           0      -11.608933    0.804463   -2.940136
     68          1           0      -11.619931   -0.943668   -3.107181
     69          1           0      -14.290040   -2.297488   -0.038121
     70          1           0        8.407645    0.321774    0.126334
     71          1           0       -8.676470    1.919404   -0.486618
     72          1           0       11.572627   -2.439331   -1.912430
     73          1           0        9.954775   -1.594336   -2.117828
     74          1           0       11.279834   -0.727411   -3.078365
     75          1           0       14.997907    1.306029    1.192675
     76          1           0        9.500139   -2.693708    0.186750
     77          1           0       -5.669669   -0.928332    0.289521
     78          1           0       -6.963945   -0.990471    1.322024
     79          1           0       -7.196555   -1.522903   -0.433755
     80          1           0       -6.637229    2.620718   -0.664540
     81          1           0        6.460460   -4.141206    0.910676
     82          1           0        6.656140   -3.997999   -1.036552
     83          1           0        7.925899   -4.341608    0.193873
     84          1           0        6.810300   -0.193208   -0.518355
     85          1           0       -4.389267    0.472529   -0.344668
     86          1           0        4.772896   -2.541544    0.066818
     87          1           0       -4.360109    3.371378   -1.154102
     88          1           0        4.243204    0.286189   -0.708605
     89          1           0       -1.100825    3.511376   -2.182418
     90          1           0       -1.016824    4.307658   -0.442369
     91          1           0       -2.445217    4.586278   -1.766408
     92          1           0       -2.279277    0.451882   -0.088810
     93          1           0        2.432134    0.977520   -0.804277
     94          1           0        1.848459   -2.273787    1.056984
     95          1           0        0.998753   -2.261576   -0.611127
     96          1           0        2.917293   -3.068266   -0.493763
     97          1           0        0.183180    2.298902   -0.990442
     98          1           0       -0.290799   -0.634760   -0.332142
 ---------------------------------------------------------------------

 SCF Done:  E(RCAM-B3LYP) =  -1706.90151591     A.U. after   15 cycles

 Excitation energies and oscillator strengths:

 Excited State   1:      Singlet-A      2.0129 eV  615.93 nm  f=2.9441  <S**2>=0.000
     155 ->158         0.15760
     156 ->157         0.69088
 This state for optimization and/or second-order correction.
 Total Energy, E(TD-HF/TD-DFT) =  -1706.82754139
 Copying the excited state density for this state as the 1-particle RhoCI density.

 The electronic state is 1-A.
 Alpha  occ. eigenvalues --  -19.22046 -19.20953 -10.30781 -10.30311 -10.28532
 Alpha  occ. eigenvalues --  -10.28389 -10.28102 -10.27716 -10.27708 -10.27640
 Alpha  occ. eigenvalues --  -10.27229 -10.27164 -10.27096 -10.27052 -10.27002
 Alpha  occ. eigenvalues --  -10.26995 -10.26903 -10.26791 -10.26764 -10.26687
 Alpha  occ. eigenvalues --  -10.26660 -10.26424 -10.26400 -10.26352 -10.26316
 Alpha  occ. eigenvalues --  -10.26294 -10.26143 -10.26131 -10.25907 -10.25880
 Alpha  occ. eigenvalues --  -10.25866 -10.25764 -10.25509 -10.25486 -10.25379
 Alpha  occ. eigenvalues --  -10.24387 -10.24276 -10.23923 -10.23895 -10.23705
 Alpha  occ. eigenvalues --  -10.23388 -10.23035  -1.13332  -1.08617  -0.94589
 Alpha  occ. eigenvalues --   -0.93908  -0.92979  -0.92137  -0.91121  -0.90286
 Alpha  occ. eigenvalues --   -0.88338  -0.88165  -0.88045  -0.85433  -0.84697
 Alpha  occ. eigenvalues --   -0.83595  -0.82944  -0.80925  -0.79491  -0.78045
 Alpha  occ. eigenvalues --   -0.77206  -0.76512  -0.76471  -0.76154  -0.76098
 Alpha  occ. eigenvalues --   -0.75545  -0.75309  -0.74076  -0.72750  -0.70690
 Alpha  occ. eigenvalues --   -0.69516  -0.67968  -0.66673  -0.65308  -0.64233
 Alpha  occ. eigenvalues --   -0.63814  -0.62714  -0.62402  -0.60271  -0.59698
 Alpha  occ. eigenvalues --   -0.59457  -0.59159  -0.58793  -0.56959  -0.55999
 Alpha  occ. eigenvalues --   -0.55507  -0.55149  -0.54785  -0.54731  -0.54309
 Alpha  occ. eigenvalues --   -0.53893  -0.53282  -0.52507  -0.52345  -0.51255
 Alpha  occ. eigenvalues --   -0.50746  -0.50680  -0.50155  -0.49489  -0.49166
 Alpha  occ. eigenvalues --   -0.48891  -0.48393  -0.48240  -0.48108  -0.47769
 Alpha  occ. eigenvalues --   -0.47602  -0.47567  -0.47112  -0.46954  -0.46784
 Alpha  occ. eigenvalues --   -0.46479  -0.45890  -0.45301  -0.45041  -0.45017
 Alpha  occ. eigenvalues --   -0.44849  -0.44686  -0.44298  -0.43384  -0.43227
 Alpha  occ. eigenvalues --   -0.43125  -0.42919  -0.42777  -0.42618  -0.42213
 Alpha  occ. eigenvalues --   -0.41751  -0.41555  -0.41237  -0.40921  -0.40835
 Alpha  occ. eigenvalues --   -0.40408  -0.40206  -0.40084  -0.39656  -0.39124
 Alpha  occ. eigenvalues --   -0.38977  -0.38926  -0.38512  -0.37902  -0.37885
 Alpha  occ. eigenvalues --   -0.37437  -0.37248  -0.36990  -0.36463  -0.35269
 Alpha  occ. eigenvalues --   -0.35032  -0.34330  -0.33761  -0.32773  -0.32419
 Alpha  occ. eigenvalues --   -0.30840  -0.30072  -0.29114  -0.27093  -0.23568
 Alpha  occ. eigenvalues --   -0.19375
 Alpha virt. eigenvalues --   -0.06538  -0.01838   0.02207   0.05334   0.07174
 Alpha virt. eigenvalues --    0.08309   0.10390   0.11229   0.11712   0.11843
 Alpha virt. eigenvalues --    0.12563   0.12764   0.13373   0.13429   0.13559

 Mulliken charges:
               1
     1  O   -0.501345
     2  O   -0.552080
     3  C    0.010430
     4  C   -0.158904
     5  C   -0.168654
     6  C    0.131548
     7  C    0.161900
     8  C   -0.023844
     9  C   -0.277210
    10  C   -0.312321
    11  C   -0.182572
    12  C   -0.159238
    13  C    0.129075
    14  C    0.082175
    15  C   -0.088961
    16  C   -0.184698
    17  C    0.031708
    18  C   -0.276635
    19  C   -0.296749
    20  C   -0.350577
    21  C   -0.096186
    22  C   -0.145373
    23  C   -0.349697
    24  C    0.132040
    25  C   -0.115492
    26  C   -0.370782
    27  C    0.105851
    28  C   -0.135214
    29  C   -0.374822
    30  C   -0.118236
    31  C   -0.065704
    32  C   -0.072514
    33  C   -0.121019
    34  C    0.117762
    35  C   -0.094072
    36  C    0.119761
    37  C   -0.373129
    38  C   -0.123964
    39  C   -0.113932
    40  C   -0.369664
    41  C   -0.055409
    42  C   -0.083994
    43  H    0.083373
    44  H    0.116210
    45  H    0.074825
    46  H    0.077551
    47  H    0.066605
    48  H    0.112351
    49  H    0.103067
    50  H    0.115530
    51  H    0.110105
    52  H    0.074230
    53  H    0.084016
    54  H    0.055672
    55  H    0.045804
    56  H    0.089321
    57  H    0.104334
    58  H    0.108046
    59  H    0.127254
    60  H    0.088037
    61  H    0.098580
    62  H    0.105917
    63  H    0.102375
    64  H    0.128243
    65  H    0.075468
    66  H    0.126676
    67  H    0.109940
    68  H    0.107893
    69  H    0.286872
    70  H    0.086012
    71  H    0.076192
    72  H    0.111767
    73  H    0.108867
    74  H    0.065786
    75  H    0.311525
    76  H    0.076454
    77  H    0.105414
    78  H    0.109650
    79  H    0.118801
    80  H    0.069847
    81  H    0.123943
    82  H    0.109521
    83  H    0.112705
    84  H    0.066270
    85  H    0.062518
    86  H    0.077757
    87  H    0.072915
    88  H    0.084177
    89  H    0.079390
    90  H    0.127508
    91  H    0.119362
    92  H    0.071544
    93  H    0.073311
    94  H    0.099007
    95  H    0.116437
    96  H    0.102587
    97  H    0.087239
    98  H    0.085943
 Sum of Mulliken charges =  -0.00000

 Dipole moment (field-independent basis, Debye):
    X=             -1.0984    Y=             -1.2135    Z=             -0.2321  Tot=              1.6532
 Quadrupole moment (field-independent basis, Debye-Ang):
   XX=           -287.0505   YY=           -246.0419   ZZ=           -262.2501
   XY=             -8.9697   XZ=             38.0495   YZ=             -1.2016

 Normal termination of Gaussian 16 at Sat Jul 13 02:40:26 2019.
