 Gaussian 16, Revision A.03,
 Gaussian 16:  ES64L-G16RevA.03 25-Dec-2016

 -------------------------------------
 # td=(NStates=1) CAM-B3LYP/6-31G(d,p)
 -------------------------------------

 --
 TD
 --
 Symbolic Z-matrix:
 Charge =  0 Multiplicity = 1

                         Standard orientation:
 ---------------------------------------------------------------------
 Center     Atomic      Atomic             Coordinates (Angstroms)
 Number     Number       Type             X           Y           Z
 ---------------------------------------------------------------------
      1          8           0      -14.114441   -1.894044    0.344892
      2          8           0       14.808379    0.866151    0.055329
      3          6           0      -11.812456   -0.031733    1.246527
      4          6           0      -10.888391    0.243474   -0.032063
      5          6           0      -12.040493   -1.506761    1.438437
      6          6           0      -12.713673   -2.139214    0.159030
      7          6           0      -11.519041   -0.475112   -1.241809
      8          6           0       11.135583    0.935169    1.097584
      9          6           0      -11.058532    0.648011    2.440584
     10          6           0      -12.964341    0.748771    1.101647
     11          6           0       12.535398    1.435803    0.728736
     12          6           0      -12.278624   -1.584312   -1.191145
     13          6           0       13.489037    0.373383    0.229776
     14          6           0       10.695081   -0.075477    0.020102
     15          6           0       -9.506903   -0.019128    0.112925
     16          6           0       12.929034   -0.191322   -1.036885
     17          6           0       11.504089   -0.545020   -1.008180
     18          6           0       10.210405    2.106307    1.138313
     19          6           0       10.974289    0.244875    2.479184
     20          6           0      -11.061646    0.124803   -2.611212
     21          6           0       -8.468652    0.802114   -0.106600
     22          6           0        9.319612   -0.537364   -0.008631
     23          6           0       11.128846   -1.462752   -2.101721
     24          6           0       -6.998025    0.506988   -0.059548
     25          6           0        8.692222   -1.761095   -0.056943
     26          6           0       -6.569551   -0.877921    0.336166
     27          6           0        7.257671   -1.948975   -0.009956
     28          6           0       -6.144580    1.426623   -0.328055
     29          6           0        6.921211   -3.411570    0.237665
     30          6           0        6.320627   -1.148178   -0.147343
     31          6           0       -4.716330    1.392796   -0.318357
     32          6           0        4.946563   -1.491360   -0.072503
     33          6           0       -3.975357    2.461438   -0.732894
     34          6           0       -2.627669    2.687848   -0.532961
     35          6           0        3.908451   -0.527199   -0.252063
     36          6           0        2.618924   -0.744972   -0.107203
     37          6           0       -2.079855    4.000373   -1.014141
     38          6           0       -1.728786    1.610917   -0.352598
     39          6           0        1.782824    0.353048   -0.308316
     40          6           0        2.063347   -2.183216    0.223545
     41          6           0       -0.380029    1.514665   -0.443393
     42          6           0        0.383224    0.392424   -0.308891
     43          1           0      -10.845770    1.408654   -0.200906
     44          1           0      -12.530939   -1.707683    2.271208
     45          1           0      -11.013541   -1.803677    1.604600
     46          1           0      -12.519949   -3.089225    0.180268
     47          1           0      -10.238269    0.188461    2.845932
     48          1           0      -11.081563    1.699290    2.359846
     49          1           0      -11.787615    0.471557    3.332743
     50          1           0      -13.391089    0.520096    0.138491
     51          1           0      -13.810601    0.328687    1.792997
     52          1           0      -12.702814    1.867735    1.184288
     53          1           0       12.513163    2.112646   -0.056408
     54          1           0       12.841231    1.810305    1.734817
     55          1           0      -12.497863   -2.259412   -2.021276
     56          1           0       13.695270   -0.473255    0.864927
     57          1           0       -9.228909   -1.057313    0.472322
     58          1           0       13.591510   -0.986071   -1.425057
     59          1           0       13.172653    0.693478   -1.796080
     60          1           0        9.220967    1.964112    1.628977
     61          1           0        9.832286    2.476971    0.154508
     62          1           0       10.746003    2.931405    1.737413
     63          1           0       11.424838   -0.749880    2.447026
     64          1           0        9.979094   -0.008713    2.408572
     65          1           0       11.282448    0.966163    3.351982
     66          1           0       -9.959562    0.050418   -2.678369
     67          1           0      -11.190577    1.226575   -2.662664
     68          1           0      -11.609807   -0.475391   -3.284206
     69          1           0      -14.483845   -2.036295   -0.508723
     70          1           0        8.579435    0.131750    0.292727
     71          1           0       -8.616339    1.881120   -0.373259
     72          1           0       11.517546   -2.484582   -1.958898
     73          1           0       10.062704   -1.564321   -2.635403
     74          1           0       11.926326   -1.174862   -2.965963
     75          1           0       15.029663    1.469263    0.903308
     76          1           0        9.269170   -2.688748   -0.232847
     77          1           0       -5.541645   -0.958903    0.187378
     78          1           0       -6.693457   -1.293980    1.382378
     79          1           0       -6.954919   -1.777476   -0.438077
     80          1           0       -6.385623    2.472613   -0.685348
     81          1           0        6.442874   -3.619034    1.324311
     82          1           0        6.339218   -3.790705   -0.569344
     83          1           0        7.880138   -4.007975    0.227441
     84          1           0        6.533435   -0.191010   -0.115929
     85          1           0       -4.022096    0.560772    0.025769
     86          1           0        4.611462   -2.579214    0.238541
     87          1           0       -4.680378    3.372319   -1.003816
     88          1           0        4.180191    0.618847   -0.340455
     89          1           0       -1.527324    3.917418   -1.902161
     90          1           0       -1.213929    4.507950   -0.317237
     91          1           0       -2.805874    4.952235   -1.068298
     92          1           0       -2.306004    0.555994   -0.102040
     93          1           0        2.356328    1.182071   -0.255668
     94          1           0        1.912763   -2.216366    1.338291
     95          1           0        1.028483   -2.300081   -0.305031
     96          1           0        2.521800   -2.997630   -0.454425
     97          1           0        0.204307    2.551448   -0.685306
     98          1           0       -0.307535   -0.458299   -0.230506
 ---------------------------------------------------------------------

 SCF Done:  E(RCAM-B3LYP) =  -1706.96136709     A.U. after   15 cycles

 Excitation energies and oscillator strengths:

 Excited State   1:      Singlet-A      2.0615 eV  601.44 nm  f=2.9938  <S**2>=0.000
     155 ->158         0.13032
     156 ->157         0.69882
     156 <-157        -0.10649
 This state for optimization and/or second-order correction.
 Total Energy, E(TD-HF/TD-DFT) =  -1706.88561003
 Copying the excited state density for this state as the 1-particle RhoCI density.

 The electronic state is 1-A.
 Alpha  occ. eigenvalues --  -19.21479 -19.20561 -10.29576 -10.29443 -10.27821
 Alpha  occ. eigenvalues --  -10.27771 -10.27734 -10.27679 -10.27608 -10.27393
 Alpha  occ. eigenvalues --  -10.27382 -10.27272 -10.27002 -10.26949 -10.26947
 Alpha  occ. eigenvalues --  -10.26841 -10.26637 -10.26607 -10.26600 -10.26513
 Alpha  occ. eigenvalues --  -10.26485 -10.26404 -10.26348 -10.26307 -10.26231
 Alpha  occ. eigenvalues --  -10.25878 -10.25860 -10.25737 -10.25723 -10.25698
 Alpha  occ. eigenvalues --  -10.25644 -10.25617 -10.25543 -10.25370 -10.25179
 Alpha  occ. eigenvalues --  -10.25133 -10.25050 -10.24981 -10.23549 -10.22999
 Alpha  occ. eigenvalues --  -10.22860 -10.22469  -1.09646  -1.08082  -0.94483
 Alpha  occ. eigenvalues --   -0.93937  -0.93254  -0.92606  -0.91828  -0.90614
 Alpha  occ. eigenvalues --   -0.88382  -0.87740  -0.87140  -0.85892  -0.85440
 Alpha  occ. eigenvalues --   -0.82954  -0.82078  -0.80929  -0.80160  -0.78257
 Alpha  occ. eigenvalues --   -0.76759  -0.76596  -0.76246  -0.76240  -0.76118
 Alpha  occ. eigenvalues --   -0.75613  -0.75508  -0.74903  -0.73605  -0.70794
 Alpha  occ. eigenvalues --   -0.69512  -0.68674  -0.66788  -0.64943  -0.63955
 Alpha  occ. eigenvalues --   -0.63216  -0.62296  -0.62089  -0.60121  -0.59832
 Alpha  occ. eigenvalues --   -0.59470  -0.58849  -0.58614  -0.57311  -0.56815
 Alpha  occ. eigenvalues --   -0.56469  -0.55509  -0.54921  -0.54724  -0.54245
 Alpha  occ. eigenvalues --   -0.53513  -0.52803  -0.52674  -0.52173  -0.51313
 Alpha  occ. eigenvalues --   -0.51049  -0.50928  -0.50687  -0.49864  -0.49512
 Alpha  occ. eigenvalues --   -0.49384  -0.48815  -0.48414  -0.48049  -0.47836
 Alpha  occ. eigenvalues --   -0.47429  -0.47216  -0.47125  -0.46884  -0.46442
 Alpha  occ. eigenvalues --   -0.46196  -0.46069  -0.45640  -0.45114  -0.44984
 Alpha  occ. eigenvalues --   -0.44658  -0.44321  -0.43615  -0.43287  -0.42955
 Alpha  occ. eigenvalues --   -0.42811  -0.42268  -0.42159  -0.42122  -0.41674
 Alpha  occ. eigenvalues --   -0.41473  -0.41192  -0.40949  -0.40870  -0.40689
 Alpha  occ. eigenvalues --   -0.40287  -0.40114  -0.39975  -0.39512  -0.39381
 Alpha  occ. eigenvalues --   -0.39218  -0.38966  -0.38319  -0.38253  -0.38059
 Alpha  occ. eigenvalues --   -0.37677  -0.37156  -0.37001  -0.36645  -0.36413
 Alpha  occ. eigenvalues --   -0.35939  -0.34898  -0.33314  -0.32186  -0.32006
 Alpha  occ. eigenvalues --   -0.31925  -0.30049  -0.29382  -0.27045  -0.24476
 Alpha  occ. eigenvalues --   -0.19223
 Alpha virt. eigenvalues --   -0.06525  -0.00472   0.02789   0.04942   0.07068
 Alpha virt. eigenvalues --    0.09059   0.10832   0.10927   0.11320   0.12386
 Alpha virt. eigenvalues --    0.12678   0.13494   0.13717   0.13944   0.14163

 Mulliken charges:
               1
     1  O   -0.540980
     2  O   -0.580729
     3  C    0.019328
     4  C   -0.143101
     5  C   -0.166112
     6  C    0.147595
     7  C    0.114885
     8  C   -0.014704
     9  C   -0.306588
    10  C   -0.265279
    11  C   -0.193118
    12  C   -0.183965
    13  C    0.187006
    14  C    0.036266
    15  C   -0.050204
    16  C   -0.259016
    17  C    0.126746
    18  C   -0.304241
    19  C   -0.287833
    20  C   -0.351831
    21  C   -0.105108
    22  C   -0.129150
    23  C   -0.379412
    24  C    0.140790
    25  C   -0.109501
    26  C   -0.374801
    27  C    0.111260
    28  C   -0.140226
    29  C   -0.376490
    30  C   -0.075470
    31  C   -0.051298
    32  C   -0.131429
    33  C   -0.124276
    34  C    0.104280
    35  C   -0.124575
    36  C    0.137016
    37  C   -0.376175
    38  C   -0.119090
    39  C   -0.122947
    40  C   -0.375957
    41  C   -0.058494
    42  C   -0.088475
    43  H    0.074655
    44  H    0.113060
    45  H    0.088216
    46  H    0.085097
    47  H    0.102668
    48  H    0.106363
    49  H    0.070736
    50  H    0.098897
    51  H    0.094308
    52  H    0.073750
    53  H    0.116030
    54  H    0.074495
    55  H    0.094281
    56  H    0.080283
    57  H    0.079838
    58  H    0.113752
    59  H    0.100879
    60  H    0.101203
    61  H    0.105937
    62  H    0.091207
    63  H    0.106450
    64  H    0.121197
    65  H    0.091527
    66  H    0.125077
    67  H    0.112703
    68  H    0.108870
    69  H    0.297903
    70  H    0.069889
    71  H    0.068416
    72  H    0.127318
    73  H    0.120689
    74  H    0.087929
    75  H    0.308622
    76  H    0.083050
    77  H    0.117549
    78  H    0.118427
    79  H    0.086087
    80  H    0.080581
    81  H    0.103227
    82  H    0.128133
    83  H    0.091989
    84  H    0.062980
    85  H    0.081281
    86  H    0.099914
    87  H    0.069559
    88  H    0.073949
    89  H    0.143648
    90  H    0.089069
    91  H    0.098366
    92  H    0.056428
    93  H    0.076123
    94  H    0.140016
    95  H    0.102172
    96  H    0.119840
    97  H    0.066436
    98  H    0.084328
 Sum of Mulliken charges =  -0.00000

 Dipole moment (field-independent basis, Debye):
    X=              1.9674    Y=             -0.8616    Z=             -0.1087  Tot=              2.1506
 Quadrupole moment (field-independent basis, Debye-Ang):
   XX=           -298.1167   YY=           -243.8233   ZZ=           -261.4763
   XY=             12.5137   XZ=             37.1811   YZ=              3.3993

 Normal termination of Gaussian 16 at Tue Jul 16 03:57:41 2019.
