 Gaussian 16, Revision A.03,
 Gaussian 16:  ES64L-G16RevA.03 25-Dec-2016

 -------------------------------------
 # td=(NStates=1) CAM-B3LYP/6-31G(d,p)
 -------------------------------------

 --
 TD
 --
 Symbolic Z-matrix:
 Charge =  0 Multiplicity = 1

                         Standard orientation:
 ---------------------------------------------------------------------
 Center     Atomic      Atomic             Coordinates (Angstroms)
 Number     Number       Type             X           Y           Z
 ---------------------------------------------------------------------
      1          8           0      -14.305674   -1.849612    0.491391
      2          8           0       14.801183    0.972549    0.286001
      3          6           0      -11.752830    0.124773    1.454996
      4          6           0      -11.033258    0.376053    0.024913
      5          6           0      -12.082159   -1.438340    1.466540
      6          6           0      -12.880921   -2.009791    0.250127
      7          6           0      -11.631816   -0.348175   -1.160951
      8          6           0       11.177629    1.062224    1.053834
      9          6           0      -10.864388    0.533633    2.705830
     10          6           0      -13.128093    0.866528    1.459418
     11          6           0       12.495684    1.619237    0.739152
     12          6           0      -12.436789   -1.344450   -0.975254
     13          6           0       13.427202    0.485328    0.472628
     14          6           0       10.694621   -0.011088    0.092455
     15          6           0       -9.554300   -0.136120    0.003904
     16          6           0       13.013000   -0.231495   -0.775713
     17          6           0       11.563663   -0.482464   -0.893004
     18          6           0       10.260210    2.393127    0.944039
     19          6           0       11.047173    0.542821    2.523569
     20          6           0      -11.274011    0.379440   -2.424127
     21          6           0       -8.574020    0.782315   -0.185965
     22          6           0        9.298652   -0.429771    0.171947
     23          6           0       11.213977   -1.467892   -1.963104
     24          6           0       -7.143377    0.414160   -0.243528
     25          6           0        8.824157   -1.704066   -0.033222
     26          6           0       -6.745779   -0.938239    0.058733
     27          6           0        7.504903   -2.168574    0.035198
     28          6           0       -6.210815    1.423212   -0.412600
     29          6           0        7.177704   -3.566489    0.170992
     30          6           0        6.453290   -1.162441    0.027758
     31          6           0       -4.816319    1.357106   -0.454123
     32          6           0        5.068217   -1.536703    0.001508
     33          6           0       -3.975027    2.459568   -0.689439
     34          6           0       -2.553517    2.488442   -0.819291
     35          6           0        4.005240   -0.685102   -0.377333
     36          6           0        2.614355   -0.919131   -0.338530
     37          6           0       -1.964471    3.776658   -1.077938
     38          6           0       -1.753645    1.340744   -0.604317
     39          6           0        1.728024    0.106547   -0.603102
     40          6           0        2.100894   -2.319288   -0.190939
     41          6           0       -0.377683    1.279106   -0.824421
     42          6           0        0.340032    0.138793   -0.432136
     43          1           0      -10.934861    1.387228   -0.043756
     44          1           0      -12.473991   -1.976080    2.360761
     45          1           0      -11.122635   -1.822790    1.305526
     46          1           0      -12.563791   -3.054466    0.313396
     47          1           0       -9.712453    0.080751    2.710706
     48          1           0      -10.457428    1.674610    2.741751
     49          1           0      -11.400518    0.487427    3.507426
     50          1           0      -13.914663    0.479265    0.752700
     51          1           0      -13.722720    0.892565    2.396933
     52          1           0      -13.014452    1.822084    1.285726
     53          1           0       12.627732    2.238456   -0.027140
     54          1           0       12.875679    2.141494    1.549854
     55          1           0      -13.064074   -1.472951   -1.986229
     56          1           0       13.253796   -0.278018    1.424714
     57          1           0       -9.318495   -1.267770   -0.055521
     58          1           0       13.485026   -1.201886   -1.132470
     59          1           0       13.210692    0.340528   -1.705303
     60          1           0        9.128149    2.344631    1.327223
     61          1           0       10.495541    2.798067   -0.054327
     62          1           0       10.706160    3.084931    1.616085
     63          1           0       11.503633   -0.440858    2.327695
     64          1           0       10.079765    0.322830    2.758695
     65          1           0       11.752813    1.215719    3.101375
     66          1           0      -10.123227    0.548146   -2.338477
     67          1           0      -11.414392    1.547297   -2.222759
     68          1           0      -11.836701    0.009184   -3.309581
     69          1           0      -14.695198   -2.166197   -0.441237
     70          1           0        8.740747    0.289086    0.426756
     71          1           0       -8.835182    1.942618   -0.295983
     72          1           0       11.522503   -2.454569   -1.622966
     73          1           0       10.193703   -1.372913   -2.207071
     74          1           0       11.656116   -1.373151   -2.984623
     75          1           0       15.070370    1.738646    0.997845
     76          1           0        9.516164   -2.594330   -0.182720
     77          1           0       -5.707866   -1.107182   -0.053851
     78          1           0       -6.731414   -1.351277    1.158547
     79          1           0       -6.965232   -1.942782   -0.607146
     80          1           0       -6.605391    2.432484   -0.481669
     81          1           0        6.679637   -3.877172    1.082169
     82          1           0        6.636895   -4.096277   -0.685189
     83          1           0        8.201303   -4.014658    0.223182
     84          1           0        6.783527   -0.256609   -0.099812
     85          1           0       -4.162702    0.321303   -0.441814
     86          1           0        4.740475   -2.545187    0.185160
     87          1           0       -4.466933    3.542234   -0.962274
     88          1           0        4.274196    0.515102   -0.577820
     89          1           0       -1.481373    4.035028   -2.237874
     90          1           0       -1.219621    4.061275   -0.200393
     91          1           0       -2.758555    4.542669   -0.968436
     92          1           0       -2.341225    0.368180   -0.404486
     93          1           0        2.238316    1.029344   -0.979809
     94          1           0        2.200557   -2.754641    0.882828
     95          1           0        1.090985   -2.441246   -0.691511
     96          1           0        2.783685   -2.972512   -0.747492
     97          1           0        0.162898    2.169549   -0.899958
     98          1           0       -0.062504   -0.851872   -0.077496
 ---------------------------------------------------------------------

 SCF Done:  E(RCAM-B3LYP) =  -1706.92238129     A.U. after   16 cycles

 Excitation energies and oscillator strengths:

 Excited State   1:      Singlet-A      1.8592 eV  666.88 nm  f=3.0725  <S**2>=0.000
     155 ->158        -0.15434
     156 ->157         0.69359
     156 <-157        -0.10018
 This state for optimization and/or second-order correction.
 Total Energy, E(TD-HF/TD-DFT) =  -1706.85405775
 Copying the excited state density for this state as the 1-particle RhoCI density.

 The electronic state is 1-A.
 Alpha  occ. eigenvalues --  -19.22098 -19.21984 -10.31597 -10.30688 -10.28092
 Alpha  occ. eigenvalues --  -10.27930 -10.27845 -10.27717 -10.27649 -10.27618
 Alpha  occ. eigenvalues --  -10.27325 -10.27260 -10.27226 -10.27179 -10.27090
 Alpha  occ. eigenvalues --  -10.27037 -10.26935 -10.26897 -10.26892 -10.26770
 Alpha  occ. eigenvalues --  -10.26719 -10.26654 -10.26469 -10.26444 -10.26417
 Alpha  occ. eigenvalues --  -10.26370 -10.26369 -10.25996 -10.25973 -10.25835
 Alpha  occ. eigenvalues --  -10.25756 -10.25503 -10.25501 -10.25470 -10.25357
 Alpha  occ. eigenvalues --  -10.25118 -10.24880 -10.24684 -10.24531 -10.24357
 Alpha  occ. eigenvalues --  -10.23463 -10.22011  -1.07380  -1.06244  -0.94602
 Alpha  occ. eigenvalues --   -0.93091  -0.92244  -0.91656  -0.91034  -0.90225
 Alpha  occ. eigenvalues --   -0.87909  -0.87024  -0.85817  -0.85575  -0.84917
 Alpha  occ. eigenvalues --   -0.83095  -0.82296  -0.80687  -0.80187  -0.78500
 Alpha  occ. eigenvalues --   -0.77655  -0.76618  -0.76099  -0.75965  -0.75512
 Alpha  occ. eigenvalues --   -0.75288  -0.75024  -0.74695  -0.72550  -0.70247
 Alpha  occ. eigenvalues --   -0.69254  -0.67737  -0.66415  -0.66073  -0.63960
 Alpha  occ. eigenvalues --   -0.62845  -0.62263  -0.61543  -0.60170  -0.59937
 Alpha  occ. eigenvalues --   -0.59654  -0.58535  -0.57302  -0.56861  -0.56134
 Alpha  occ. eigenvalues --   -0.55881  -0.55704  -0.54896  -0.54199  -0.53829
 Alpha  occ. eigenvalues --   -0.53266  -0.52938  -0.52122  -0.51859  -0.51007
 Alpha  occ. eigenvalues --   -0.50653  -0.49934  -0.49584  -0.48975  -0.48814
 Alpha  occ. eigenvalues --   -0.48654  -0.48414  -0.48237  -0.48114  -0.47825
 Alpha  occ. eigenvalues --   -0.47386  -0.47223  -0.46868  -0.46583  -0.46455
 Alpha  occ. eigenvalues --   -0.46290  -0.45790  -0.45558  -0.44762  -0.44614
 Alpha  occ. eigenvalues --   -0.44499  -0.44330  -0.44068  -0.43844  -0.43609
 Alpha  occ. eigenvalues --   -0.43172  -0.43053  -0.42381  -0.42346  -0.42282
 Alpha  occ. eigenvalues --   -0.41569  -0.41358  -0.40986  -0.40814  -0.40629
 Alpha  occ. eigenvalues --   -0.40195  -0.39978  -0.39875  -0.39362  -0.39239
 Alpha  occ. eigenvalues --   -0.39125  -0.38946  -0.38654  -0.38047  -0.37797
 Alpha  occ. eigenvalues --   -0.37549  -0.37125  -0.36757  -0.36299  -0.36011
 Alpha  occ. eigenvalues --   -0.35332  -0.35066  -0.33520  -0.32416  -0.31844
 Alpha  occ. eigenvalues --   -0.31394  -0.29220  -0.28631  -0.26497  -0.22951
 Alpha  occ. eigenvalues --   -0.18759
 Alpha virt. eigenvalues --   -0.06865  -0.01950   0.02270   0.05791   0.07016
 Alpha virt. eigenvalues --    0.08661   0.10115   0.10618   0.11106   0.11888
 Alpha virt. eigenvalues --    0.12402   0.12507   0.13234   0.13691   0.13839

 Mulliken charges:
               1
     1  O   -0.540603
     2  O   -0.587577
     3  C    0.042872
     4  C   -0.156380
     5  C   -0.200117
     6  C    0.133904
     7  C    0.177899
     8  C   -0.058647
     9  C   -0.298551
    10  C   -0.316813
    11  C   -0.173506
    12  C   -0.155438
    13  C    0.176618
    14  C    0.053033
    15  C   -0.094248
    16  C   -0.210798
    17  C    0.051284
    18  C   -0.306852
    19  C   -0.285154
    20  C   -0.358736
    21  C   -0.110959
    22  C   -0.084023
    23  C   -0.376980
    24  C    0.139307
    25  C   -0.110705
    26  C   -0.397841
    27  C    0.096949
    28  C   -0.124812
    29  C   -0.387781
    30  C   -0.075659
    31  C   -0.072278
    32  C   -0.102922
    33  C   -0.129981
    34  C    0.127066
    35  C   -0.120959
    36  C    0.134777
    37  C   -0.380365
    38  C   -0.103470
    39  C   -0.128808
    40  C   -0.387660
    41  C   -0.093552
    42  C   -0.072050
    43  H    0.093666
    44  H    0.100808
    45  H    0.097665
    46  H    0.096158
    47  H    0.091032
    48  H    0.069968
    49  H    0.120744
    50  H    0.123522
    51  H    0.090826
    52  H    0.096484
    53  H    0.112457
    54  H    0.084480
    55  H    0.037836
    56  H    0.056233
    57  H    0.108694
    58  H    0.110453
    59  H    0.116629
    60  H    0.083554
    61  H    0.105858
    62  H    0.101795
    63  H    0.105704
    64  H    0.119066
    65  H    0.095676
    66  H    0.128397
    67  H    0.099312
    68  H    0.111146
    69  H    0.304981
    70  H    0.065646
    71  H    0.078713
    72  H    0.122770
    73  H    0.130099
    74  H    0.101175
    75  H    0.305314
    76  H    0.077133
    77  H    0.117160
    78  H    0.115206
    79  H    0.093076
    80  H    0.083904
    81  H    0.134426
    82  H    0.119906
    83  H    0.097419
    84  H    0.069008
    85  H    0.079907
    86  H    0.082256
    87  H    0.070380
    88  H    0.059840
    89  H    0.093651
    90  H    0.113789
    91  H    0.110889
    92  H    0.071847
    93  H    0.074541
    94  H    0.112352
    95  H    0.113590
    96  H    0.122860
    97  H    0.100397
    98  H    0.090120
 Sum of Mulliken charges =  -0.00000

 Dipole moment (field-independent basis, Debye):
    X=              1.5526    Y=             -0.0179    Z=             -0.4522  Tot=              1.6172
 Quadrupole moment (field-independent basis, Debye-Ang):
   XX=           -294.6850   YY=           -240.0627   ZZ=           -263.3719
   XY=              9.5995   XZ=             29.7987   YZ=              3.6028

 Normal termination of Gaussian 16 at Sat Jul 13 23:00:42 2019.
