 Gaussian 16, Revision A.03,
 Gaussian 16:  ES64L-G16RevA.03 25-Dec-2016

 -------------------------------------
 # td=(NStates=1) CAM-B3LYP/6-31G(d,p)
 -------------------------------------

 --
 TD
 --
 Symbolic Z-matrix:
 Charge =  0 Multiplicity = 1

                         Standard orientation:
 ---------------------------------------------------------------------
 Center     Atomic      Atomic             Coordinates (Angstroms)
 Number     Number       Type             X           Y           Z
 ---------------------------------------------------------------------
      1          8           0      -13.926889   -2.429426    0.281297
      2          8           0       14.856753    0.702900    0.260211
      3          6           0      -11.654390   -0.277394    1.389168
      4          6           0      -10.902605    0.335232    0.168614
      5          6           0      -11.780760   -1.851153    1.193697
      6          6           0      -12.592314   -2.229977   -0.064530
      7          6           0      -11.564704   -0.250025   -1.202240
      8          6           0       11.119402    0.911888    1.119302
      9          6           0      -10.942105    0.092591    2.702750
     10          6           0      -13.020485    0.438399    1.524805
     11          6           0       12.669537    1.290401    0.881102
     12          6           0      -12.316176   -1.389180   -1.187116
     13          6           0       13.505973    0.245058    0.334627
     14          6           0       10.640828    0.049103   -0.045743
     15          6           0       -9.537437   -0.009698    0.006780
     16          6           0       13.044040   -0.178557   -0.934028
     17          6           0       11.539554   -0.568533   -0.883603
     18          6           0       10.370420    2.194717    1.064243
     19          6           0       10.910500    0.182676    2.460507
     20          6           0      -11.365676    0.603706   -2.459274
     21          6           0       -8.586406    0.980977   -0.065283
     22          6           0        9.249764   -0.397426    0.050017
     23          6           0       11.124239   -1.433840   -2.067681
     24          6           0       -7.139443    0.695682   -0.150347
     25          6           0        8.726533   -1.686097   -0.138476
     26          6           0       -6.700784   -0.739827   -0.102238
     27          6           0        7.360320   -2.183640   -0.085584
     28          6           0       -6.290857    1.714930   -0.346857
     29          6           0        7.074666   -3.576082   -0.057293
     30          6           0        6.312654   -1.272712   -0.140904
     31          6           0       -4.881933    1.677754   -0.340640
     32          6           0        4.844093   -1.538433   -0.209072
     33          6           0       -4.089388    2.823562   -0.439195
     34          6           0       -2.706989    2.794086   -0.467812
     35          6           0        3.937011   -0.545189   -0.344257
     36          6           0        2.529499   -0.647855   -0.281199
     37          6           0       -1.909415    4.067620   -0.785175
     38          6           0       -1.895917    1.646997   -0.510083
     39          6           0        1.675499    0.539343   -0.340925
     40          6           0        2.096370   -2.094546    0.072413
     41          6           0       -0.462963    1.552303   -0.535369
     42          6           0        0.348788    0.407164   -0.398034
     43          1           0      -11.033911    1.419978    0.331024
     44          1           0      -12.274490   -2.083495    2.236005
     45          1           0      -10.759789   -2.335897    1.374744
     46          1           0      -12.172123   -3.182290   -0.188577
     47          1           0       -9.814856   -0.384513    2.699635
     48          1           0      -10.774267    1.163725    2.884023
     49          1           0      -11.164123   -0.400600    3.754680
     50          1           0      -13.718049    0.071139    0.670868
     51          1           0      -13.599732   -0.081837    2.244661
     52          1           0      -12.837787    1.610764    1.612517
     53          1           0       12.620779    2.007971   -0.000215
     54          1           0       12.949560    1.841374    1.823723
     55          1           0      -12.569160   -1.863062   -2.033769
     56          1           0       13.637145   -0.685507    1.184700
     57          1           0       -9.212648   -1.046383    0.022305
     58          1           0       13.542872   -1.015684   -1.083886
     59          1           0       13.387255    0.434541   -1.825158
     60          1           0        9.125208    2.174486    1.195603
     61          1           0       10.527798    2.871648    0.099480
     62          1           0       10.766201    2.868217    1.802273
     63          1           0       11.606847   -0.633470    2.307649
     64          1           0        9.923565   -0.220110    2.548430
     65          1           0       11.089682    0.834455    3.225747
     66          1           0      -10.240739    1.159164   -2.808138
     67          1           0      -12.096126    1.487466   -2.330313
     68          1           0      -11.700067    0.127504   -3.420646
     69          1           0      -14.339229   -2.390193   -0.566002
     70          1           0        8.524112    0.388198    0.298791
     71          1           0       -8.948272    2.023460   -0.267307
     72          1           0       11.315872   -2.497575   -1.939445
     73          1           0       10.030421   -1.212614   -2.322991
     74          1           0       11.490917   -1.117329   -3.036600
     75          1           0       14.974538    1.180601    1.085804
     76          1           0        9.430200   -2.437332   -0.118903
     77          1           0       -5.589976   -0.703690   -0.117334
     78          1           0       -6.879236   -1.025788    0.883638
     79          1           0       -6.914331   -1.452540   -0.985416
     80          1           0       -6.826041    2.704021   -0.447843
     81          1           0        7.021632   -3.988292    1.021633
     82          1           0        6.294874   -3.924380   -0.653523
     83          1           0        8.043071   -4.205429   -0.480606
     84          1           0        6.347651   -0.117516   -0.232621
     85          1           0       -4.084311    0.798612   -0.136039
     86          1           0        4.690444   -2.596282   -0.347558
     87          1           0       -4.682766    3.751018   -0.537947
     88          1           0        4.425164    0.364277   -0.456000
     89          1           0       -1.451922    4.102732   -1.804914
     90          1           0       -1.146998    4.175830    0.130367
     91          1           0       -2.518974    5.103870   -0.533427
     92          1           0       -2.207848    0.604617   -0.164605
     93          1           0        2.123582    1.452734   -0.781263
     94          1           0        2.925608   -2.776522    0.787061
     95          1           0        0.929542   -2.190439    0.527103
     96          1           0        1.817843   -2.534958   -1.130088
     97          1           0        0.075465    2.464262   -0.506702
     98          1           0        0.047350   -0.514880   -0.137106
 ---------------------------------------------------------------------

 SCF Done:  E(RCAM-B3LYP) =  -1706.90664156     A.U. after   15 cycles

 Excitation energies and oscillator strengths:

 Excited State   1:      Singlet-A      1.9270 eV  643.40 nm  f=2.9341  <S**2>=0.000
     155 ->158         0.13670
     156 ->157         0.69752
     156 <-157        -0.10667
 This state for optimization and/or second-order correction.
 Total Energy, E(TD-HF/TD-DFT) =  -1706.83582464
 Copying the excited state density for this state as the 1-particle RhoCI density.

 The electronic state is 1-A.
 Alpha  occ. eigenvalues --  -19.21619 -19.20447 -10.30923 -10.30690 -10.29905
 Alpha  occ. eigenvalues --  -10.29480 -10.28748 -10.28485 -10.27908 -10.27819
 Alpha  occ. eigenvalues --  -10.27442 -10.27429 -10.27276 -10.27202 -10.27184
 Alpha  occ. eigenvalues --  -10.27169 -10.26883 -10.26657 -10.26616 -10.26564
 Alpha  occ. eigenvalues --  -10.26447 -10.26331 -10.26296 -10.26233 -10.26212
 Alpha  occ. eigenvalues --  -10.26209 -10.26192 -10.26140 -10.26115 -10.25975
 Alpha  occ. eigenvalues --  -10.25912 -10.25873 -10.25781 -10.25723 -10.25514
 Alpha  occ. eigenvalues --  -10.25375 -10.25065 -10.25027 -10.24748 -10.24723
 Alpha  occ. eigenvalues --  -10.24141 -10.23419  -1.11883  -1.09596  -0.93800
 Alpha  occ. eigenvalues --   -0.93555  -0.92105  -0.91585  -0.90723  -0.89858
 Alpha  occ. eigenvalues --   -0.87624  -0.87397  -0.86680  -0.85756  -0.85333
 Alpha  occ. eigenvalues --   -0.83279  -0.81413  -0.80549  -0.80062  -0.77695
 Alpha  occ. eigenvalues --   -0.77109  -0.76559  -0.76027  -0.75716  -0.75403
 Alpha  occ. eigenvalues --   -0.74999  -0.74036  -0.73854  -0.71611  -0.70013
 Alpha  occ. eigenvalues --   -0.68869  -0.67989  -0.66358  -0.64275  -0.63949
 Alpha  occ. eigenvalues --   -0.63532  -0.63078  -0.62939  -0.60429  -0.59829
 Alpha  occ. eigenvalues --   -0.59689  -0.58443  -0.57608  -0.57323  -0.56644
 Alpha  occ. eigenvalues --   -0.56296  -0.55749  -0.55114  -0.54458  -0.53835
 Alpha  occ. eigenvalues --   -0.53341  -0.52779  -0.52413  -0.51830  -0.51086
 Alpha  occ. eigenvalues --   -0.50853  -0.50435  -0.50044  -0.49787  -0.49600
 Alpha  occ. eigenvalues --   -0.49279  -0.48675  -0.48485  -0.48238  -0.47833
 Alpha  occ. eigenvalues --   -0.47384  -0.46899  -0.46559  -0.46374  -0.46092
 Alpha  occ. eigenvalues --   -0.45787  -0.45591  -0.45429  -0.45135  -0.44848
 Alpha  occ. eigenvalues --   -0.44514  -0.44315  -0.44073  -0.43348  -0.43188
 Alpha  occ. eigenvalues --   -0.42747  -0.42488  -0.41954  -0.41614  -0.41410
 Alpha  occ. eigenvalues --   -0.41194  -0.40834  -0.40714  -0.40551  -0.40354
 Alpha  occ. eigenvalues --   -0.40119  -0.39961  -0.39619  -0.39356  -0.38934
 Alpha  occ. eigenvalues --   -0.38788  -0.38666  -0.38624  -0.38294  -0.37537
 Alpha  occ. eigenvalues --   -0.37018  -0.36901  -0.36589  -0.36053  -0.35488
 Alpha  occ. eigenvalues --   -0.35297  -0.34671  -0.33682  -0.32453  -0.31252
 Alpha  occ. eigenvalues --   -0.31053  -0.30093  -0.29408  -0.26456  -0.23666
 Alpha  occ. eigenvalues --   -0.18738
 Alpha virt. eigenvalues --   -0.06569  -0.01183   0.01971   0.04197   0.06787
 Alpha virt. eigenvalues --    0.08344   0.10841   0.11189   0.11892   0.12170
 Alpha virt. eigenvalues --    0.12302   0.12773   0.13128   0.13388   0.13931

 Mulliken charges:
               1
     1  O   -0.525709
     2  O   -0.565142
     3  C    0.017238
     4  C   -0.128214
     5  C   -0.212628
     6  C    0.154904
     7  C    0.106563
     8  C   -0.025748
     9  C   -0.302560
    10  C   -0.285836
    11  C   -0.209722
    12  C   -0.149935
    13  C    0.194717
    14  C    0.093897
    15  C   -0.037507
    16  C   -0.206156
    17  C    0.005280
    18  C   -0.293957
    19  C   -0.287619
    20  C   -0.351473
    21  C   -0.115410
    22  C   -0.125153
    23  C   -0.374998
    24  C    0.111668
    25  C   -0.089447
    26  C   -0.380160
    27  C    0.106895
    28  C   -0.138528
    29  C   -0.389095
    30  C   -0.129083
    31  C   -0.061047
    32  C   -0.077895
    33  C   -0.113966
    34  C    0.083093
    35  C   -0.109130
    36  C    0.083053
    37  C   -0.364464
    38  C   -0.118813
    39  C   -0.113988
    40  C   -0.339659
    41  C   -0.111414
    42  C   -0.039842
    43  H    0.086857
    44  H    0.099795
    45  H    0.094542
    46  H    0.094300
    47  H    0.062087
    48  H    0.103823
    49  H    0.095383
    50  H    0.091084
    51  H    0.116939
    52  H    0.085003
    53  H    0.103365
    54  H    0.079469
    55  H    0.083212
    56  H    0.036648
    57  H    0.100008
    58  H    0.126339
    59  H    0.120813
    60  H    0.076518
    61  H    0.090190
    62  H    0.098559
    63  H    0.107831
    64  H    0.117424
    65  H    0.103564
    66  H    0.093301
    67  H    0.120667
    68  H    0.113951
    69  H    0.298147
    70  H    0.083717
    71  H    0.078670
    72  H    0.116718
    73  H    0.117242
    74  H    0.107836
    75  H    0.301774
    76  H    0.076099
    77  H    0.105623
    78  H    0.134686
    79  H    0.122631
    80  H    0.082062
    81  H    0.122659
    82  H    0.136697
    83  H    0.085527
    84  H    0.072242
    85  H    0.089874
    86  H    0.080167
    87  H    0.082863
    88  H    0.076825
    89  H    0.137809
    90  H    0.110779
    91  H    0.083566
    92  H    0.075691
    93  H    0.090410
    94  H    0.115642
    95  H    0.089955
    96  H    0.092380
    97  H    0.079777
    98  H    0.067248
 Sum of Mulliken charges =  -0.00000

 Dipole moment (field-independent basis, Debye):
    X=             -1.7569    Y=             -0.0371    Z=             -0.7510  Tot=              1.9111
 Quadrupole moment (field-independent basis, Debye-Ang):
   XX=           -289.7887   YY=           -246.4630   ZZ=           -259.8843
   XY=             -1.6527   XZ=             36.2200   YZ=              4.6812

 Normal termination of Gaussian 16 at Sun Jul 14 22:08:22 2019.
