 Gaussian 16, Revision A.03,
 Gaussian 16:  ES64L-G16RevA.03 25-Dec-2016

 -------------------------------------
 # td=(NStates=1) CAM-B3LYP/6-31G(d,p)
 -------------------------------------

 --
 TD
 --
 Symbolic Z-matrix:
 Charge =  0 Multiplicity = 1

                         Standard orientation:
 ---------------------------------------------------------------------
 Center     Atomic      Atomic             Coordinates (Angstroms)
 Number     Number       Type             X           Y           Z
 ---------------------------------------------------------------------
      1          8           0      -14.166385   -2.007794    0.290854
      2          8           0       14.842329    0.987360   -0.147369
      3          6           0      -11.904312    0.028141    1.213998
      4          6           0      -11.022108    0.327004   -0.034110
      5          6           0      -12.106374   -1.469336    1.385099
      6          6           0      -12.766761   -2.124638    0.183370
      7          6           0      -11.641190   -0.343555   -1.308208
      8          6           0       11.213311    0.952528    1.087582
      9          6           0      -11.033904    0.581126    2.372569
     10          6           0      -13.167422    0.803678    1.252318
     11          6           0       12.531592    1.574955    0.668225
     12          6           0      -12.363816   -1.440001   -1.214380
     13          6           0       13.485159    0.477573    0.241041
     14          6           0       10.732179   -0.092950    0.010774
     15          6           0       -9.621899   -0.080945    0.086795
     16          6           0       12.986074   -0.127874   -0.979697
     17          6           0       11.547375   -0.494830   -0.981433
     18          6           0       10.193403    2.183686    1.200498
     19          6           0       11.375268    0.262269    2.614001
     20          6           0      -11.303883    0.427113   -2.573128
     21          6           0       -8.599718    0.790893   -0.052604
     22          6           0        9.303764   -0.456656    0.123268
     23          6           0       11.159753   -1.394234   -2.141653
     24          6           0       -7.132224    0.500403    0.026203
     25          6           0        8.792643   -1.743390   -0.096178
     26          6           0       -6.743212   -0.943955    0.273586
     27          6           0        7.509976   -2.072433   -0.100136
     28          6           0       -6.219598    1.525781   -0.102904
     29          6           0        7.177165   -3.566354    0.069735
     30          6           0        6.361283   -1.155928   -0.097605
     31          6           0       -4.733419    1.305629   -0.196728
     32          6           0        5.100319   -1.475018   -0.108856
     33          6           0       -4.012550    2.462231   -0.511042
     34          6           0       -2.639149    2.527532   -0.733555
     35          6           0        4.071007   -0.592008   -0.250917
     36          6           0        2.690442   -0.807524   -0.099030
     37          6           0       -2.012282    3.920618   -0.985132
     38          6           0       -1.734569    1.457335   -0.457546
     39          6           0        1.709394    0.191881   -0.347343
     40          6           0        2.185423   -2.127180    0.409638
     41          6           0       -0.380128    1.465325   -0.621657
     42          6           0        0.286467    0.221689   -0.370502
     43          1           0      -11.059104    1.287273   -0.129505
     44          1           0      -12.592105   -1.589560    2.428658
     45          1           0      -11.022525   -1.901338    1.426262
     46          1           0      -12.478641   -3.205668   -0.099522
     47          1           0      -10.123336   -0.069711    2.250594
     48          1           0      -10.964758    1.744790    2.147992
     49          1           0      -11.583368    0.434271    3.336712
     50          1           0      -13.918800    0.528017    0.442548
     51          1           0      -13.762355    0.558428    2.256770
     52          1           0      -12.815951    1.784314    1.079872
     53          1           0       12.498053    2.324062   -0.269858
     54          1           0       13.006031    2.240674    1.507862
     55          1           0      -12.885186   -2.062598   -1.911167
     56          1           0       13.597926   -0.141479    0.932314
     57          1           0       -9.349878   -1.214068    0.204280
     58          1           0       13.635809   -0.906955   -1.202176
     59          1           0       12.833017    0.757329   -1.891845
     60          1           0        9.404151    1.907317    1.981294
     61          1           0        9.786952    2.332734    0.119692
     62          1           0       10.723166    2.970656    1.687765
     63          1           0       11.958966   -0.746290    2.460991
     64          1           0       10.285933    0.081271    2.792354
     65          1           0       11.726394    0.770293    3.505773
     66          1           0      -10.192978    0.299445   -2.813554
     67          1           0      -11.586187    1.377314   -2.659224
     68          1           0      -11.775262   -0.083891   -3.356417
     69          1           0      -14.565022   -2.314153   -0.576441
     70          1           0        8.616594    0.234107    0.566148
     71          1           0       -8.744139    1.741916   -0.257217
     72          1           0       11.247350   -2.447490   -1.919788
     73          1           0       10.131613   -1.566878   -2.421644
     74          1           0       11.778869   -1.113149   -2.931556
     75          1           0       15.305750    1.044044    0.684591
     76          1           0        9.286831   -2.747104   -0.404832
     77          1           0       -5.687107   -1.086078    0.595904
     78          1           0       -7.216189   -1.194412    1.230955
     79          1           0       -6.957166   -1.666280   -0.492818
     80          1           0       -6.582866    2.511681   -0.435488
     81          1           0        7.255488   -3.800948    1.173870
     82          1           0        6.252356   -3.765874   -0.325368
     83          1           0        8.084283   -4.122695   -0.442158
     84          1           0        6.712814    0.062410   -0.019959
     85          1           0       -4.247264    0.408028   -0.123991
     86          1           0        4.747475   -2.429257    0.125579
     87          1           0       -4.657220    3.393712   -0.705794
     88          1           0        4.313788    0.465628   -0.139344
     89          1           0       -1.461909    3.773845   -1.943152
     90          1           0       -1.345349    4.354279   -0.137668
     91          1           0       -2.909449    4.676640   -1.111689
     92          1           0       -2.313077    0.486044   -0.155586
     93          1           0        2.274177    1.101357   -0.642060
     94          1           0        2.721731   -2.261594    1.385083
     95          1           0        1.220290   -2.247625    0.501197
     96          1           0        2.432663   -3.190944   -0.364684
     97          1           0        0.081866    2.259765   -0.957312
     98          1           0       -0.171561   -0.743600   -0.257267
 ---------------------------------------------------------------------

 SCF Done:  E(RCAM-B3LYP) =  -1706.93157430     A.U. after   16 cycles

 Excitation energies and oscillator strengths:

 Excited State   1:      Singlet-A      1.7427 eV  711.43 nm  f=3.0894  <S**2>=0.000
     155 ->158         0.13983
     156 ->157         0.70227
     156 <-157        -0.13153
 This state for optimization and/or second-order correction.
 Total Energy, E(TD-HF/TD-DFT) =  -1706.86752981
 Copying the excited state density for this state as the 1-particle RhoCI density.

 The electronic state is 1-A.
 Alpha  occ. eigenvalues --  -19.21595 -19.20552 -10.31547 -10.28846 -10.28568
 Alpha  occ. eigenvalues --  -10.27461 -10.27316 -10.27301 -10.27233 -10.27132
 Alpha  occ. eigenvalues --  -10.27091 -10.26845 -10.26834 -10.26829 -10.26785
 Alpha  occ. eigenvalues --  -10.26707 -10.26643 -10.26588 -10.26573 -10.26456
 Alpha  occ. eigenvalues --  -10.26432 -10.26292 -10.26252 -10.26182 -10.26143
 Alpha  occ. eigenvalues --  -10.26083 -10.26048 -10.26018 -10.26006 -10.25999
 Alpha  occ. eigenvalues --  -10.25976 -10.25422 -10.25407 -10.25260 -10.25227
 Alpha  occ. eigenvalues --  -10.25016 -10.24860 -10.24841 -10.24625 -10.24487
 Alpha  occ. eigenvalues --  -10.24129 -10.23834  -1.09430  -1.07604  -0.93997
 Alpha  occ. eigenvalues --   -0.93795  -0.92297  -0.91495  -0.90383  -0.89601
 Alpha  occ. eigenvalues --   -0.87530  -0.86836  -0.86484  -0.85734  -0.84581
 Alpha  occ. eigenvalues --   -0.83893  -0.81714  -0.80423  -0.80142  -0.77842
 Alpha  occ. eigenvalues --   -0.76819  -0.76773  -0.76159  -0.75937  -0.75128
 Alpha  occ. eigenvalues --   -0.75029  -0.75016  -0.73996  -0.71870  -0.70969
 Alpha  occ. eigenvalues --   -0.69432  -0.68049  -0.66539  -0.66137  -0.63956
 Alpha  occ. eigenvalues --   -0.63891  -0.63143  -0.62388  -0.60806  -0.60286
 Alpha  occ. eigenvalues --   -0.59967  -0.59332  -0.58199  -0.56900  -0.55740
 Alpha  occ. eigenvalues --   -0.55483  -0.55165  -0.54977  -0.53695  -0.53638
 Alpha  occ. eigenvalues --   -0.53263  -0.53108  -0.52545  -0.52328  -0.50936
 Alpha  occ. eigenvalues --   -0.50241  -0.50106  -0.49576  -0.49514  -0.49002
 Alpha  occ. eigenvalues --   -0.48699  -0.48515  -0.48483  -0.48202  -0.47797
 Alpha  occ. eigenvalues --   -0.47645  -0.47410  -0.47365  -0.47015  -0.46265
 Alpha  occ. eigenvalues --   -0.45950  -0.45682  -0.45342  -0.45181  -0.44976
 Alpha  occ. eigenvalues --   -0.44795  -0.44490  -0.44146  -0.43852  -0.43423
 Alpha  occ. eigenvalues --   -0.43271  -0.42956  -0.42917  -0.42088  -0.41888
 Alpha  occ. eigenvalues --   -0.41828  -0.41450  -0.41361  -0.40901  -0.40874
 Alpha  occ. eigenvalues --   -0.40629  -0.40245  -0.39942  -0.39883  -0.39438
 Alpha  occ. eigenvalues --   -0.38712  -0.38655  -0.38074  -0.37957  -0.37801
 Alpha  occ. eigenvalues --   -0.37168  -0.37088  -0.37045  -0.35988  -0.35680
 Alpha  occ. eigenvalues --   -0.35391  -0.34910  -0.33294  -0.32282  -0.31526
 Alpha  occ. eigenvalues --   -0.30850  -0.30249  -0.29075  -0.26905  -0.22968
 Alpha  occ. eigenvalues --   -0.17916
 Alpha virt. eigenvalues --   -0.07101  -0.01742   0.02789   0.06115   0.07704
 Alpha virt. eigenvalues --    0.08616   0.10861   0.11255   0.11551   0.11798
 Alpha virt. eigenvalues --    0.12229   0.12666   0.12747   0.13166   0.13945

 Mulliken charges:
               1
     1  O   -0.534037
     2  O   -0.568949
     3  C   -0.021172
     4  C   -0.085930
     5  C   -0.161911
     6  C    0.153555
     7  C    0.097656
     8  C   -0.021013
     9  C   -0.267367
    10  C   -0.267320
    11  C   -0.178309
    12  C   -0.152939
    13  C    0.162277
    14  C    0.042068
    15  C   -0.100897
    16  C   -0.191615
    17  C    0.058889
    18  C   -0.305005
    19  C   -0.319124
    20  C   -0.359933
    21  C   -0.059560
    22  C   -0.133461
    23  C   -0.358330
    24  C    0.097163
    25  C   -0.082190
    26  C   -0.383269
    27  C    0.059752
    28  C   -0.151132
    29  C   -0.352048
    30  C   -0.097057
    31  C   -0.054924
    32  C   -0.059335
    33  C   -0.122754
    34  C    0.062658
    35  C   -0.134209
    36  C    0.096471
    37  C   -0.363484
    38  C   -0.091899
    39  C   -0.131146
    40  C   -0.337827
    41  C   -0.052199
    42  C   -0.089067
    43  H    0.074778
    44  H    0.097251
    45  H    0.074451
    46  H    0.067094
    47  H    0.105666
    48  H    0.078937
    49  H    0.088307
    50  H    0.108532
    51  H    0.085398
    52  H    0.086564
    53  H    0.084715
    54  H    0.070540
    55  H    0.073819
    56  H    0.090441
    57  H    0.089021
    58  H    0.118131
    59  H    0.095621
    60  H    0.088103
    61  H    0.110582
    62  H    0.113889
    63  H    0.092816
    64  H    0.105776
    65  H    0.112161
    66  H    0.113921
    67  H    0.125808
    68  H    0.110394
    69  H    0.304324
    70  H    0.100074
    71  H    0.062129
    72  H    0.120817
    73  H    0.125008
    74  H    0.111886
    75  H    0.297496
    76  H    0.066250
    77  H    0.103240
    78  H    0.121649
    79  H    0.129462
    80  H    0.085497
    81  H    0.127742
    82  H    0.126469
    83  H    0.084296
    84  H    0.055983
    85  H    0.090740
    86  H    0.089304
    87  H    0.079716
    88  H    0.078126
    89  H    0.122953
    90  H    0.121032
    91  H    0.093321
    92  H    0.065235
    93  H    0.065905
    94  H    0.119068
    95  H    0.113250
    96  H    0.053587
    97  H    0.088140
    98  H    0.093505
 Sum of Mulliken charges =  -0.00000

 Dipole moment (field-independent basis, Debye):
    X=              0.4583    Y=             -1.3009    Z=              0.1030  Tot=              1.3831
 Quadrupole moment (field-independent basis, Debye-Ang):
   XX=           -267.0946   YY=           -246.9724   ZZ=           -261.2919
   XY=             -6.3648   XZ=             48.1993   YZ=              2.8606

 Normal termination of Gaussian 16 at Tue Jul 16 01:54:37 2019.
