 Gaussian 16, Revision A.03,
 Gaussian 16:  ES64L-G16RevA.03 25-Dec-2016

 -------------------------------------
 # td=(NStates=1) CAM-B3LYP/6-31G(d,p)
 -------------------------------------

 --
 TD
 --
 Symbolic Z-matrix:
 Charge =  0 Multiplicity = 1

                         Standard orientation:
 ---------------------------------------------------------------------
 Center     Atomic      Atomic             Coordinates (Angstroms)
 Number     Number       Type             X           Y           Z
 ---------------------------------------------------------------------
      1          8           0      -14.105218   -2.036183    0.661774
      2          8           0       14.906846    0.729821    0.000785
      3          6           0      -11.779963    0.004937    1.262597
      4          6           0      -11.015731    0.192713   -0.105020
      5          6           0      -11.910531   -1.393388    1.483178
      6          6           0      -12.680240   -2.106762    0.312344
      7          6           0      -11.548489   -0.568239   -1.166090
      8          6           0       11.180187    0.945586    1.054247
      9          6           0      -11.114369    0.702620    2.487962
     10          6           0      -13.065404    0.781368    1.059629
     11          6           0       12.558046    1.527178    0.602353
     12          6           0      -12.360861   -1.601416   -1.090406
     13          6           0       13.555851    0.352709    0.404056
     14          6           0       10.726456   -0.081185   -0.025787
     15          6           0       -9.569141   -0.141252    0.059915
     16          6           0       13.126409   -0.498105   -0.796220
     17          6           0       11.636262   -0.671621   -0.797034
     18          6           0       10.262978    2.237686    1.039025
     19          6           0       11.115933    0.395359    2.437368
     20          6           0      -11.227640   -0.024693   -2.554466
     21          6           0       -8.538653    0.729651   -0.177108
     22          6           0        9.272694   -0.368866    0.103755
     23          6           0       11.271619   -1.639627   -1.889555
     24          6           0       -7.125653    0.513839   -0.122122
     25          6           0        8.749462   -1.689193   -0.005759
     26          6           0       -6.815251   -0.946097    0.120858
     27          6           0        7.398853   -2.045098    0.052480
     28          6           0       -6.336035    1.546117   -0.290183
     29          6           0        7.019772   -3.492513    0.090940
     30          6           0        6.362563   -1.131006   -0.264528
     31          6           0       -4.865445    1.430918   -0.439311
     32          6           0        4.970055   -1.419691   -0.114141
     33          6           0       -4.059071    2.496598   -0.603098
     34          6           0       -2.661202    2.651121   -0.653633
     35          6           0        3.981434   -0.466698   -0.355843
     36          6           0        2.574136   -0.577928   -0.163310
     37          6           0       -1.940240    3.995208   -1.105249
     38          6           0       -1.888683    1.407510   -0.549796
     39          6           0        1.749649    0.463235   -0.306993
     40          6           0        2.102440   -1.919593    0.112346
     41          6           0       -0.429099    1.496606   -0.617901
     42          6           0        0.377990    0.459520   -0.349995
     43          1           0      -11.039817    1.478354   -0.347733
     44          1           0      -12.495872   -1.375395    2.434734
     45          1           0      -11.018613   -1.934831    1.599897
     46          1           0      -12.412552   -3.188743    0.560365
     47          1           0      -10.189304    0.164899    2.809942
     48          1           0      -10.893825    1.825020    2.248060
     49          1           0      -11.636181    0.669848    3.451500
     50          1           0      -13.627770    0.162879    0.344718
     51          1           0      -13.715810    1.010057    2.151366
     52          1           0      -12.830513    1.831203    0.599688
     53          1           0       12.272696    2.036625   -0.526353
     54          1           0       13.166861    2.375561    1.310463
     55          1           0      -12.626539   -2.056102   -1.833056
     56          1           0       13.605745   -0.214122    1.203859
     57          1           0       -9.279940   -1.246385    0.307552
     58          1           0       13.685309   -1.269035   -1.021018
     59          1           0       13.281162    0.257078   -1.606987
     60          1           0        9.355220    2.042584    1.825252
     61          1           0       10.067338    2.732566    0.170521
     62          1           0       10.846694    2.985055    1.605415
     63          1           0       11.965536   -0.403122    2.515986
     64          1           0       10.107010    0.020059    2.633745
     65          1           0       11.405579    1.133227    3.265519
     66          1           0      -10.107407   -0.082514   -2.395977
     67          1           0      -11.557558    1.094281   -2.741298
     68          1           0      -11.702822   -0.888028   -3.385789
     69          1           0      -14.613071   -2.105237   -0.279449
     70          1           0        8.725172    0.407420    0.486623
     71          1           0       -8.868609    1.629441   -0.417114
     72          1           0       11.568468   -2.645582   -1.547784
     73          1           0       10.179269   -1.649649   -2.078521
     74          1           0       11.899101   -1.409566   -2.716233
     75          1           0       15.462204    0.998805    0.866629
     76          1           0        9.535150   -2.479813   -0.009156
     77          1           0       -5.687748   -1.009790    0.143488
     78          1           0       -7.166578   -1.175301    1.155570
     79          1           0       -7.373925   -1.614569   -0.647806
     80          1           0       -6.566237    2.592364   -0.454952
     81          1           0        7.099056   -3.782617    1.232210
     82          1           0        5.901981   -3.619111   -0.352384
     83          1           0        7.705927   -4.263871   -0.272281
     84          1           0        6.570851    0.025412   -0.659823
     85          1           0       -4.303924    0.513555    0.009232
     86          1           0        4.671774   -2.520537    0.084604
     87          1           0       -4.530793    3.478221   -0.887847
     88          1           0        4.307060    0.744552   -0.428625
     89          1           0       -1.441305    3.736051   -2.116813
     90          1           0       -1.426816    4.440452   -0.201469
     91          1           0       -2.679449    4.588616   -1.147097
     92          1           0       -2.452247    0.496019   -0.202958
     93          1           0        2.252834    1.411626   -0.438859
     94          1           0        2.620882   -2.169555    0.934673
     95          1           0        1.074337   -1.848871    0.464165
     96          1           0        2.261751   -2.715008   -0.737886
     97          1           0        0.067467    2.389418   -0.882624
     98          1           0       -0.196760   -0.438055   -0.215400
 ---------------------------------------------------------------------

 SCF Done:  E(RCAM-B3LYP) =  -1706.88652088     A.U. after   15 cycles

 Excitation energies and oscillator strengths:

 Excited State   1:      Singlet-A      2.2185 eV  558.87 nm  f=3.0741  <S**2>=0.000
     155 ->158         0.17839
     156 ->157         0.68378
 This state for optimization and/or second-order correction.
 Total Energy, E(TD-HF/TD-DFT) =  -1706.80499268
 Copying the excited state density for this state as the 1-particle RhoCI density.

 The electronic state is 1-A.
 Alpha  occ. eigenvalues --  -19.21561 -19.21274 -10.30789 -10.29397 -10.28279
 Alpha  occ. eigenvalues --  -10.28020 -10.27981 -10.27847 -10.27675 -10.27603
 Alpha  occ. eigenvalues --  -10.27580 -10.27568 -10.27456 -10.27456 -10.27320
 Alpha  occ. eigenvalues --  -10.26762 -10.26753 -10.26750 -10.26698 -10.26621
 Alpha  occ. eigenvalues --  -10.26486 -10.26319 -10.26305 -10.26298 -10.26235
 Alpha  occ. eigenvalues --  -10.26200 -10.26191 -10.25863 -10.25816 -10.25767
 Alpha  occ. eigenvalues --  -10.25556 -10.25190 -10.25124 -10.25049 -10.24999
 Alpha  occ. eigenvalues --  -10.24644 -10.24460 -10.24429 -10.24290 -10.24269
 Alpha  occ. eigenvalues --  -10.23896 -10.23880  -1.06642  -1.06094  -0.95397
 Alpha  occ. eigenvalues --   -0.93530  -0.92902  -0.91967  -0.90639  -0.90012
 Alpha  occ. eigenvalues --   -0.88270  -0.87471  -0.87419  -0.85116  -0.84573
 Alpha  occ. eigenvalues --   -0.82799  -0.82155  -0.79796  -0.79712  -0.78875
 Alpha  occ. eigenvalues --   -0.77197  -0.76309  -0.76115  -0.75916  -0.75529
 Alpha  occ. eigenvalues --   -0.75358  -0.74659  -0.73886  -0.72927  -0.70377
 Alpha  occ. eigenvalues --   -0.69141  -0.67431  -0.66386  -0.65867  -0.64046
 Alpha  occ. eigenvalues --   -0.62963  -0.62258  -0.62083  -0.60272  -0.59629
 Alpha  occ. eigenvalues --   -0.58814  -0.58454  -0.58319  -0.57197  -0.56185
 Alpha  occ. eigenvalues --   -0.55655  -0.55241  -0.54594  -0.54387  -0.53510
 Alpha  occ. eigenvalues --   -0.52955  -0.52572  -0.52098  -0.52029  -0.51267
 Alpha  occ. eigenvalues --   -0.50601  -0.49840  -0.49659  -0.49599  -0.49231
 Alpha  occ. eigenvalues --   -0.48943  -0.48852  -0.48540  -0.48400  -0.47659
 Alpha  occ. eigenvalues --   -0.47280  -0.47205  -0.47069  -0.46431  -0.46339
 Alpha  occ. eigenvalues --   -0.45903  -0.45539  -0.45306  -0.44841  -0.44399
 Alpha  occ. eigenvalues --   -0.44242  -0.44021  -0.43516  -0.43260  -0.43204
 Alpha  occ. eigenvalues --   -0.43105  -0.42846  -0.42353  -0.41998  -0.41813
 Alpha  occ. eigenvalues --   -0.41628  -0.41432  -0.41133  -0.40971  -0.40843
 Alpha  occ. eigenvalues --   -0.40522  -0.40340  -0.39962  -0.39590  -0.39414
 Alpha  occ. eigenvalues --   -0.39101  -0.38185  -0.38149  -0.37797  -0.37782
 Alpha  occ. eigenvalues --   -0.37437  -0.37148  -0.36569  -0.36195  -0.35732
 Alpha  occ. eigenvalues --   -0.35317  -0.34465  -0.33866  -0.31909  -0.31410
 Alpha  occ. eigenvalues --   -0.31394  -0.29347  -0.29184  -0.27212  -0.23418
 Alpha  occ. eigenvalues --   -0.19718
 Alpha virt. eigenvalues --   -0.05631  -0.01518   0.02684   0.04849   0.06458
 Alpha virt. eigenvalues --    0.09195   0.10723   0.11310   0.11498   0.11682
 Alpha virt. eigenvalues --    0.11925   0.12595   0.12909   0.13311   0.13799

 Mulliken charges:
               1
     1  O   -0.553601
     2  O   -0.579485
     3  C    0.031957
     4  C   -0.169512
     5  C   -0.167099
     6  C    0.112842
     7  C    0.150985
     8  C   -0.014999
     9  C   -0.301501
    10  C   -0.253873
    11  C   -0.178252
    12  C   -0.091059
    13  C    0.176220
    14  C    0.063930
    15  C   -0.088904
    16  C   -0.209366
    17  C    0.032793
    18  C   -0.308187
    19  C   -0.288951
    20  C   -0.323863
    21  C   -0.067718
    22  C   -0.099636
    23  C   -0.363942
    24  C    0.134896
    25  C   -0.130770
    26  C   -0.369247
    27  C    0.105104
    28  C   -0.134754
    29  C   -0.365418
    30  C   -0.119767
    31  C   -0.082662
    32  C   -0.097205
    33  C   -0.106522
    34  C    0.028488
    35  C   -0.121252
    36  C    0.129514
    37  C   -0.339053
    38  C   -0.120369
    39  C   -0.122868
    40  C   -0.370833
    41  C   -0.085248
    42  C   -0.069539
    43  H    0.060933
    44  H    0.112642
    45  H    0.100082
    46  H    0.074775
    47  H    0.087081
    48  H    0.085458
    49  H    0.104347
    50  H    0.111269
    51  H    0.059265
    52  H    0.077051
    53  H    0.075444
    54  H    0.060086
    55  H    0.046778
    56  H    0.090917
    57  H    0.078995
    58  H    0.113325
    59  H    0.129975
    60  H    0.073772
    61  H    0.116950
    62  H    0.100648
    63  H    0.084139
    64  H    0.116103
    65  H    0.094652
    66  H    0.120884
    67  H    0.113145
    68  H    0.071720
    69  H    0.299126
    70  H    0.094317
    71  H    0.057941
    72  H    0.108396
    73  H    0.121373
    74  H    0.109824
    75  H    0.297786
    76  H    0.095061
    77  H    0.098976
    78  H    0.128149
    79  H    0.120721
    80  H    0.093568
    81  H    0.102656
    82  H    0.103048
    83  H    0.123855
    84  H    0.084870
    85  H    0.070913
    86  H    0.093324
    87  H    0.061318
    88  H    0.057469
    89  H    0.136873
    90  H    0.124706
    91  H    0.115189
    92  H    0.087491
    93  H    0.072229
    94  H    0.133634
    95  H    0.102930
    96  H    0.111260
    97  H    0.084001
    98  H    0.077282
 Sum of Mulliken charges =  -0.00000

 Dipole moment (field-independent basis, Debye):
    X=              2.2774    Y=             -0.3286    Z=              0.2761  Tot=              2.3175
 Quadrupole moment (field-independent basis, Debye-Ang):
   XX=           -282.2278   YY=           -244.9201   ZZ=           -263.4002
   XY=             -6.9660   XZ=             44.7802   YZ=              1.8652

 Normal termination of Gaussian 16 at Fri Jul 12 18:44:36 2019.
