 Gaussian 16, Revision A.03,
 Gaussian 16:  ES64L-G16RevA.03 25-Dec-2016

 -------------------------------------
 # td=(NStates=1) CAM-B3LYP/6-31G(d,p)
 -------------------------------------

 --
 TD
 --
 Symbolic Z-matrix:
 Charge =  0 Multiplicity = 1

                         Standard orientation:
 ---------------------------------------------------------------------
 Center     Atomic      Atomic             Coordinates (Angstroms)
 Number     Number       Type             X           Y           Z
 ---------------------------------------------------------------------
      1          8           0      -14.268112   -1.908544    0.612487
      2          8           0       14.773446    0.779847    0.224416
      3          6           0      -11.772528    0.111800    1.226820
      4          6           0      -11.022855    0.278398   -0.175478
      5          6           0      -11.976199   -1.285626    1.506192
      6          6           0      -12.778422   -1.992629    0.430426
      7          6           0      -11.663128   -0.544513   -1.244418
      8          6           0       11.044635    0.955269    0.979773
      9          6           0      -11.100101    0.758634    2.417305
     10          6           0      -13.163787    0.849886    1.025143
     11          6           0       12.549637    1.491265    0.766000
     12          6           0      -12.366965   -1.634883   -0.980510
     13          6           0       13.517712    0.387058    0.485028
     14          6           0       10.678646    0.004645   -0.006354
     15          6           0       -9.527238   -0.123315   -0.054232
     16          6           0       13.073550   -0.339677   -0.744463
     17          6           0       11.536696   -0.516639   -0.932665
     18          6           0       10.240977    2.256860    0.935267
     19          6           0       10.888884    0.381066    2.432993
     20          6           0      -11.289297   -0.042168   -2.643601
     21          6           0       -8.495896    0.750643   -0.206185
     22          6           0        9.274639   -0.347248    0.005786
     23          6           0       11.170570   -1.461148   -2.099495
     24          6           0       -7.032808    0.408698   -0.155739
     25          6           0        8.761564   -1.582082   -0.159682
     26          6           0       -6.696325   -0.892451    0.311189
     27          6           0        7.417666   -2.145110   -0.061262
     28          6           0       -6.191619    1.514672   -0.326729
     29          6           0        7.182177   -3.509043    0.063906
     30          6           0        6.361088   -1.251913   -0.028329
     31          6           0       -4.777614    1.478575   -0.196155
     32          6           0        5.046013   -1.602992   -0.028706
     33          6           0       -3.907811    2.637607   -0.527441
     34          6           0       -2.509476    2.630453   -0.682389
     35          6           0        4.066896   -0.616946   -0.161551
     36          6           0        2.635436   -0.720413   -0.141873
     37          6           0       -1.870727    3.859884   -1.087591
     38          6           0       -1.738513    1.502267   -0.532269
     39          6           0        1.814438    0.245878   -0.367132
     40          6           0        2.161062   -2.176815    0.132381
     41          6           0       -0.293139    1.489986   -0.654774
     42          6           0        0.399192    0.279152   -0.259212
     43          1           0      -10.820456    1.316372   -0.459953
     44          1           0      -12.369263   -1.320129    2.556679
     45          1           0      -11.005646   -1.933839    1.629618
     46          1           0      -12.548272   -3.074104    0.538516
     47          1           0      -10.153516    0.208260    2.674066
     48          1           0      -10.853341    1.808825    2.183349
     49          1           0      -11.765845    0.461632    3.332470
     50          1           0      -13.637954    0.495952    0.168142
     51          1           0      -13.808944    0.494906    1.914970
     52          1           0      -13.255839    2.042586    0.969493
     53          1           0       12.654785    2.187662   -0.093390
     54          1           0       12.740466    2.175524    1.652050
     55          1           0      -12.492408   -2.350863   -1.656556
     56          1           0       13.519867   -0.371445    1.301474
     57          1           0       -9.211561   -1.060948   -0.056795
     58          1           0       13.801908   -1.056352   -0.912287
     59          1           0       13.459272    0.080962   -1.714175
     60          1           0        9.210893    2.066980    1.291525
     61          1           0        9.874718    2.465409   -0.169884
     62          1           0       10.687657    3.291909    1.326789
     63          1           0       11.546750   -0.385358    2.510280
     64          1           0        9.731167    0.051935    2.475354
     65          1           0       11.162294    1.105338    3.258702
     66          1           0      -10.149019    0.268424   -2.595680
     67          1           0      -12.152260    0.856485   -2.843586
     68          1           0      -11.463899   -0.797105   -3.438481
     69          1           0      -14.678612   -2.518810   -0.262724
     70          1           0        8.664160    0.479980   -0.048130
     71          1           0       -8.812278    1.763165   -0.437222
     72          1           0       11.570712   -2.462927   -1.909660
     73          1           0       10.202349   -1.450416   -2.414859
     74          1           0       11.840803   -0.997816   -2.781175
     75          1           0       14.916734    1.768731    0.975718
     76          1           0        9.457533   -2.595297   -0.135195
     77          1           0       -5.779377   -1.140266    0.258289
     78          1           0       -7.220134   -1.149500    1.375092
     79          1           0       -7.252925   -1.751635   -0.355332
     80          1           0       -6.441051    2.567802   -0.541372
     81          1           0        6.682319   -3.835996    1.063678
     82          1           0        6.491700   -3.838890   -0.722442
     83          1           0        7.979078   -4.155669    0.034798
     84          1           0        6.653467   -0.221983   -0.172039
     85          1           0       -4.286756    0.511822    0.111323
     86          1           0        4.767491   -2.623763    0.102260
     87          1           0       -4.518831    3.549503   -0.806638
     88          1           0        4.410387    0.434835   -0.445697
     89          1           0       -1.387602    3.847862   -2.276182
     90          1           0       -0.953696    4.156218   -0.548115
     91          1           0       -2.608710    4.628454   -1.079639
     92          1           0       -2.308301    0.678894   -0.282774
     93          1           0        2.182273    1.205975   -0.572988
     94          1           0        2.387992   -2.402689    1.165554
     95          1           0        1.079775   -2.109607    0.083340
     96          1           0        2.505282   -2.977571   -0.447103
     97          1           0        0.117795    2.391407   -0.995372
     98          1           0       -0.287978   -0.673762   -0.033163
 ---------------------------------------------------------------------

 SCF Done:  E(RCAM-B3LYP) =  -1706.92066200     A.U. after   15 cycles

 Excitation energies and oscillator strengths:

 Excited State   1:      Singlet-A      2.0694 eV  599.13 nm  f=2.9241  <S**2>=0.000
     155 ->158         0.15651
     156 ->157         0.69066
 This state for optimization and/or second-order correction.
 Total Energy, E(TD-HF/TD-DFT) =  -1706.84461244
 Copying the excited state density for this state as the 1-particle RhoCI density.

 The electronic state is 1-A.
 Alpha  occ. eigenvalues --  -19.22927 -19.21672 -10.30508 -10.29291 -10.28756
 Alpha  occ. eigenvalues --  -10.28329 -10.28105 -10.27936 -10.27851 -10.27575
 Alpha  occ. eigenvalues --  -10.27255 -10.27188 -10.27155 -10.27063 -10.26935
 Alpha  occ. eigenvalues --  -10.26828 -10.26771 -10.26684 -10.26678 -10.26608
 Alpha  occ. eigenvalues --  -10.26529 -10.26315 -10.26266 -10.26208 -10.26046
 Alpha  occ. eigenvalues --  -10.25971 -10.25579 -10.25366 -10.25358 -10.25263
 Alpha  occ. eigenvalues --  -10.25127 -10.24936 -10.24899 -10.24866 -10.24822
 Alpha  occ. eigenvalues --  -10.24773 -10.24732 -10.24632 -10.24343 -10.23965
 Alpha  occ. eigenvalues --  -10.23915 -10.23903  -1.09653  -1.04133  -0.94027
 Alpha  occ. eigenvalues --   -0.93843  -0.92770  -0.92214  -0.91378  -0.90834
 Alpha  occ. eigenvalues --   -0.87328  -0.86704  -0.86179  -0.85503  -0.84792
 Alpha  occ. eigenvalues --   -0.83500  -0.82396  -0.80286  -0.80230  -0.78738
 Alpha  occ. eigenvalues --   -0.76969  -0.76798  -0.76146  -0.75813  -0.75307
 Alpha  occ. eigenvalues --   -0.75249  -0.75082  -0.74163  -0.73293  -0.70537
 Alpha  occ. eigenvalues --   -0.69197  -0.67268  -0.66488  -0.65032  -0.64653
 Alpha  occ. eigenvalues --   -0.63064  -0.62829  -0.62049  -0.61064  -0.60967
 Alpha  occ. eigenvalues --   -0.60266  -0.58906  -0.57869  -0.57292  -0.56831
 Alpha  occ. eigenvalues --   -0.56029  -0.55059  -0.54244  -0.54103  -0.53537
 Alpha  occ. eigenvalues --   -0.53206  -0.53071  -0.52555  -0.52358  -0.51440
 Alpha  occ. eigenvalues --   -0.50821  -0.50114  -0.49995  -0.49402  -0.49029
 Alpha  occ. eigenvalues --   -0.48787  -0.48658  -0.48440  -0.48343  -0.47545
 Alpha  occ. eigenvalues --   -0.47156  -0.47154  -0.46842  -0.46571  -0.46205
 Alpha  occ. eigenvalues --   -0.45951  -0.45904  -0.45274  -0.45156  -0.45073
 Alpha  occ. eigenvalues --   -0.44885  -0.44516  -0.44178  -0.43919  -0.43752
 Alpha  occ. eigenvalues --   -0.43594  -0.43449  -0.42722  -0.42397  -0.42343
 Alpha  occ. eigenvalues --   -0.41915  -0.41707  -0.41043  -0.40904  -0.40564
 Alpha  occ. eigenvalues --   -0.40471  -0.40298  -0.40090  -0.40007  -0.39621
 Alpha  occ. eigenvalues --   -0.39240  -0.38598  -0.38323  -0.38154  -0.37681
 Alpha  occ. eigenvalues --   -0.37513  -0.37086  -0.36057  -0.36017  -0.35184
 Alpha  occ. eigenvalues --   -0.34903  -0.34663  -0.33703  -0.31842  -0.31343
 Alpha  occ. eigenvalues --   -0.31242  -0.29343  -0.28656  -0.27021  -0.23231
 Alpha  occ. eigenvalues --   -0.19567
 Alpha virt. eigenvalues --   -0.06356  -0.01858   0.02754   0.05181   0.05317
 Alpha virt. eigenvalues --    0.06651   0.08442   0.09795   0.10733   0.11920
 Alpha virt. eigenvalues --    0.12463   0.12774   0.12892   0.13250   0.13393

 Mulliken charges:
               1
     1  O   -0.556500
     2  O   -0.547013
     3  C    0.029416
     4  C   -0.135984
     5  C   -0.174863
     6  C    0.135903
     7  C    0.130753
     8  C   -0.032887
     9  C   -0.292246
    10  C   -0.289486
    11  C   -0.220813
    12  C   -0.132057
    13  C    0.227735
    14  C    0.076590
    15  C   -0.064975
    16  C   -0.251932
    17  C    0.053802
    18  C   -0.310357
    19  C   -0.281886
    20  C   -0.341477
    21  C   -0.105145
    22  C   -0.133077
    23  C   -0.338245
    24  C    0.108732
    25  C   -0.095963
    26  C   -0.358001
    27  C    0.110308
    28  C   -0.103914
    29  C   -0.401043
    30  C   -0.092304
    31  C   -0.086261
    32  C   -0.074266
    33  C   -0.164257
    34  C    0.144389
    35  C   -0.134512
    36  C    0.126843
    37  C   -0.383910
    38  C   -0.093176
    39  C   -0.121345
    40  C   -0.373753
    41  C   -0.086896
    42  C   -0.100155
    43  H    0.083897
    44  H    0.101653
    45  H    0.091068
    46  H    0.073626
    47  H    0.091018
    48  H    0.101482
    49  H    0.088328
    50  H    0.125006
    51  H    0.094004
    52  H    0.073626
    53  H    0.101565
    54  H    0.066728
    55  H    0.076131
    56  H    0.061818
    57  H    0.061774
    58  H    0.120293
    59  H    0.096221
    60  H    0.099240
    61  H    0.083996
    62  H    0.097530
    63  H    0.114854
    64  H    0.095399
    65  H    0.092413
    66  H    0.114356
    67  H    0.099347
    68  H    0.109085
    69  H    0.291576
    70  H    0.092064
    71  H    0.073769
    72  H    0.118053
    73  H    0.123375
    74  H    0.107425
    75  H    0.283780
    76  H    0.055820
    77  H    0.113804
    78  H    0.119540
    79  H    0.095268
    80  H    0.091600
    81  H    0.115927
    82  H    0.126131
    83  H    0.115593
    84  H    0.074938
    85  H    0.082831
    86  H    0.088889
    87  H    0.083730
    88  H    0.068634
    89  H    0.081788
    90  H    0.125889
    91  H    0.111299
    92  H    0.061629
    93  H    0.082265
    94  H    0.123157
    95  H    0.095321
    96  H    0.126014
    97  H    0.094189
    98  H    0.095470
 Sum of Mulliken charges =  -0.00000

 Dipole moment (field-independent basis, Debye):
    X=              0.7606    Y=             -0.8288    Z=             -0.9096  Tot=              1.4466
 Quadrupole moment (field-independent basis, Debye-Ang):
   XX=           -313.7615   YY=           -238.0936   ZZ=           -264.5704
   XY=             18.8737   XZ=             31.1743   YZ=              2.4040

 Normal termination of Gaussian 16 at Sat Jul 13 01:24:29 2019.
