 Gaussian 16, Revision A.03,
 Gaussian 16:  ES64L-G16RevA.03 25-Dec-2016

 -------------------------------------
 # td=(NStates=1) CAM-B3LYP/6-31G(d,p)
 -------------------------------------

 --
 TD
 --
 Symbolic Z-matrix:
 Charge =  0 Multiplicity = 1

                         Standard orientation:
 ---------------------------------------------------------------------
 Center     Atomic      Atomic             Coordinates (Angstroms)
 Number     Number       Type             X           Y           Z
 ---------------------------------------------------------------------
      1          8           0      -14.091795   -2.185086    0.220154
      2          8           0       14.801600    0.914450   -0.235978
      3          6           0      -11.798913   -0.175386    1.249400
      4          6           0      -10.987305    0.283842   -0.033503
      5          6           0      -11.972590   -1.746737    1.157954
      6          6           0      -12.667341   -2.175636   -0.091981
      7          6           0      -11.513176   -0.285505   -1.324359
      8          6           0       11.160943    0.795136    1.108647
      9          6           0      -11.035292    0.229655    2.492666
     10          6           0      -13.191656    0.389611    1.194085
     11          6           0       12.598957    1.350708    0.827349
     12          6           0      -12.297970   -1.415546   -1.365155
     13          6           0       13.554711    0.310617    0.192734
     14          6           0       10.717465   -0.021033   -0.086324
     15          6           0       -9.490145    0.047274    0.058033
     16          6           0       12.917869   -0.166422   -1.241222
     17          6           0       11.454267   -0.489398   -1.105287
     18          6           0       10.203963    2.018513    1.222713
     19          6           0       11.234468   -0.039433    2.403547
     20          6           0      -11.191826    0.511192   -2.517317
     21          6           0       -8.563219    0.990776   -0.082078
     22          6           0        9.261163   -0.450324    0.117908
     23          6           0       10.996099   -1.380997   -2.305873
     24          6           0       -7.138108    0.641273   -0.036933
     25          6           0        8.756129   -1.638153   -0.083603
     26          6           0       -6.738199   -0.752553    0.078272
     27          6           0        7.412424   -2.011526    0.017925
     28          6           0       -6.174721    1.746985   -0.152502
     29          6           0        7.083879   -3.494128    0.323105
     30          6           0        6.311847   -1.209323   -0.113121
     31          6           0       -4.812404    1.570026   -0.157035
     32          6           0        5.033135   -1.442778   -0.023255
     33          6           0       -3.978481    2.700591   -0.422985
     34          6           0       -2.548005    2.756420   -0.442855
     35          6           0        3.987160   -0.530023   -0.171671
     36          6           0        2.636053   -0.666054   -0.062141
     37          6           0       -1.869632    4.018153   -0.737585
     38          6           0       -1.736853    1.579142   -0.251077
     39          6           0        1.756517    0.380240   -0.144691
     40          6           0        2.106671   -2.101470    0.032797
     41          6           0       -0.460323    1.512008   -0.271757
     42          6           0        0.379566    0.382924   -0.020693
     43          1           0      -11.018116    1.410820    0.116471
     44          1           0      -12.534274   -2.269606    2.125183
     45          1           0      -10.816778   -2.224295    1.155326
     46          1           0      -12.219857   -3.186316   -0.390514
     47          1           0      -10.162138   -0.405283    2.836482
     48          1           0      -10.698554    1.284514    2.309562
     49          1           0      -11.864246    0.252549    3.411283
     50          1           0      -13.812365    0.215672    0.269426
     51          1           0      -13.777581    0.178384    2.113685
     52          1           0      -13.347061    1.513522    1.373035
     53          1           0       12.509008    2.015271    0.059900
     54          1           0       13.014024    1.972848    1.617663
     55          1           0      -12.560744   -1.798316   -2.235772
     56          1           0       13.681164   -0.514941    0.808463
     57          1           0       -8.966768   -1.002685    0.264576
     58          1           0       13.603286   -0.909571   -1.726374
     59          1           0       12.986134    0.580763   -2.008992
     60          1           0        9.350222    1.592622    1.913620
     61          1           0        9.832047    2.480423    0.326818
     62          1           0       10.589110    2.563430    1.988831
     63          1           0       11.890791   -0.772872    2.271670
     64          1           0       10.398012   -0.309741    2.602759
     65          1           0       11.560449    0.578912    3.145043
     66          1           0      -10.178861    0.873950   -2.637370
     67          1           0      -11.901932    1.419100   -2.551583
     68          1           0      -11.523371   -0.180633   -3.543227
     69          1           0      -14.646685   -2.678499   -0.605971
     70          1           0        8.472142    0.202869    0.444189
     71          1           0       -8.712588    2.024455   -0.643217
     72          1           0       11.391497   -2.402495   -2.086961
     73          1           0        9.961040   -1.430866   -2.606571
     74          1           0       11.496520   -0.983455   -3.106999
     75          1           0       15.263272    1.618500    0.481205
     76          1           0        9.307931   -2.581187   -0.408580
     77          1           0       -5.787802   -0.960247    0.102583
     78          1           0       -7.313907   -1.086546    0.943505
     79          1           0       -7.152988   -1.327880   -0.789168
     80          1           0       -6.581167    2.698806   -0.134194
     81          1           0        6.952521   -3.676105    1.373628
     82          1           0        6.203656   -4.027643   -0.120950
     83          1           0        7.931311   -4.100845   -0.083449
     84          1           0        6.373265   -0.194984   -0.440204
     85          1           0       -4.555557    0.487380   -0.191597
     86          1           0        4.706103   -2.431528    0.528651
     87          1           0       -4.606713    3.713127   -0.388548
     88          1           0        4.510182    0.442386   -0.080358
     89          1           0       -1.557271    4.019147   -1.685260
     90          1           0       -1.128420    4.132845   -0.158847
     91          1           0       -2.677611    4.708780   -0.921027
     92          1           0       -2.308999    0.757687   -0.209055
     93          1           0        2.291172    1.309176   -0.195672
     94          1           0        2.405235   -2.483338    1.120296
     95          1           0        1.073614   -2.201812    0.008891
     96          1           0        2.631752   -2.821969   -0.650975
     97          1           0        0.146124    2.402712   -0.420700
     98          1           0       -0.180423   -0.457870    0.043184
 ---------------------------------------------------------------------

 SCF Done:  E(RCAM-B3LYP) =  -1706.89337263     A.U. after   18 cycles

 Excitation energies and oscillator strengths:

 Excited State   1:      Singlet-A      1.6725 eV  741.31 nm  f=3.0690  <S**2>=0.000
     155 ->158         0.11293
     156 ->157         0.71434
     156 <-157        -0.16285
 This state for optimization and/or second-order correction.
 Total Energy, E(TD-HF/TD-DFT) =  -1706.83190953
 Copying the excited state density for this state as the 1-particle RhoCI density.

 The electronic state is 1-A.
 Alpha  occ. eigenvalues --  -19.22568 -19.21405 -10.31310 -10.30491 -10.28390
 Alpha  occ. eigenvalues --  -10.28013 -10.27600 -10.27468 -10.27451 -10.27426
 Alpha  occ. eigenvalues --  -10.27380 -10.27344 -10.27268 -10.27224 -10.27013
 Alpha  occ. eigenvalues --  -10.26948 -10.26649 -10.26377 -10.26241 -10.26132
 Alpha  occ. eigenvalues --  -10.26013 -10.25575 -10.25376 -10.25342 -10.25267
 Alpha  occ. eigenvalues --  -10.25224 -10.25205 -10.25196 -10.25140 -10.25064
 Alpha  occ. eigenvalues --  -10.24957 -10.24956 -10.24920 -10.24818 -10.24432
 Alpha  occ. eigenvalues --  -10.24363 -10.23924 -10.23885 -10.23636 -10.23627
 Alpha  occ. eigenvalues --  -10.22560 -10.20772  -1.06477  -1.05536  -0.93584
 Alpha  occ. eigenvalues --   -0.93078  -0.92645  -0.92000  -0.91324  -0.90238
 Alpha  occ. eigenvalues --   -0.87631  -0.86854  -0.86743  -0.86189  -0.84962
 Alpha  occ. eigenvalues --   -0.83473  -0.82149  -0.80907  -0.80244  -0.79348
 Alpha  occ. eigenvalues --   -0.78278  -0.77596  -0.76226  -0.75840  -0.75560
 Alpha  occ. eigenvalues --   -0.75186  -0.74918  -0.74719  -0.72712  -0.70473
 Alpha  occ. eigenvalues --   -0.69054  -0.66914  -0.66354  -0.65398  -0.64586
 Alpha  occ. eigenvalues --   -0.63004  -0.62575  -0.62460  -0.61087  -0.59620
 Alpha  occ. eigenvalues --   -0.59404  -0.58665  -0.57900  -0.57576  -0.56724
 Alpha  occ. eigenvalues --   -0.55888  -0.55422  -0.54466  -0.54224  -0.53905
 Alpha  occ. eigenvalues --   -0.53136  -0.53109  -0.52624  -0.52109  -0.51862
 Alpha  occ. eigenvalues --   -0.51459  -0.50497  -0.50364  -0.49741  -0.49390
 Alpha  occ. eigenvalues --   -0.49192  -0.49108  -0.48774  -0.48350  -0.48034
 Alpha  occ. eigenvalues --   -0.47599  -0.47308  -0.46977  -0.46467  -0.46272
 Alpha  occ. eigenvalues --   -0.46016  -0.45593  -0.45202  -0.45091  -0.45032
 Alpha  occ. eigenvalues --   -0.44643  -0.43926  -0.43770  -0.43693  -0.43458
 Alpha  occ. eigenvalues --   -0.43323  -0.43072  -0.42522  -0.42409  -0.42126
 Alpha  occ. eigenvalues --   -0.41713  -0.41533  -0.41355  -0.41165  -0.40478
 Alpha  occ. eigenvalues --   -0.40371  -0.40266  -0.39647  -0.39595  -0.39265
 Alpha  occ. eigenvalues --   -0.38929  -0.38877  -0.38558  -0.38453  -0.38151
 Alpha  occ. eigenvalues --   -0.37516  -0.36241  -0.36172  -0.35540  -0.35353
 Alpha  occ. eigenvalues --   -0.34860  -0.34104  -0.33627  -0.32423  -0.31752
 Alpha  occ. eigenvalues --   -0.31674  -0.29046  -0.28753  -0.27191  -0.23604
 Alpha  occ. eigenvalues --   -0.17341
 Alpha virt. eigenvalues --   -0.07457  -0.00951   0.03300   0.05323   0.07246
 Alpha virt. eigenvalues --    0.09108   0.10037   0.10062   0.10965   0.12202
 Alpha virt. eigenvalues --    0.12624   0.13251   0.13575   0.13814   0.14177

 Mulliken charges:
               1
     1  O   -0.544449
     2  O   -0.583704
     3  C    0.045775
     4  C   -0.160731
     5  C   -0.160063
     6  C    0.140433
     7  C    0.144189
     8  C   -0.048343
     9  C   -0.298679
    10  C   -0.297488
    11  C   -0.201759
    12  C   -0.120240
    13  C    0.183734
    14  C    0.051646
    15  C   -0.093994
    16  C   -0.245860
    17  C    0.036057
    18  C   -0.301779
    19  C   -0.259585
    20  C   -0.349919
    21  C   -0.077532
    22  C   -0.135363
    23  C   -0.349039
    24  C    0.073223
    25  C   -0.063707
    26  C   -0.374594
    27  C    0.060710
    28  C   -0.109737
    29  C   -0.379176
    30  C   -0.104993
    31  C   -0.050073
    32  C   -0.060028
    33  C   -0.164337
    34  C    0.059506
    35  C   -0.154990
    36  C    0.133249
    37  C   -0.349985
    38  C   -0.065888
    39  C   -0.114993
    40  C   -0.367709
    41  C   -0.074891
    42  C   -0.089919
    43  H    0.101727
    44  H    0.097082
    45  H    0.059142
    46  H    0.079829
    47  H    0.104873
    48  H    0.101582
    49  H    0.073169
    50  H    0.128383
    51  H    0.101514
    52  H    0.067526
    53  H    0.109792
    54  H    0.071717
    55  H    0.070431
    56  H    0.091447
    57  H    0.080008
    58  H    0.109037
    59  H    0.128404
    60  H    0.080547
    61  H    0.122893
    62  H    0.105086
    63  H    0.108245
    64  H    0.105734
    65  H    0.096666
    66  H    0.125093
    67  H    0.118658
    68  H    0.067986
    69  H    0.300580
    70  H    0.091096
    71  H    0.087004
    72  H    0.115814
    73  H    0.121627
    74  H    0.113087
    75  H    0.299901
    76  H    0.072712
    77  H    0.110632
    78  H    0.133666
    79  H    0.126595
    80  H    0.074988
    81  H    0.128569
    82  H    0.113908
    83  H    0.094322
    84  H    0.061587
    85  H    0.088417
    86  H    0.060645
    87  H    0.081760
    88  H    0.072826
    89  H    0.140176
    90  H    0.128925
    91  H    0.102455
    92  H    0.058994
    93  H    0.074584
    94  H    0.096494
    95  H    0.112203
    96  H    0.120445
    97  H    0.066738
    98  H    0.067705
 Sum of Mulliken charges =  -0.00000

 Dipole moment (field-independent basis, Debye):
    X=             -1.6393    Y=              0.0130    Z=             -0.4704  Tot=              1.7055
 Quadrupole moment (field-independent basis, Debye-Ang):
   XX=           -256.8004   YY=           -243.2393   ZZ=           -260.1902
   XY=             15.1635   XZ=             40.1647   YZ=              3.1127

 Normal termination of Gaussian 16 at Mon Jul 15 23:36:33 2019.
