 Gaussian 16, Revision A.03,
 Gaussian 16:  ES64L-G16RevA.03 25-Dec-2016

 -------------------------------------
 # td=(NStates=1) CAM-B3LYP/6-31G(d,p)
 -------------------------------------

 --
 TD
 --
 Symbolic Z-matrix:
 Charge =  0 Multiplicity = 1

                         Standard orientation:
 ---------------------------------------------------------------------
 Center     Atomic      Atomic             Coordinates (Angstroms)
 Number     Number       Type             X           Y           Z
 ---------------------------------------------------------------------
      1          8           0      -14.155161   -1.944388    0.528887
      2          8           0       14.934598    0.935261    0.071814
      3          6           0      -11.794181    0.161263    1.115458
      4          6           0      -11.007860    0.276596   -0.105074
      5          6           0      -11.994214   -1.385591    1.448879
      6          6           0      -12.716952   -2.067924    0.336802
      7          6           0      -11.628648   -0.455601   -1.254399
      8          6           0       11.162548    1.106368    1.023527
      9          6           0      -11.169901    0.719712    2.460618
     10          6           0      -13.248324    0.810339    1.187637
     11          6           0       12.603889    1.567887    0.748446
     12          6           0      -12.370788   -1.487095   -0.956461
     13          6           0       13.661814    0.396552    0.467522
     14          6           0       10.767127    0.071741   -0.039521
     15          6           0       -9.612833    0.098904    0.028640
     16          6           0       13.162841   -0.325558   -0.836682
     17          6           0       11.601582   -0.506365   -0.845511
     18          6           0       10.270604    2.425490    0.921609
     19          6           0       10.952598    0.409496    2.321381
     20          6           0      -11.476615    0.151625   -2.624148
     21          6           0       -8.532352    0.900679   -0.171172
     22          6           0        9.278422   -0.380800    0.051878
     23          6           0       11.291384   -1.472959   -2.035093
     24          6           0       -7.162299    0.447994   -0.151110
     25          6           0        8.889250   -1.648961   -0.034082
     26          6           0       -6.948099   -0.968645    0.174173
     27          6           0        7.494675   -2.133725    0.022027
     28          6           0       -6.275757    1.383510   -0.372901
     29          6           0        7.200470   -3.671202    0.150682
     30          6           0        6.456394   -1.267190   -0.045258
     31          6           0       -4.822250    1.273148   -0.391443
     32          6           0        5.135040   -1.509939    0.021049
     33          6           0       -4.041981    2.400878   -0.557974
     34          6           0       -2.621736    2.417835   -0.642127
     35          6           0        4.151064   -0.580915   -0.274877
     36          6           0        2.634786   -0.770639   -0.193244
     37          6           0       -2.027921    3.818287   -1.055544
     38          6           0       -1.767979    1.370241   -0.445757
     39          6           0        1.795576    0.283456   -0.360007
     40          6           0        2.195035   -2.112092    0.144704
     41          6           0       -0.372786    1.421364   -0.544216
     42          6           0        0.427887    0.276731   -0.259365
     43          1           0      -11.078080    1.399648   -0.422297
     44          1           0      -12.544985   -1.533429    2.484795
     45          1           0      -11.026498   -1.858072    1.807950
     46          1           0      -12.506843   -3.242902    0.260652
     47          1           0      -10.110694    0.381721    2.515645
     48          1           0      -11.335717    1.849668    2.493709
     49          1           0      -11.817244    0.187073    3.366808
     50          1           0      -13.924247    0.303372    0.371771
     51          1           0      -13.446422    0.771465    2.372932
     52          1           0      -13.365251    1.862753    1.038180
     53          1           0       12.767804    2.148999    0.006784
     54          1           0       13.065193    1.993697    1.638526
     55          1           0      -12.950425   -2.209056   -1.782848
     56          1           0       13.798437   -0.223647    1.289278
     57          1           0       -9.449133   -0.754042    0.248057
     58          1           0       13.525364   -1.362110   -1.012238
     59          1           0       13.448254    0.261134   -1.722652
     60          1           0        9.368942    2.331869    1.251856
     61          1           0       10.235714    2.735978   -0.241207
     62          1           0       10.641194    3.168785    1.610197
     63          1           0       11.530242   -0.430757    2.499314
     64          1           0        9.883305    0.209395    2.313022
     65          1           0       11.315045    1.238452    3.081153
     66          1           0      -10.504198    0.493637   -2.784379
     67          1           0      -12.107661    1.252280   -2.560992
     68          1           0      -12.067143   -0.390149   -3.450150
     69          1           0      -14.665620   -2.246408   -0.288612
     70          1           0        8.530433    0.311971    0.322880
     71          1           0       -8.708333    1.967847   -0.463320
     72          1           0       11.681959   -2.423020   -1.946818
     73          1           0       10.130341   -1.756493   -2.151081
     74          1           0       11.755831   -1.242937   -2.945161
     75          1           0       15.269503    1.590737    0.762086
     76          1           0        9.577541   -2.408349   -0.054799
     77          1           0       -5.817559   -1.262544    0.264230
     78          1           0       -7.302004   -1.313316    1.156929
     79          1           0       -7.571103   -1.693821   -0.460092
     80          1           0       -6.677214    2.318184   -0.627222
     81          1           0        6.974008   -4.073304    1.246630
     82          1           0        6.551109   -3.985653   -0.596138
     83          1           0        8.289947   -4.292560   -0.042524
     84          1           0        6.686888   -0.048727   -0.377352
     85          1           0       -4.451415    0.158081   -0.306115
     86          1           0        4.502649   -2.584917    0.017216
     87          1           0       -4.783455    3.188631   -0.742343
     88          1           0        4.444920    0.195766   -0.402991
     89          1           0       -1.473983    3.759078   -2.028939
     90          1           0       -1.197658    4.193891   -0.441267
     91          1           0       -2.899546    4.609687   -1.058054
     92          1           0       -2.316855    0.510306   -0.011960
     93          1           0        2.286953    1.192543   -0.472339
     94          1           0        2.564825   -2.466730    1.103306
     95          1           0        1.080599   -2.117446    0.098297
     96          1           0        2.785122   -2.815949   -0.450758
     97          1           0       -0.007124    2.214883   -1.092636
     98          1           0       -0.058256   -0.661550   -0.064910
 ---------------------------------------------------------------------

 SCF Done:  E(RCAM-B3LYP) =  -1706.86521931     A.U. after   15 cycles

 Excitation energies and oscillator strengths:

 Excited State   1:      Singlet-A      2.3489 eV  527.84 nm  f=3.0404  <S**2>=0.000
     155 ->158        -0.14991
     156 ->157         0.69091
 This state for optimization and/or second-order correction.
 Total Energy, E(TD-HF/TD-DFT) =  -1706.77889972
 Copying the excited state density for this state as the 1-particle RhoCI density.

 The electronic state is 1-A.
 Alpha  occ. eigenvalues --  -19.21208 -19.21048 -10.31397 -10.30239 -10.28088
 Alpha  occ. eigenvalues --  -10.27888 -10.27513 -10.27504 -10.27441 -10.27426
 Alpha  occ. eigenvalues --  -10.27407 -10.27203 -10.27119 -10.26963 -10.26911
 Alpha  occ. eigenvalues --  -10.26852 -10.26760 -10.26689 -10.26563 -10.26442
 Alpha  occ. eigenvalues --  -10.26339 -10.26273 -10.26258 -10.26039 -10.26037
 Alpha  occ. eigenvalues --  -10.25983 -10.25954 -10.25814 -10.25637 -10.25620
 Alpha  occ. eigenvalues --  -10.25542 -10.25381 -10.25342 -10.25240 -10.25027
 Alpha  occ. eigenvalues --  -10.24711 -10.24548 -10.24532 -10.24449 -10.24378
 Alpha  occ. eigenvalues --  -10.23755 -10.23430  -1.07866  -1.07655  -0.95297
 Alpha  occ. eigenvalues --   -0.93274  -0.92648  -0.92381  -0.91076  -0.90187
 Alpha  occ. eigenvalues --   -0.87501  -0.86595  -0.86294  -0.85986  -0.84911
 Alpha  occ. eigenvalues --   -0.83186  -0.82175  -0.80772  -0.79992  -0.78823
 Alpha  occ. eigenvalues --   -0.77234  -0.77193  -0.76404  -0.76195  -0.76078
 Alpha  occ. eigenvalues --   -0.75462  -0.74872  -0.73538  -0.72651  -0.70713
 Alpha  occ. eigenvalues --   -0.69265  -0.67831  -0.66906  -0.66259  -0.64934
 Alpha  occ. eigenvalues --   -0.64088  -0.63650  -0.62807  -0.61358  -0.60660
 Alpha  occ. eigenvalues --   -0.60194  -0.58855  -0.58530  -0.57892  -0.56548
 Alpha  occ. eigenvalues --   -0.55844  -0.55352  -0.54576  -0.54306  -0.53772
 Alpha  occ. eigenvalues --   -0.53105  -0.53035  -0.52417  -0.51412  -0.51020
 Alpha  occ. eigenvalues --   -0.50541  -0.50312  -0.49985  -0.49232  -0.48936
 Alpha  occ. eigenvalues --   -0.48919  -0.48765  -0.48257  -0.48091  -0.47719
 Alpha  occ. eigenvalues --   -0.47590  -0.47329  -0.47044  -0.46668  -0.46386
 Alpha  occ. eigenvalues --   -0.46206  -0.45594  -0.45324  -0.44958  -0.44770
 Alpha  occ. eigenvalues --   -0.44600  -0.44408  -0.44088  -0.43683  -0.43562
 Alpha  occ. eigenvalues --   -0.43229  -0.43062  -0.42851  -0.42286  -0.41640
 Alpha  occ. eigenvalues --   -0.41347  -0.41332  -0.41169  -0.40588  -0.40149
 Alpha  occ. eigenvalues --   -0.40138  -0.39973  -0.39805  -0.39690  -0.39457
 Alpha  occ. eigenvalues --   -0.39426  -0.39073  -0.39020  -0.38927  -0.38209
 Alpha  occ. eigenvalues --   -0.37680  -0.37153  -0.36839  -0.35690  -0.35038
 Alpha  occ. eigenvalues --   -0.34680  -0.34433  -0.33742  -0.32119  -0.31836
 Alpha  occ. eigenvalues --   -0.31333  -0.30022  -0.29512  -0.27335  -0.24393
 Alpha  occ. eigenvalues --   -0.20090
 Alpha virt. eigenvalues --   -0.05503  -0.00818   0.02922   0.05975   0.07354
 Alpha virt. eigenvalues --    0.08968   0.10329   0.11347   0.11991   0.12128
 Alpha virt. eigenvalues --    0.12272   0.12553   0.13061   0.13341   0.13452

 Mulliken charges:
               1
     1  O   -0.549656
     2  O   -0.568262
     3  C    0.002893
     4  C   -0.147686
     5  C   -0.192237
     6  C    0.163723
     7  C    0.148372
     8  C   -0.035157
     9  C   -0.297425
    10  C   -0.274784
    11  C   -0.176258
    12  C   -0.129590
    13  C    0.149476
    14  C    0.075975
    15  C   -0.014523
    16  C   -0.215004
    17  C    0.020218
    18  C   -0.296212
    19  C   -0.276653
    20  C   -0.346008
    21  C   -0.120142
    22  C   -0.122288
    23  C   -0.370526
    24  C    0.185748
    25  C   -0.076939
    26  C   -0.396700
    27  C    0.072179
    28  C   -0.151975
    29  C   -0.352815
    30  C   -0.126859
    31  C   -0.065152
    32  C   -0.051628
    33  C   -0.131045
    34  C    0.090873
    35  C   -0.027760
    36  C    0.103864
    37  C   -0.383404
    38  C   -0.101721
    39  C   -0.095093
    40  C   -0.395749
    41  C   -0.088352
    42  C   -0.093521
    43  H    0.071113
    44  H    0.099696
    45  H    0.095742
    46  H    0.067395
    47  H    0.099575
    48  H    0.097890
    49  H    0.080372
    50  H    0.112488
    51  H    0.081033
    52  H    0.090487
    53  H    0.111029
    54  H    0.067284
    55  H    0.043321
    56  H    0.087670
    57  H    0.037320
    58  H    0.103341
    59  H    0.126521
    60  H    0.108639
    61  H    0.094510
    62  H    0.102129
    63  H    0.114638
    64  H    0.114821
    65  H    0.071027
    66  H    0.134167
    67  H    0.081731
    68  H    0.116033
    69  H    0.304128
    70  H    0.084716
    71  H    0.071522
    72  H    0.117576
    73  H    0.097668
    74  H    0.115807
    75  H    0.300547
    76  H    0.083405
    77  H    0.095975
    78  H    0.128586
    79  H    0.120725
    80  H    0.076940
    81  H    0.118259
    82  H    0.140726
    83  H    0.071408
    84  H    0.073599
    85  H    0.080968
    86  H    0.050505
    87  H    0.094097
    88  H   -0.010148
    89  H    0.118403
    90  H    0.121563
    91  H    0.099058
    92  H    0.074239
    93  H    0.078254
    94  H    0.134787
    95  H    0.104202
    96  H    0.124410
    97  H    0.089586
    98  H    0.086318
 Sum of Mulliken charges =  -0.00000

 Dipole moment (field-independent basis, Debye):
    X=              0.8044    Y=             -0.5861    Z=             -0.2814  Tot=              1.0343
 Quadrupole moment (field-independent basis, Debye-Ang):
   XX=           -281.8741   YY=           -243.8063   ZZ=           -262.9365
   XY=              8.2143   XZ=             39.6476   YZ=              1.0719

 Normal termination of Gaussian 16 at Mon Jul 15 23:14:53 2019.
