 Gaussian 16, Revision A.03,
 Gaussian 16:  ES64L-G16RevA.03 25-Dec-2016

 -------------------------------------
 # td=(NStates=1) CAM-B3LYP/6-31G(d,p)
 -------------------------------------

 --
 TD
 --
 Symbolic Z-matrix:
 Charge =  0 Multiplicity = 1

                         Standard orientation:
 ---------------------------------------------------------------------
 Center     Atomic      Atomic             Coordinates (Angstroms)
 Number     Number       Type             X           Y           Z
 ---------------------------------------------------------------------
      1          8           0      -14.040855   -2.164979    0.148204
      2          8           0       14.919068    0.882483   -0.128447
      3          6           0      -11.865706    0.033800    1.203571
      4          6           0      -11.021636    0.470046   -0.038950
      5          6           0      -11.995782   -1.603249    1.231045
      6          6           0      -12.594717   -2.117247   -0.063214
      7          6           0      -11.563656   -0.280214   -1.216489
      8          6           0       11.121415    1.121384    0.922938
      9          6           0      -11.228981    0.549853    2.488107
     10          6           0      -13.204420    0.719395    1.196572
     11          6           0       12.598375    1.503616    0.678055
     12          6           0      -12.243982   -1.342224   -1.295098
     13          6           0       13.564268    0.390868    0.168188
     14          6           0       10.649231    0.028329   -0.094203
     15          6           0       -9.567038    0.104697    0.099688
     16          6           0       13.039675   -0.189150   -1.045361
     17          6           0       11.463560   -0.589690   -0.993818
     18          6           0       10.253209    2.326117    0.880341
     19          6           0       10.991398    0.413172    2.301449
     20          6           0      -11.140707    0.353670   -2.589612
     21          6           0       -8.533398    0.913934   -0.248359
     22          6           0        9.265207   -0.403723    0.069159
     23          6           0       11.129430   -1.576357   -2.087409
     24          6           0       -7.143792    0.540779   -0.015706
     25          6           0        8.760317   -1.611824    0.076914
     26          6           0       -6.889318   -0.937927    0.307685
     27          6           0        7.456943   -2.062167    0.134156
     28          6           0       -6.226056    1.505713   -0.211780
     29          6           0        7.072824   -3.484668    0.493146
     30          6           0        6.356157   -1.222745   -0.120456
     31          6           0       -4.823585    1.463631   -0.325958
     32          6           0        4.975580   -1.534861    0.069085
     33          6           0       -3.996668    2.476392   -0.618604
     34          6           0       -2.634756    2.548360   -0.578793
     35          6           0        4.044348   -0.576283   -0.118908
     36          6           0        2.670579   -0.896808   -0.051200
     37          6           0       -1.828563    3.727572   -0.854976
     38          6           0       -1.701845    1.437594   -0.218797
     39          6           0        1.792772    0.237411   -0.231320
     40          6           0        2.099004   -2.224324    0.243754
     41          6           0       -0.337849    1.305931   -0.341596
     42          6           0        0.315683    0.177640   -0.073578
     43          1           0      -11.305472    1.647838    0.049747
     44          1           0      -12.547827   -1.811836    2.019766
     45          1           0      -11.167136   -2.020535    1.420930
     46          1           0      -12.221612   -3.127426   -0.323624
     47          1           0      -10.069088    0.329109    2.425559
     48          1           0      -11.336915    1.661385    2.698554
     49          1           0      -12.078555    0.221072    3.173339
     50          1           0      -13.886516    0.457832    0.540871
     51          1           0      -13.756860    0.622854    2.156197
     52          1           0      -13.294589    1.917319    1.250495
     53          1           0       12.550055    2.154442   -0.189158
     54          1           0       13.113973    2.071727    1.449880
     55          1           0      -12.321883   -1.825023   -2.274366
     56          1           0       13.675413   -0.500980    0.761712
     57          1           0       -9.542132   -0.889970    0.315294
     58          1           0       13.625380   -0.912584   -1.454307
     59          1           0       13.329685    0.531872   -1.847183
     60          1           0        9.265202    2.046459    1.170437
     61          1           0       10.002128    2.552158   -0.157508
     62          1           0       10.688411    3.069842    1.392196
     63          1           0       11.811201   -0.244748    2.337724
     64          1           0       10.034246    0.164748    2.732553
     65          1           0       11.504694    1.226900    2.968111
     66          1           0      -10.070631    0.377205   -2.591907
     67          1           0      -11.416181    1.357349   -2.657970
     68          1           0      -11.553683   -0.208861   -3.366554
     69          1           0      -14.489530   -2.227071   -0.611616
     70          1           0        8.647988    0.654352    0.213825
     71          1           0       -8.716457    1.957785   -0.327095
     72          1           0       11.493215   -2.633176   -1.794183
     73          1           0       10.050329   -1.812930   -2.119102
     74          1           0       11.730270   -1.569968   -3.037345
     75          1           0       15.027258    1.403547    0.787836
     76          1           0        9.320550   -2.429231    0.096020
     77          1           0       -5.725904   -1.340531    0.063151
     78          1           0       -7.098678   -1.087192    1.346416
     79          1           0       -7.562726   -1.463786   -0.455768
     80          1           0       -6.731770    2.271301   -0.575256
     81          1           0        6.506446   -3.820848    1.378433
     82          1           0        6.556582   -3.850910   -0.385773
     83          1           0        7.955174   -4.162755    0.718015
     84          1           0        6.615833   -0.170588   -0.515054
     85          1           0       -4.325252    0.419802   -0.268305
     86          1           0        4.663389   -2.479087    0.447454
     87          1           0       -4.245356    3.691604   -0.677179
     88          1           0        4.503787    0.439476   -0.500743
     89          1           0       -1.432019    3.740400   -1.836842
     90          1           0       -0.858945    3.851260   -0.170602
     91          1           0       -2.516747    4.543414   -0.636112
     92          1           0       -2.118339    0.405275    0.142958
     93          1           0        2.212606    1.133482   -0.570057
     94          1           0        2.486572   -2.625886    1.227695
     95          1           0        0.984067   -2.302874    0.536231
     96          1           0        2.403127   -2.941825   -0.873362
     97          1           0        0.217897    2.283288   -0.853011
     98          1           0       -0.075504   -0.663176    0.312519
 ---------------------------------------------------------------------

 SCF Done:  E(RCAM-B3LYP) =  -1706.87314231     A.U. after   15 cycles

 Excitation energies and oscillator strengths:

 Excited State   1:      Singlet-A      2.0442 eV  606.52 nm  f=2.9510  <S**2>=0.000
     155 ->158        -0.14479
     156 ->157         0.69411
 This state for optimization and/or second-order correction.
 Total Energy, E(TD-HF/TD-DFT) =  -1706.79801930
 Copying the excited state density for this state as the 1-particle RhoCI density.

 The electronic state is 1-A.
 Alpha  occ. eigenvalues --  -19.22093 -19.19687 -10.30755 -10.29639 -10.29455
 Alpha  occ. eigenvalues --  -10.27888 -10.27807 -10.27606 -10.27606 -10.27415
 Alpha  occ. eigenvalues --  -10.27357 -10.27278 -10.27185 -10.27176 -10.27038
 Alpha  occ. eigenvalues --  -10.26927 -10.26741 -10.26691 -10.26690 -10.26612
 Alpha  occ. eigenvalues --  -10.26525 -10.26395 -10.26229 -10.26081 -10.26052
 Alpha  occ. eigenvalues --  -10.26033 -10.26003 -10.25953 -10.25770 -10.25687
 Alpha  occ. eigenvalues --  -10.25510 -10.25321 -10.25317 -10.24623 -10.24434
 Alpha  occ. eigenvalues --  -10.24278 -10.24230 -10.23843 -10.23471 -10.23363
 Alpha  occ. eigenvalues --  -10.23263 -10.23116  -1.09310  -1.07236  -0.94293
 Alpha  occ. eigenvalues --   -0.93622  -0.92520  -0.91995  -0.91170  -0.90399
 Alpha  occ. eigenvalues --   -0.88330  -0.87567  -0.86864  -0.86015  -0.85293
 Alpha  occ. eigenvalues --   -0.83698  -0.82907  -0.81269  -0.80347  -0.77717
 Alpha  occ. eigenvalues --   -0.77671  -0.77281  -0.76896  -0.76493  -0.76170
 Alpha  occ. eigenvalues --   -0.76148  -0.75366  -0.74563  -0.72214  -0.71164
 Alpha  occ. eigenvalues --   -0.69315  -0.69006  -0.65874  -0.65262  -0.64797
 Alpha  occ. eigenvalues --   -0.64001  -0.62884  -0.62446  -0.60501  -0.60013
 Alpha  occ. eigenvalues --   -0.59684  -0.59399  -0.58408  -0.57317  -0.56590
 Alpha  occ. eigenvalues --   -0.56043  -0.55785  -0.55334  -0.54530  -0.54111
 Alpha  occ. eigenvalues --   -0.53392  -0.53038  -0.52123  -0.51975  -0.51032
 Alpha  occ. eigenvalues --   -0.50893  -0.50472  -0.50172  -0.50009  -0.49736
 Alpha  occ. eigenvalues --   -0.49385  -0.49157  -0.48950  -0.48415  -0.48173
 Alpha  occ. eigenvalues --   -0.47764  -0.47653  -0.47522  -0.47164  -0.47039
 Alpha  occ. eigenvalues --   -0.46460  -0.46177  -0.45800  -0.45538  -0.45181
 Alpha  occ. eigenvalues --   -0.44919  -0.44125  -0.44034  -0.43691  -0.43506
 Alpha  occ. eigenvalues --   -0.42961  -0.42563  -0.42348  -0.42296  -0.41926
 Alpha  occ. eigenvalues --   -0.41518  -0.41346  -0.40945  -0.40504  -0.40390
 Alpha  occ. eigenvalues --   -0.40152  -0.39969  -0.39713  -0.39457  -0.39206
 Alpha  occ. eigenvalues --   -0.39099  -0.38775  -0.38482  -0.38209  -0.37972
 Alpha  occ. eigenvalues --   -0.37336  -0.36865  -0.36414  -0.36212  -0.36027
 Alpha  occ. eigenvalues --   -0.35736  -0.35375  -0.33547  -0.32489  -0.32007
 Alpha  occ. eigenvalues --   -0.31153  -0.30864  -0.28889  -0.27257  -0.23476
 Alpha  occ. eigenvalues --   -0.19206
 Alpha virt. eigenvalues --   -0.06228  -0.01255   0.02723   0.05650   0.07943
 Alpha virt. eigenvalues --    0.08868   0.10655   0.10866   0.10881   0.11504
 Alpha virt. eigenvalues --    0.12883   0.13072   0.13124   0.13545   0.14196

 Mulliken charges:
               1
     1  O   -0.547139
     2  O   -0.561971
     3  C   -0.004956
     4  C   -0.138487
     5  C   -0.156572
     6  C    0.134808
     7  C    0.143104
     8  C   -0.012992
     9  C   -0.302517
    10  C   -0.300826
    11  C   -0.220126
    12  C   -0.163410
    13  C    0.153958
    14  C    0.036438
    15  C   -0.075975
    16  C   -0.233783
    17  C    0.073295
    18  C   -0.304146
    19  C   -0.285168
    20  C   -0.355504
    21  C   -0.111785
    22  C   -0.105339
    23  C   -0.381826
    24  C    0.102455
    25  C   -0.071542
    26  C   -0.358384
    27  C    0.071813
    28  C   -0.100504
    29  C   -0.388585
    30  C   -0.136438
    31  C   -0.102206
    32  C   -0.071830
    33  C   -0.067808
    34  C    0.084017
    35  C   -0.097281
    36  C    0.100997
    37  C   -0.374376
    38  C   -0.139867
    39  C   -0.126271
    40  C   -0.353525
    41  C   -0.039943
    42  C   -0.068223
    43  H    0.083162
    44  H    0.119046
    45  H    0.097369
    46  H    0.076445
    47  H    0.093767
    48  H    0.094734
    49  H    0.099669
    50  H    0.120872
    51  H    0.092480
    52  H    0.069171
    53  H    0.118129
    54  H    0.078103
    55  H    0.086530
    56  H    0.089833
    57  H    0.095739
    58  H    0.106800
    59  H    0.103418
    60  H    0.110524
    61  H    0.107906
    62  H    0.111585
    63  H    0.111641
    64  H    0.122458
    65  H    0.064448
    66  H    0.115962
    67  H    0.114373
    68  H    0.099970
    69  H    0.288361
    70  H    0.061388
    71  H    0.094988
    72  H    0.101722
    73  H    0.121435
    74  H    0.120213
    75  H    0.303735
    76  H    0.073106
    77  H    0.082866
    78  H    0.137205
    79  H    0.119434
    80  H    0.071991
    81  H    0.123336
    82  H    0.132291
    83  H    0.092002
    84  H    0.072943
    85  H    0.090160
    86  H    0.090816
    87  H    0.054966
    88  H    0.087849
    89  H    0.137126
    90  H    0.110861
    91  H    0.097663
    92  H    0.056483
    93  H    0.081250
    94  H    0.120578
    95  H    0.110860
    96  H    0.087663
    97  H    0.070309
    98  H    0.080684
 Sum of Mulliken charges =  -0.00000

 Dipole moment (field-independent basis, Debye):
    X=             -0.8311    Y=             -0.6499    Z=              0.1061  Tot=              1.0603
 Quadrupole moment (field-independent basis, Debye-Ang):
   XX=           -300.2499   YY=           -245.4263   ZZ=           -261.8459
   XY=              0.1496   XZ=             33.8738   YZ=              2.7285

 Normal termination of Gaussian 16 at Mon Jul 15 11:08:30 2019.
