 Gaussian 16, Revision A.03,
 Gaussian 16:  ES64L-G16RevA.03 25-Dec-2016

 -------------------------------------
 # td=(NStates=1) CAM-B3LYP/6-31G(d,p)
 -------------------------------------

 --
 TD
 --
 Symbolic Z-matrix:
 Charge =  0 Multiplicity = 1

                         Standard orientation:
 ---------------------------------------------------------------------
 Center     Atomic      Atomic             Coordinates (Angstroms)
 Number     Number       Type             X           Y           Z
 ---------------------------------------------------------------------
      1          8           0      -14.102346   -1.800936    0.908208
      2          8           0       14.832474    0.907563    0.117240
      3          6           0      -11.838525    0.416055    1.188461
      4          6           0      -10.998133    0.306649   -0.218226
      5          6           0      -11.994900   -1.128641    1.654432
      6          6           0      -12.743422   -1.969453    0.567848
      7          6           0      -11.572410   -0.700677   -1.226332
      8          6           0       11.112167    1.052640    1.030718
      9          6           0      -11.055816    1.112615    2.272314
     10          6           0      -13.117761    1.053007    0.861875
     11          6           0       12.562940    1.553333    0.751243
     12          6           0      -12.424932   -1.654579   -0.915603
     13          6           0       13.421963    0.437079    0.330241
     14          6           0       10.686860   -0.099194    0.015357
     15          6           0       -9.511515   -0.043960    0.030298
     16          6           0       12.937040   -0.135501   -1.015591
     17          6           0       11.517145   -0.639330   -0.905009
     18          6           0       10.236683    2.257696    0.927747
     19          6           0       11.011974    0.459790    2.396126
     20          6           0      -11.197974   -0.439452   -2.672740
     21          6           0       -8.493615    0.724650   -0.336435
     22          6           0        9.256872   -0.430482    0.224663
     23          6           0       11.116940   -1.405601   -2.055623
     24          6           0       -7.105775    0.431302   -0.202948
     25          6           0        8.835754   -1.673182    0.081449
     26          6           0       -6.769355   -1.012729    0.309660
     27          6           0        7.492874   -2.070507    0.063452
     28          6           0       -6.094887    1.328224   -0.511509
     29          6           0        7.159026   -3.562908    0.279142
     30          6           0        6.434278   -1.162262   -0.165774
     31          6           0       -4.761151    1.170370   -0.512058
     32          6           0        5.046249   -1.549113   -0.091650
     33          6           0       -4.067444    2.388979   -0.730780
     34          6           0       -2.671605    2.543657   -0.686544
     35          6           0        4.012140   -0.593896   -0.295590
     36          6           0        2.668119   -0.832317   -0.141155
     37          6           0       -1.980031    3.870118   -1.103218
     38          6           0       -1.739899    1.453262   -0.358628
     39          6           0        1.808129    0.211160   -0.340011
     40          6           0        2.220252   -2.242415    0.193093
     41          6           0       -0.318322    1.499368   -0.437691
     42          6           0        0.452213    0.287693   -0.357147
     43          1           0      -11.084183    1.306758   -0.683089
     44          1           0      -12.659572   -1.252584    2.544524
     45          1           0      -10.964676   -1.414159    2.165236
     46          1           0      -12.321941   -2.912825    0.802487
     47          1           0      -10.175396    0.544331    2.572345
     48          1           0      -10.601790    1.991514    1.655427
     49          1           0      -11.679233    1.413603    3.250078
     50          1           0      -13.705006    0.395767    0.233698
     51          1           0      -13.501002    1.266763    1.845118
     52          1           0      -12.991606    2.125087    0.436934
     53          1           0       12.409404    2.395235   -0.086484
     54          1           0       13.039852    2.144141    1.759186
     55          1           0      -12.844751   -2.273826   -1.716820
     56          1           0       13.561753   -0.391299    1.020305
     57          1           0       -9.445487   -1.152568    0.249944
     58          1           0       13.311296   -0.979844   -1.144659
     59          1           0       13.034925    0.465503   -1.774541
     60          1           0        9.174311    2.193778    1.333608
     61          1           0        9.865208    2.539244   -0.138699
     62          1           0       10.696486    3.121803    1.426754
     63          1           0       11.518865   -0.598521    2.410742
     64          1           0        9.986534    0.185065    2.889190
     65          1           0       11.568450    1.297015    2.918056
     66          1           0      -10.228155   -0.668883   -2.810133
     67          1           0      -11.760897    0.574685   -2.989010
     68          1           0      -11.572309   -1.140151   -3.397263
     69          1           0      -14.684255   -2.721680    0.496913
     70          1           0        8.631711    0.334111    0.676193
     71          1           0       -8.825015    1.695255   -0.726158
     72          1           0       11.374584   -2.533066   -1.753715
     73          1           0       10.013883   -1.473471   -2.257797
     74          1           0       11.658754   -1.091835   -2.848503
     75          1           0       15.130177    1.611758    0.833837
     76          1           0        9.500176   -2.348814   -0.108991
     77          1           0       -5.762811   -1.339646    0.348598
     78          1           0       -7.320623   -1.260700    1.231401
     79          1           0       -7.580366   -1.604094   -0.201159
     80          1           0       -6.469894    2.277575   -0.862163
     81          1           0        6.877561   -3.694553    1.357623
     82          1           0        6.277805   -3.945701   -0.336863
     83          1           0        8.052197   -4.106995    0.016790
     84          1           0        6.537233   -0.160054   -0.788913
     85          1           0       -4.319966    0.237177   -0.139106
     86          1           0        4.705574   -2.394574    0.682110
     87          1           0       -4.558464    3.239085   -0.949213
     88          1           0        4.436589    0.337560   -0.772542
     89          1           0       -1.061782    3.428498   -1.741643
     90          1           0       -1.542796    4.205715   -0.075130
     91          1           0       -2.723691    4.663803   -1.822698
     92          1           0       -2.294915    0.488286   -0.209951
     93          1           0        2.448688    0.988589   -0.667493
     94          1           0        2.312756   -2.489016    1.288996
     95          1           0        1.209124   -2.385163    0.187234
     96          1           0        2.521800   -3.252766   -0.501475
     97          1           0        0.191130    2.517056   -0.363452
     98          1           0       -0.400142   -0.519682   -0.356399
 ---------------------------------------------------------------------

 SCF Done:  E(RCAM-B3LYP) =  -1706.88530971     A.U. after   16 cycles

 Excitation energies and oscillator strengths:

 Excited State   1:      Singlet-A      1.7548 eV  706.54 nm  f=2.9934  <S**2>=0.000
     155 ->158         0.13145
     156 ->157         0.70303
     156 <-157        -0.12650
 This state for optimization and/or second-order correction.
 Total Energy, E(TD-HF/TD-DFT) =  -1706.82082202
 Copying the excited state density for this state as the 1-particle RhoCI density.

 The electronic state is 1-A.
 Alpha  occ. eigenvalues --  -19.23163 -19.20093 -10.30657 -10.30381 -10.29029
 Alpha  occ. eigenvalues --  -10.27912 -10.27853 -10.27664 -10.27500 -10.27488
 Alpha  occ. eigenvalues --  -10.27340 -10.27070 -10.26962 -10.26803 -10.26788
 Alpha  occ. eigenvalues --  -10.26746 -10.26682 -10.26654 -10.26359 -10.26357
 Alpha  occ. eigenvalues --  -10.26256 -10.26233 -10.26230 -10.26074 -10.25946
 Alpha  occ. eigenvalues --  -10.25876 -10.25797 -10.25747 -10.25725 -10.25639
 Alpha  occ. eigenvalues --  -10.25620 -10.25617 -10.25587 -10.25324 -10.25261
 Alpha  occ. eigenvalues --  -10.25210 -10.25193 -10.24958 -10.24888 -10.23553
 Alpha  occ. eigenvalues --  -10.22808 -10.22617  -1.07751  -1.04694  -0.94189
 Alpha  occ. eigenvalues --   -0.92616  -0.92231  -0.91690  -0.90508  -0.89450
 Alpha  occ. eigenvalues --   -0.89032  -0.87161  -0.86796  -0.85532  -0.84338
 Alpha  occ. eigenvalues --   -0.82368  -0.81465  -0.80387  -0.79864  -0.78066
 Alpha  occ. eigenvalues --   -0.76446  -0.76281  -0.76131  -0.75896  -0.75631
 Alpha  occ. eigenvalues --   -0.75380  -0.74936  -0.74420  -0.71864  -0.70281
 Alpha  occ. eigenvalues --   -0.68898  -0.66764  -0.66502  -0.65963  -0.63121
 Alpha  occ. eigenvalues --   -0.62823  -0.62024  -0.61231  -0.60170  -0.59721
 Alpha  occ. eigenvalues --   -0.58829  -0.58322  -0.58109  -0.57158  -0.56106
 Alpha  occ. eigenvalues --   -0.55553  -0.54849  -0.54484  -0.54116  -0.53954
 Alpha  occ. eigenvalues --   -0.52956  -0.52436  -0.51850  -0.51775  -0.51595
 Alpha  occ. eigenvalues --   -0.50805  -0.50298  -0.50156  -0.49350  -0.48955
 Alpha  occ. eigenvalues --   -0.48493  -0.48223  -0.47787  -0.47603  -0.47489
 Alpha  occ. eigenvalues --   -0.47405  -0.47245  -0.47136  -0.47006  -0.46442
 Alpha  occ. eigenvalues --   -0.46022  -0.45439  -0.45325  -0.44934  -0.44850
 Alpha  occ. eigenvalues --   -0.44551  -0.44248  -0.44047  -0.44017  -0.42642
 Alpha  occ. eigenvalues --   -0.42597  -0.41956  -0.41863  -0.41527  -0.41425
 Alpha  occ. eigenvalues --   -0.41389  -0.40935  -0.40900  -0.40709  -0.40363
 Alpha  occ. eigenvalues --   -0.39928  -0.39569  -0.39502  -0.39245  -0.39228
 Alpha  occ. eigenvalues --   -0.39183  -0.38667  -0.38323  -0.38245  -0.38063
 Alpha  occ. eigenvalues --   -0.37624  -0.36968  -0.36004  -0.35608  -0.35269
 Alpha  occ. eigenvalues --   -0.34584  -0.33928  -0.33364  -0.32169  -0.31712
 Alpha  occ. eigenvalues --   -0.31505  -0.29773  -0.28984  -0.26813  -0.23095
 Alpha  occ. eigenvalues --   -0.18202
 Alpha virt. eigenvalues --   -0.07150  -0.01403   0.02785   0.06040   0.06747
 Alpha virt. eigenvalues --    0.08453   0.09705   0.11173   0.11373   0.12057
 Alpha virt. eigenvalues --    0.12103   0.12596   0.12979   0.13399   0.13760

 Mulliken charges:
               1
     1  O   -0.532432
     2  O   -0.605101
     3  C    0.038405
     4  C   -0.149808
     5  C   -0.199502
     6  C    0.115922
     7  C    0.101624
     8  C   -0.005208
     9  C   -0.297958
    10  C   -0.282103
    11  C   -0.194803
    12  C   -0.129429
    13  C    0.178179
    14  C    0.052287
    15  C   -0.089191
    16  C   -0.166200
    17  C   -0.007494
    18  C   -0.320670
    19  C   -0.267283
    20  C   -0.347904
    21  C   -0.093137
    22  C   -0.092305
    23  C   -0.354772
    24  C    0.105108
    25  C   -0.071850
    26  C   -0.382255
    27  C    0.059630
    28  C   -0.114289
    29  C   -0.363278
    30  C   -0.134879
    31  C   -0.054502
    32  C   -0.092466
    33  C   -0.105411
    34  C    0.057196
    35  C   -0.145310
    36  C    0.144417
    37  C   -0.353371
    38  C   -0.119193
    39  C   -0.117063
    40  C   -0.374836
    41  C   -0.092567
    42  C   -0.098394
    43  H    0.084022
    44  H    0.111648
    45  H    0.077645
    46  H    0.096312
    47  H    0.107278
    48  H    0.084023
    49  H    0.089813
    50  H    0.133247
    51  H    0.096716
    52  H    0.071811
    53  H    0.101726
    54  H    0.051895
    55  H    0.075974
    56  H    0.099123
    57  H    0.079564
    58  H    0.113353
    59  H    0.126243
    60  H    0.096409
    61  H    0.100049
    62  H    0.106326
    63  H    0.092214
    64  H    0.102164
    65  H    0.085703
    66  H    0.132676
    67  H    0.104409
    68  H    0.103327
    69  H    0.298589
    70  H    0.091638
    71  H    0.083718
    72  H    0.094223
    73  H    0.126618
    74  H    0.121014
    75  H    0.299729
    76  H    0.064294
    77  H    0.112725
    78  H    0.119328
    79  H    0.112681
    80  H    0.076736
    81  H    0.123139
    82  H    0.118878
    83  H    0.108276
    84  H    0.079659
    85  H    0.096122
    86  H    0.084645
    87  H    0.081069
    88  H    0.079179
    89  H    0.120548
    90  H    0.128651
    91  H    0.086453
    92  H    0.071909
    93  H    0.087296
    94  H    0.115866
    95  H    0.118151
    96  H    0.095277
    97  H    0.093660
    98  H    0.088457
 Sum of Mulliken charges =  -0.00000

 Dipole moment (field-independent basis, Debye):
    X=             -1.5838    Y=             -1.5508    Z=             -0.1737  Tot=              2.2234
 Quadrupole moment (field-independent basis, Debye-Ang):
   XX=           -280.3227   YY=           -240.4289   ZZ=           -262.3251
   XY=             28.1748   XZ=             22.6863   YZ=             -1.1643

 Normal termination of Gaussian 16 at Fri Jul 12 19:02:28 2019.
