 Gaussian 16, Revision A.03,
 Gaussian 16:  ES64L-G16RevA.03 25-Dec-2016

 -------------------------------------
 # td=(NStates=1) CAM-B3LYP/6-31G(d,p)
 -------------------------------------

 --
 TD
 --
 Symbolic Z-matrix:
 Charge =  0 Multiplicity = 1

                         Standard orientation:
 ---------------------------------------------------------------------
 Center     Atomic      Atomic             Coordinates (Angstroms)
 Number     Number       Type             X           Y           Z
 ---------------------------------------------------------------------
      1          8           0      -14.209250   -2.008263    0.239257
      2          8           0       14.798767    0.904680   -0.064222
      3          6           0      -11.876506    0.041339    1.181562
      4          6           0      -11.046983    0.257678   -0.015874
      5          6           0      -12.109674   -1.525988    1.264954
      6          6           0      -12.802439   -2.095630   -0.004631
      7          6           0      -11.650375   -0.356341   -1.385174
      8          6           0       11.261034    0.881508    1.048460
      9          6           0      -11.159015    0.220252    2.530661
     10          6           0      -13.204724    0.790685    1.149630
     11          6           0       12.608194    1.395588    0.756006
     12          6           0      -12.472405   -1.361232   -1.219105
     13          6           0       13.627201    0.302606    0.302705
     14          6           0       10.697579   -0.035961   -0.035909
     15          6           0       -9.570377   -0.094060    0.188014
     16          6           0       13.068027   -0.224888   -1.036815
     17          6           0       11.531290   -0.500720   -0.998628
     18          6           0       10.251808    2.197046    1.136019
     19          6           0       11.184704    0.078515    2.305085
     20          6           0      -11.312551    0.352245   -2.667784
     21          6           0       -8.537362    0.676719   -0.142123
     22          6           0        9.261346   -0.387537   -0.037408
     23          6           0       11.219613   -1.362486   -2.199451
     24          6           0       -7.109607    0.433657   -0.070242
     25          6           0        8.863058   -1.574929   -0.107828
     26          6           0       -6.670282   -1.014148    0.435089
     27          6           0        7.425497   -2.088775   -0.007058
     28          6           0       -6.236805    1.479443   -0.348105
     29          6           0        7.141943   -3.556050    0.146637
     30          6           0        6.420347   -1.156619   -0.192128
     31          6           0       -4.844135    1.509007   -0.254838
     32          6           0        5.020939   -1.445723   -0.080382
     33          6           0       -3.991229    2.566287   -0.559676
     34          6           0       -2.611197    2.657047   -0.497988
     35          6           0        4.049452   -0.560564   -0.251567
     36          6           0        2.655314   -0.768525   -0.118215
     37          6           0       -1.913627    3.936646   -0.749150
     38          6           0       -1.805692    1.529507   -0.322723
     39          6           0        1.766658    0.331379   -0.256269
     40          6           0        2.196063   -2.061880    0.207131
     41          6           0       -0.432560    1.525098   -0.320092
     42          6           0        0.429140    0.392916   -0.179461
     43          1           0      -11.131095    1.374892   -0.180900
     44          1           0      -12.776898   -1.779205    2.076651
     45          1           0      -11.118213   -2.113418    1.682208
     46          1           0      -12.647276   -3.138202   -0.023879
     47          1           0      -10.238626   -0.362552    2.492466
     48          1           0      -10.627917    1.265115    2.482674
     49          1           0      -11.683056    0.331207    3.395477
     50          1           0      -13.771264    0.644533    0.282803
     51          1           0      -13.733879    0.648188    2.184577
     52          1           0      -12.821600    1.852721    1.133456
     53          1           0       12.616961    2.150397   -0.021689
     54          1           0       12.740164    1.984235    1.669164
     55          1           0      -12.897090   -1.493815   -2.133066
     56          1           0       13.641041   -0.432002    0.989557
     57          1           0       -9.269997   -1.154205    0.482643
     58          1           0       13.585698   -1.204310   -1.297618
     59          1           0       13.236282    0.516370   -1.783762
     60          1           0        8.957342    2.189902    1.347518
     61          1           0       10.377081    2.904872    0.287351
     62          1           0       10.667861    2.801153    1.965702
     63          1           0       11.915580   -0.775578    2.201462
     64          1           0       10.173158   -0.298365    2.559095
     65          1           0       11.316419    0.567889    3.301977
     66          1           0      -10.210210    0.542459   -2.671200
     67          1           0      -11.845164    1.300714   -2.750764
     68          1           0      -11.738765   -0.055830   -3.543734
     69          1           0      -14.696988   -2.250336   -0.693471
     70          1           0        8.641843    0.601480    0.183193
     71          1           0       -8.674217    1.860392   -0.358000
     72          1           0       11.654276   -2.344649   -2.120418
     73          1           0       10.213972   -1.317215   -2.461944
     74          1           0       11.630086   -0.711980   -2.986968
     75          1           0       15.291822    1.163731    0.828319
     76          1           0        9.668646   -2.446083   -0.236320
     77          1           0       -5.549222   -1.193476    0.733444
     78          1           0       -7.130720   -1.226882    1.460144
     79          1           0       -6.763042   -1.835436   -0.441254
     80          1           0       -6.714979    2.415703   -0.737089
     81          1           0        7.126718   -3.580542    1.281000
     82          1           0        6.027473   -3.933493   -0.339005
     83          1           0        8.010173   -4.154338    0.136107
     84          1           0        6.641988   -0.205098   -0.350130
     85          1           0       -4.264213    0.548337   -0.103747
     86          1           0        4.717302   -2.558667    0.161966
     87          1           0       -4.575797    3.445103   -0.720685
     88          1           0        4.208220    0.348918   -0.643321
     89          1           0       -1.146982    4.097249   -1.466690
     90          1           0       -1.350427    4.415329    0.206814
     91          1           0       -2.679698    4.869613   -0.904952
     92          1           0       -2.115861    0.456130   -0.204911
     93          1           0        2.345649    1.297082   -0.200362
     94          1           0        2.495816   -2.567619    1.145152
     95          1           0        1.140756   -2.071258    0.282428
     96          1           0        2.302748   -2.676335   -0.621171
     97          1           0        0.134226    2.403368   -0.166235
     98          1           0        0.047799   -0.586232    0.249682
 ---------------------------------------------------------------------

 SCF Done:  E(RCAM-B3LYP) =  -1706.95937117     A.U. after   15 cycles

 Excitation energies and oscillator strengths:

 Excited State   1:      Singlet-A      1.9713 eV  628.96 nm  f=2.8628  <S**2>=0.000
     155 ->158         0.11661
     156 ->157         0.70480
     156 <-157        -0.12281
 This state for optimization and/or second-order correction.
 Total Energy, E(TD-HF/TD-DFT) =  -1706.88692848
 Copying the excited state density for this state as the 1-particle RhoCI density.

 The electronic state is 1-A.
 Alpha  occ. eigenvalues --  -19.22556 -19.21017 -10.29878 -10.29597 -10.28097
 Alpha  occ. eigenvalues --  -10.28046 -10.28002 -10.27914 -10.27613 -10.27359
 Alpha  occ. eigenvalues --  -10.27265 -10.26908 -10.26840 -10.26821 -10.26593
 Alpha  occ. eigenvalues --  -10.26478 -10.26454 -10.26409 -10.26407 -10.26369
 Alpha  occ. eigenvalues --  -10.26116 -10.25999 -10.25944 -10.25941 -10.25913
 Alpha  occ. eigenvalues --  -10.25699 -10.25619 -10.25600 -10.25534 -10.25422
 Alpha  occ. eigenvalues --  -10.25207 -10.25168 -10.25100 -10.24980 -10.24408
 Alpha  occ. eigenvalues --  -10.24268 -10.24089 -10.23908 -10.23901 -10.23780
 Alpha  occ. eigenvalues --  -10.23475 -10.23417  -1.10689  -1.07228  -0.93710
 Alpha  occ. eigenvalues --   -0.93099  -0.92800  -0.91626  -0.90369  -0.89428
 Alpha  occ. eigenvalues --   -0.87441  -0.87210  -0.86635  -0.85538  -0.84409
 Alpha  occ. eigenvalues --   -0.82873  -0.81548  -0.80511  -0.80100  -0.78856
 Alpha  occ. eigenvalues --   -0.77244  -0.76527  -0.76370  -0.75847  -0.75417
 Alpha  occ. eigenvalues --   -0.75230  -0.74639  -0.74257  -0.72677  -0.70459
 Alpha  occ. eigenvalues --   -0.68536  -0.67622  -0.66914  -0.64875  -0.63611
 Alpha  occ. eigenvalues --   -0.62808  -0.62390  -0.61411  -0.60991  -0.60378
 Alpha  occ. eigenvalues --   -0.59836  -0.58394  -0.57850  -0.56769  -0.56080
 Alpha  occ. eigenvalues --   -0.55649  -0.55054  -0.54969  -0.54331  -0.53887
 Alpha  occ. eigenvalues --   -0.53748  -0.52784  -0.52592  -0.51792  -0.51048
 Alpha  occ. eigenvalues --   -0.50828  -0.50585  -0.50445  -0.50203  -0.49546
 Alpha  occ. eigenvalues --   -0.48769  -0.48500  -0.48226  -0.47887  -0.47659
 Alpha  occ. eigenvalues --   -0.47444  -0.47222  -0.47093  -0.46615  -0.46008
 Alpha  occ. eigenvalues --   -0.45778  -0.45607  -0.45116  -0.44944  -0.44334
 Alpha  occ. eigenvalues --   -0.44196  -0.44105  -0.43826  -0.43295  -0.42753
 Alpha  occ. eigenvalues --   -0.42692  -0.42023  -0.41922  -0.41717  -0.41529
 Alpha  occ. eigenvalues --   -0.41072  -0.40983  -0.40810  -0.40536  -0.40440
 Alpha  occ. eigenvalues --   -0.40155  -0.39975  -0.39648  -0.39482  -0.39193
 Alpha  occ. eigenvalues --   -0.38646  -0.38345  -0.38281  -0.38012  -0.37813
 Alpha  occ. eigenvalues --   -0.37573  -0.37355  -0.36265  -0.36010  -0.35865
 Alpha  occ. eigenvalues --   -0.34452  -0.34250  -0.33727  -0.32093  -0.31664
 Alpha  occ. eigenvalues --   -0.31066  -0.29809  -0.28719  -0.26869  -0.24251
 Alpha  occ. eigenvalues --   -0.18531
 Alpha virt. eigenvalues --   -0.06459   0.00029   0.03479   0.06742   0.07630
 Alpha virt. eigenvalues --    0.09223   0.10796   0.11227   0.11305   0.11933
 Alpha virt. eigenvalues --    0.12525   0.12858   0.13166   0.13501   0.13771

 Mulliken charges:
               1
     1  O   -0.562160
     2  O   -0.546352
     3  C    0.015581
     4  C   -0.121149
     5  C   -0.186943
     6  C    0.156993
     7  C    0.096768
     8  C   -0.012967
     9  C   -0.298447
    10  C   -0.279201
    11  C   -0.194742
    12  C   -0.100319
    13  C    0.174442
    14  C    0.054158
    15  C   -0.111114
    16  C   -0.217337
    17  C    0.001137
    18  C   -0.326806
    19  C   -0.298670
    20  C   -0.368187
    21  C   -0.085947
    22  C   -0.080741
    23  C   -0.348260
    24  C    0.116462
    25  C   -0.101580
    26  C   -0.371848
    27  C    0.074800
    28  C   -0.138457
    29  C   -0.367867
    30  C   -0.088175
    31  C   -0.059652
    32  C   -0.087738
    33  C   -0.125944
    34  C    0.130451
    35  C   -0.091170
    36  C    0.113711
    37  C   -0.387511
    38  C   -0.109070
    39  C   -0.123464
    40  C   -0.394550
    41  C   -0.089886
    42  C   -0.106326
    43  H    0.082224
    44  H    0.114802
    45  H    0.066604
    46  H    0.091492
    47  H    0.107237
    48  H    0.067346
    49  H    0.114968
    50  H    0.121215
    51  H    0.092861
    52  H    0.080179
    53  H    0.104500
    54  H    0.080659
    55  H    0.051621
    56  H    0.084928
    57  H    0.093784
    58  H    0.097588
    59  H    0.129689
    60  H    0.071729
    61  H    0.111900
    62  H    0.098206
    63  H    0.095846
    64  H    0.113916
    65  H    0.090466
    66  H    0.131456
    67  H    0.119573
    68  H    0.114087
    69  H    0.299365
    70  H    0.090844
    71  H    0.062042
    72  H    0.118185
    73  H    0.119460
    74  H    0.107634
    75  H    0.305279
    76  H    0.079024
    77  H    0.100839
    78  H    0.120829
    79  H    0.112921
    80  H    0.082052
    81  H    0.126092
    82  H    0.114925
    83  H    0.121113
    84  H    0.069748
    85  H    0.075169
    86  H    0.070132
    87  H    0.071662
    88  H    0.068697
    89  H    0.139978
    90  H    0.097920
    91  H    0.087125
    92  H    0.084232
    93  H    0.070948
    94  H    0.126310
    95  H    0.102337
    96  H    0.131840
    97  H    0.083621
    98  H    0.078876
 Sum of Mulliken charges =  -0.00000

 Dipole moment (field-independent basis, Debye):
    X=              3.1220    Y=             -1.2047    Z=              0.4381  Tot=              3.3749
 Quadrupole moment (field-independent basis, Debye-Ang):
   XX=           -247.9362   YY=           -245.0624   ZZ=           -259.3078
   XY=             -2.0609   XZ=             46.5846   YZ=              0.0507

 Normal termination of Gaussian 16 at Sat Jul 13 09:13:00 2019.
