 Gaussian 16, Revision A.03,
 Gaussian 16:  ES64L-G16RevA.03 25-Dec-2016

 -------------------------------------
 # td=(NStates=1) CAM-B3LYP/6-31G(d,p)
 -------------------------------------

 --
 TD
 --
 Symbolic Z-matrix:
 Charge =  0 Multiplicity = 1

                         Standard orientation:
 ---------------------------------------------------------------------
 Center     Atomic      Atomic             Coordinates (Angstroms)
 Number     Number       Type             X           Y           Z
 ---------------------------------------------------------------------
      1          8           0      -14.223156   -1.847319    0.419668
      2          8           0       14.877020    0.919143    0.423163
      3          6           0      -11.831486   -0.008060    1.380537
      4          6           0      -11.025426    0.359365   -0.005639
      5          6           0      -12.131937   -1.558994    1.402594
      6          6           0      -12.800583   -2.046363    0.206901
      7          6           0      -11.727749   -0.298494   -1.150167
      8          6           0       11.134238    0.966699    1.112026
      9          6           0      -11.025993    0.461791    2.578313
     10          6           0      -13.175039    0.759828    1.315927
     11          6           0       12.473962    1.583650    0.781315
     12          6           0      -12.444409   -1.364097   -1.164271
     13          6           0       13.560943    0.569455    0.512868
     14          6           0       10.720720   -0.081297    0.053606
     15          6           0       -9.618627   -0.119287    0.057476
     16          6           0       13.112608   -0.048118   -0.836858
     17          6           0       11.684148   -0.491932   -0.947559
     18          6           0       10.149150    2.225854    1.087496
     19          6           0       10.997202    0.249131    2.442363
     20          6           0      -11.459995    0.341406   -2.586463
     21          6           0       -8.604060    0.780567   -0.170307
     22          6           0        9.323959   -0.391887    0.014658
     23          6           0       11.315131   -1.330789   -2.225096
     24          6           0       -7.144530    0.502712   -0.143424
     25          6           0        8.890829   -1.719595   -0.190003
     26          6           0       -6.578542   -0.891138    0.210379
     27          6           0        7.469539   -2.217880   -0.252124
     28          6           0       -6.223972    1.469839   -0.447247
     29          6           0        7.152301   -3.667877   -0.091293
     30          6           0        6.445983   -1.289160   -0.381509
     31          6           0       -4.823177    1.375328   -0.382878
     32          6           0        5.021126   -1.520641   -0.149841
     33          6           0       -3.993339    2.497177   -0.628039
     34          6           0       -2.643045    2.538850   -0.630571
     35          6           0        4.055732   -0.604616   -0.214706
     36          6           0        2.723880   -0.757980    0.039334
     37          6           0       -2.003712    3.897850   -1.055879
     38          6           0       -1.791596    1.437504   -0.473873
     39          6           0        1.747830    0.276763   -0.370355
     40          6           0        2.200873   -2.179569    0.387823
     41          6           0       -0.355825    1.432502   -0.497350
     42          6           0        0.393016    0.222845   -0.381228
     43          1           0      -10.984949    1.405729   -0.116083
     44          1           0      -12.610293   -1.664235    2.423647
     45          1           0      -11.170022   -1.968067    1.640851
     46          1           0      -12.476027   -3.213742   -0.007137
     47          1           0      -10.062585   -0.100722    2.622975
     48          1           0      -10.796536    1.554071    2.349970
     49          1           0      -11.389225    0.309117    3.641859
     50          1           0      -13.792634    0.484409    0.412565
     51          1           0      -13.603886    0.208480    2.209664
     52          1           0      -12.780251    1.797522    1.426906
     53          1           0       12.693577    2.445124   -0.025980
     54          1           0       12.743074    2.230807    1.623886
     55          1           0      -12.563447   -1.835396   -2.224823
     56          1           0       13.499430   -0.314534    1.181899
     57          1           0       -9.407134   -1.133910    0.482511
     58          1           0       13.881431   -0.859162   -1.125951
     59          1           0       13.304063    0.587890   -1.708491
     60          1           0        9.244230    2.031722    1.447320
     61          1           0       10.125986    2.669795    0.174158
     62          1           0       10.682394    2.830029    1.621818
     63          1           0       11.908229   -0.563042    2.552016
     64          1           0       10.034711   -0.293752    2.442369
     65          1           0       11.193919    0.791023    3.492435
     66          1           0      -10.357857    0.559944   -2.868437
     67          1           0      -11.998350    1.315633   -2.668460
     68          1           0      -11.905627   -0.298630   -3.244491
     69          1           0      -14.820220   -2.055898   -0.304731
     70          1           0        8.592775    0.380237    0.068496
     71          1           0       -8.647358    1.662860   -0.634509
     72          1           0       11.777503   -2.417112   -2.140889
     73          1           0       10.194873   -1.350229   -2.406078
     74          1           0       11.789059   -0.774610   -3.043630
     75          1           0       15.409106    1.327212    1.087136
     76          1           0        9.652185   -2.466951   -0.692881
     77          1           0       -5.621347   -0.845825    0.469424
     78          1           0       -7.016987   -1.034150    1.194416
     79          1           0       -7.018624   -1.678035   -0.542785
     80          1           0       -6.467860    2.541620   -0.763292
     81          1           0        6.486425   -3.738521    0.749301
     82          1           0        6.610624   -4.242418   -1.169787
     83          1           0        8.017063   -4.377992    0.211885
     84          1           0        6.771232   -0.257087   -0.655461
     85          1           0       -4.367147    0.279418   -0.213191
     86          1           0        4.788012   -2.510438    0.057636
     87          1           0       -4.485333    3.434484   -0.953667
     88          1           0        4.297195    0.248704   -0.476733
     89          1           0       -1.625712    3.812937   -2.139410
     90          1           0       -1.200326    4.209370   -0.314815
     91          1           0       -2.843642    4.597817   -0.869366
     92          1           0       -1.968986    0.395055   -0.401298
     93          1           0        2.039803    1.200115   -0.685157
     94          1           0        2.558423   -2.508399    1.305074
     95          1           0        1.150468   -2.303365    0.775078
     96          1           0        2.313611   -2.899506   -0.413922
     97          1           0        0.122560    2.384982   -0.664224
     98          1           0       -0.151259   -0.733021   -0.173885
 ---------------------------------------------------------------------

 SCF Done:  E(RCAM-B3LYP) =  -1706.94206613     A.U. after   16 cycles

 Excitation energies and oscillator strengths:

 Excited State   1:      Singlet-A      1.8549 eV  668.43 nm  f=3.0761  <S**2>=0.000
     155 ->158        -0.13078
     156 ->157         0.70110
     156 <-157        -0.12099
 This state for optimization and/or second-order correction.
 Total Energy, E(TD-HF/TD-DFT) =  -1706.87390140
 Copying the excited state density for this state as the 1-particle RhoCI density.

 The electronic state is 1-A.
 Alpha  occ. eigenvalues --  -19.21011 -19.20721 -10.32964 -10.30375 -10.27695
 Alpha  occ. eigenvalues --  -10.27628 -10.27617 -10.27615 -10.27595 -10.27587
 Alpha  occ. eigenvalues --  -10.27289 -10.27232 -10.27106 -10.27096 -10.26977
 Alpha  occ. eigenvalues --  -10.26867 -10.26711 -10.26473 -10.26455 -10.26311
 Alpha  occ. eigenvalues --  -10.26301 -10.26248 -10.26236 -10.26193 -10.25976
 Alpha  occ. eigenvalues --  -10.25931 -10.25833 -10.25825 -10.25691 -10.25591
 Alpha  occ. eigenvalues --  -10.25464 -10.25427 -10.25368 -10.25313 -10.25256
 Alpha  occ. eigenvalues --  -10.25253 -10.25068 -10.24942 -10.24875 -10.23741
 Alpha  occ. eigenvalues --  -10.23255 -10.21430  -1.10491  -1.08426  -0.93512
 Alpha  occ. eigenvalues --   -0.92890  -0.91970  -0.91454  -0.90128  -0.88982
 Alpha  occ. eigenvalues --   -0.87367  -0.86953  -0.85944  -0.85542  -0.84575
 Alpha  occ. eigenvalues --   -0.82795  -0.81520  -0.80527  -0.79587  -0.78630
 Alpha  occ. eigenvalues --   -0.77098  -0.76971  -0.75942  -0.75651  -0.75076
 Alpha  occ. eigenvalues --   -0.74848  -0.74758  -0.73982  -0.71813  -0.70341
 Alpha  occ. eigenvalues --   -0.69200  -0.68170  -0.67013  -0.64925  -0.63666
 Alpha  occ. eigenvalues --   -0.62862  -0.62620  -0.62177  -0.61220  -0.59637
 Alpha  occ. eigenvalues --   -0.59273  -0.58921  -0.58310  -0.57722  -0.56968
 Alpha  occ. eigenvalues --   -0.56188  -0.55419  -0.54841  -0.53720  -0.53373
 Alpha  occ. eigenvalues --   -0.52982  -0.52538  -0.52371  -0.52085  -0.50607
 Alpha  occ. eigenvalues --   -0.50062  -0.49612  -0.49589  -0.49553  -0.49048
 Alpha  occ. eigenvalues --   -0.48768  -0.48321  -0.48158  -0.47682  -0.47655
 Alpha  occ. eigenvalues --   -0.47386  -0.46816  -0.46675  -0.46226  -0.45809
 Alpha  occ. eigenvalues --   -0.45711  -0.45643  -0.45519  -0.45138  -0.44366
 Alpha  occ. eigenvalues --   -0.44179  -0.44157  -0.43976  -0.43837  -0.43252
 Alpha  occ. eigenvalues --   -0.42965  -0.42898  -0.42806  -0.41879  -0.41707
 Alpha  occ. eigenvalues --   -0.41441  -0.41365  -0.41034  -0.40890  -0.40656
 Alpha  occ. eigenvalues --   -0.40454  -0.40318  -0.40136  -0.39979  -0.39578
 Alpha  occ. eigenvalues --   -0.39050  -0.38754  -0.38631  -0.38273  -0.37239
 Alpha  occ. eigenvalues --   -0.36844  -0.36802  -0.36286  -0.36128  -0.35251
 Alpha  occ. eigenvalues --   -0.34329  -0.33812  -0.32811  -0.31673  -0.31424
 Alpha  occ. eigenvalues --   -0.30810  -0.30294  -0.28708  -0.25816  -0.23265
 Alpha  occ. eigenvalues --   -0.18270
 Alpha virt. eigenvalues --   -0.06773  -0.00984   0.02303   0.05616   0.07490
 Alpha virt. eigenvalues --    0.08652   0.10501   0.11556   0.12392   0.12541
 Alpha virt. eigenvalues --    0.13237   0.13426   0.14185   0.14270   0.14404

 Mulliken charges:
               1
     1  O   -0.556319
     2  O   -0.574861
     3  C   -0.027160
     4  C   -0.129546
     5  C   -0.177759
     6  C    0.160846
     7  C    0.145463
     8  C   -0.017329
     9  C   -0.301234
    10  C   -0.257334
    11  C   -0.206062
    12  C   -0.170401
    13  C    0.209097
    14  C    0.042560
    15  C   -0.078009
    16  C   -0.232657
    17  C    0.062223
    18  C   -0.290361
    19  C   -0.290998
    20  C   -0.356223
    21  C   -0.066295
    22  C   -0.121230
    23  C   -0.355122
    24  C    0.047966
    25  C   -0.128079
    26  C   -0.349777
    27  C    0.077928
    28  C   -0.115901
    29  C   -0.356327
    30  C   -0.109050
    31  C   -0.065920
    32  C   -0.091516
    33  C   -0.133545
    34  C    0.073674
    35  C   -0.029997
    36  C    0.061063
    37  C   -0.366086
    38  C   -0.093075
    39  C   -0.107263
    40  C   -0.384714
    41  C   -0.100464
    42  C   -0.084957
    43  H    0.093032
    44  H    0.114735
    45  H    0.095687
    46  H    0.054483
    47  H    0.096236
    48  H    0.098134
    49  H    0.098769
    50  H    0.116107
    51  H    0.096314
    52  H    0.080656
    53  H    0.086089
    54  H    0.078527
    55  H    0.089188
    56  H    0.073834
    57  H    0.095510
    58  H    0.094590
    59  H    0.109519
    60  H    0.103073
    61  H    0.109288
    62  H    0.106557
    63  H    0.080398
    64  H    0.124176
    65  H    0.080436
    66  H    0.105286
    67  H    0.108579
    68  H    0.107509
    69  H    0.307896
    70  H    0.102120
    71  H    0.078014
    72  H    0.105774
    73  H    0.123478
    74  H    0.110833
    75  H    0.309738
    76  H    0.089387
    77  H    0.113593
    78  H    0.115648
    79  H    0.117279
    80  H    0.073245
    81  H    0.135363
    82  H    0.076809
    83  H    0.105938
    84  H    0.075217
    85  H    0.089592
    86  H    0.076334
    87  H    0.080666
    88  H    0.044508
    89  H    0.129835
    90  H    0.117100
    91  H    0.106781
    92  H    0.072068
    93  H    0.075827
    94  H    0.124834
    95  H    0.093894
    96  H    0.129400
    97  H    0.080523
    98  H    0.086342
 Sum of Mulliken charges =  -0.00000

 Dipole moment (field-independent basis, Debye):
    X=             -0.3591    Y=              0.1024    Z=             -0.3075  Tot=              0.4837
 Quadrupole moment (field-independent basis, Debye-Ang):
   XX=           -257.2071   YY=           -245.4479   ZZ=           -259.6041
   XY=             18.6167   XZ=             31.6811   YZ=             -0.0908

 Normal termination of Gaussian 16 at Fri Jul 12 23:59:38 2019.
