 Gaussian 16, Revision A.03,
 Gaussian 16:  ES64L-G16RevA.03 25-Dec-2016

 -------------------------------------
 # td=(NStates=1) CAM-B3LYP/6-31G(d,p)
 -------------------------------------

 --
 TD
 --
 Symbolic Z-matrix:
 Charge =  0 Multiplicity = 1

                         Standard orientation:
 ---------------------------------------------------------------------
 Center     Atomic      Atomic             Coordinates (Angstroms)
 Number     Number       Type             X           Y           Z
 ---------------------------------------------------------------------
      1          8           0      -14.116292   -2.108396    0.275328
      2          8           0       14.791559    0.862523   -0.074753
      3          6           0      -11.792435   -0.022101    1.264365
      4          6           0      -11.006731    0.285319   -0.100484
      5          6           0      -11.952149   -1.556343    1.358102
      6          6           0      -12.674709   -2.195305    0.072731
      7          6           0      -11.495166   -0.432100   -1.341893
      8          6           0       11.216412    0.928071    1.010290
      9          6           0      -11.108644    0.659617    2.484865
     10          6           0      -13.297747    0.621328    1.089778
     11          6           0       12.634476    1.570328    0.714441
     12          6           0      -12.172710   -1.605110   -1.201021
     13          6           0       13.470167    0.374617    0.216122
     14          6           0       10.712652   -0.012799   -0.089349
     15          6           0       -9.561179    0.025626    0.027862
     16          6           0       12.966575   -0.207298   -1.107791
     17          6           0       11.491700   -0.528912   -1.046108
     18          6           0       10.202868    2.150787    1.080446
     19          6           0       11.248119    0.241672    2.343051
     20          6           0      -11.228864    0.188762   -2.658193
     21          6           0       -8.602633    0.846663   -0.201235
     22          6           0        9.232941   -0.530451    0.019172
     23          6           0       10.998565   -1.355850   -2.230904
     24          6           0       -7.093452    0.545413   -0.056307
     25          6           0        8.890474   -1.775450   -0.106773
     26          6           0       -6.603217   -0.835601    0.263650
     27          6           0        7.495277   -2.168793   -0.003107
     28          6           0       -6.234858    1.611255   -0.267436
     29          6           0        7.093476   -3.738508    0.149072
     30          6           0        6.472673   -1.235143   -0.136459
     31          6           0       -4.847277    1.495796   -0.241112
     32          6           0        5.022235   -1.456175   -0.025347
     33          6           0       -4.063495    2.592957   -0.601948
     34          6           0       -2.636763    2.650826   -0.523596
     35          6           0        4.063637   -0.459836   -0.116168
     36          6           0        2.650637   -0.611184    0.121353
     37          6           0       -2.043714    3.938147   -1.000142
     38          6           0       -1.855481    1.494484   -0.256973
     39          6           0        1.798553    0.369736   -0.153065
     40          6           0        2.161720   -2.034176    0.381914
     41          6           0       -0.472628    1.430976   -0.197188
     42          6           0        0.352305    0.370930   -0.055179
     43          1           0      -11.179672    1.368078   -0.505123
     44          1           0      -12.648878   -1.896086    2.294856
     45          1           0      -11.030759   -2.016010    1.410611
     46          1           0      -12.476824   -3.235599    0.274659
     47          1           0      -10.098015    0.236404    2.630414
     48          1           0      -11.115656    1.719421    2.433077
     49          1           0      -11.785225    0.354473    3.284423
     50          1           0      -13.903185    0.451203    0.142632
     51          1           0      -14.134484    0.335418    1.949808
     52          1           0      -13.197456    1.733625    1.357153
     53          1           0       12.568741    2.359759   -0.272081
     54          1           0       13.084408    2.032537    1.441292
     55          1           0      -12.556220   -2.300549   -2.206274
     56          1           0       13.476750   -0.265459    0.894291
     57          1           0       -9.388689   -0.883653    0.532933
     58          1           0       13.550724   -1.191963   -1.470357
     59          1           0       13.006383    0.458199   -1.801273
     60          1           0        9.134010    1.924720    1.689423
     61          1           0        9.837498    2.619660    0.212178
     62          1           0       10.840335    2.790309    1.762712
     63          1           0       11.915785   -0.588020    2.455853
     64          1           0       10.252618   -0.268751    2.636944
     65          1           0       11.743650    0.955394    3.124228
     66          1           0      -10.203060    0.426865   -2.630449
     67          1           0      -11.601797    1.181465   -2.839112
     68          1           0      -11.391320   -0.193262   -3.715163
     69          1           0      -14.506431   -2.570428   -0.460704
     70          1           0        8.587894    0.205185    0.376814
     71          1           0       -9.083909    1.838756   -0.505601
     72          1           0       11.376230   -2.321923   -1.969610
     73          1           0        9.996302   -1.547479   -2.249345
     74          1           0       11.468532   -1.042556   -3.066078
     75          1           0       15.123395    1.151450    0.630787
     76          1           0        9.763967   -2.277349   -0.149630
     77          1           0       -5.439400   -0.980969    0.001911
     78          1           0       -6.636638   -1.155070    1.389569
     79          1           0       -7.105179   -1.315642   -0.620189
     80          1           0       -6.695091    2.546187   -0.369101
     81          1           0        6.630998   -3.891415    1.237720
     82          1           0        6.413870   -4.099037   -0.421937
     83          1           0        8.003178   -4.264813   -0.090136
     84          1           0        6.707415   -0.113655   -0.351536
     85          1           0       -4.538691    0.562190   -0.136586
     86          1           0        4.661960   -2.440819    0.498167
     87          1           0       -4.655541    3.478292   -0.790392
     88          1           0        4.561561    0.703029   -0.448914
     89          1           0       -1.419092    3.732079   -1.923069
     90          1           0       -1.210344    4.470621   -0.435043
     91          1           0       -2.674499    4.658914   -1.185953
     92          1           0       -2.498405    0.617456    0.156444
     93          1           0        2.323945    1.417243   -0.212105
     94          1           0        2.456863   -2.146645    1.384480
     95          1           0        1.035476   -2.258560    0.174043
     96          1           0        2.739273   -2.669985   -0.230708
     97          1           0       -0.041834    2.376925   -0.355389
     98          1           0       -0.037242   -0.596219    0.153210
 ---------------------------------------------------------------------

 SCF Done:  E(RCAM-B3LYP) =  -1706.89414666     A.U. after   14 cycles

 Excitation energies and oscillator strengths:

 Excited State   1:      Singlet-A      2.3811 eV  520.70 nm  f=2.7727  <S**2>=0.000
     155 ->158        -0.15339
     156 ->157         0.68942
 This state for optimization and/or second-order correction.
 Total Energy, E(TD-HF/TD-DFT) =  -1706.80664226
 Copying the excited state density for this state as the 1-particle RhoCI density.

 The electronic state is 1-A.
 Alpha  occ. eigenvalues --  -19.20533 -19.19133 -10.30676 -10.28906 -10.28486
 Alpha  occ. eigenvalues --  -10.28389 -10.28383 -10.28289 -10.28228 -10.28192
 Alpha  occ. eigenvalues --  -10.27987 -10.27983 -10.27372 -10.27304 -10.26931
 Alpha  occ. eigenvalues --  -10.26887 -10.26802 -10.26483 -10.26470 -10.26465
 Alpha  occ. eigenvalues --  -10.26230 -10.26010 -10.25944 -10.25898 -10.25832
 Alpha  occ. eigenvalues --  -10.25763 -10.25757 -10.25628 -10.25505 -10.25479
 Alpha  occ. eigenvalues --  -10.25343 -10.25335 -10.25245 -10.25180 -10.25173
 Alpha  occ. eigenvalues --  -10.25035 -10.24841 -10.24772 -10.24683 -10.24477
 Alpha  occ. eigenvalues --  -10.24455 -10.22890  -1.11655  -1.08284  -0.93582
 Alpha  occ. eigenvalues --   -0.93521  -0.92079  -0.91447  -0.90209  -0.89793
 Alpha  occ. eigenvalues --   -0.87331  -0.87119  -0.86269  -0.85817  -0.84807
 Alpha  occ. eigenvalues --   -0.82811  -0.82246  -0.80968  -0.80423  -0.78474
 Alpha  occ. eigenvalues --   -0.77274  -0.76582  -0.76469  -0.75958  -0.75707
 Alpha  occ. eigenvalues --   -0.75210  -0.74992  -0.73682  -0.73138  -0.70466
 Alpha  occ. eigenvalues --   -0.69575  -0.67899  -0.67325  -0.65746  -0.64146
 Alpha  occ. eigenvalues --   -0.63495  -0.62921  -0.62558  -0.60655  -0.60597
 Alpha  occ. eigenvalues --   -0.60028  -0.58665  -0.57854  -0.57435  -0.55781
 Alpha  occ. eigenvalues --   -0.55505  -0.55297  -0.54545  -0.54326  -0.53341
 Alpha  occ. eigenvalues --   -0.52845  -0.52534  -0.52186  -0.51492  -0.50903
 Alpha  occ. eigenvalues --   -0.50568  -0.50509  -0.50056  -0.49969  -0.49911
 Alpha  occ. eigenvalues --   -0.49790  -0.49164  -0.48577  -0.48116  -0.48021
 Alpha  occ. eigenvalues --   -0.47888  -0.47279  -0.46838  -0.46615  -0.46233
 Alpha  occ. eigenvalues --   -0.45683  -0.45604  -0.45380  -0.45103  -0.44819
 Alpha  occ. eigenvalues --   -0.44285  -0.44006  -0.43983  -0.43813  -0.43568
 Alpha  occ. eigenvalues --   -0.43393  -0.43147  -0.42520  -0.42408  -0.42150
 Alpha  occ. eigenvalues --   -0.41586  -0.40852  -0.40819  -0.40702  -0.40597
 Alpha  occ. eigenvalues --   -0.40318  -0.39972  -0.39715  -0.39562  -0.39227
 Alpha  occ. eigenvalues --   -0.39046  -0.38545  -0.38337  -0.38258  -0.38004
 Alpha  occ. eigenvalues --   -0.37486  -0.36925  -0.36714  -0.36143  -0.36094
 Alpha  occ. eigenvalues --   -0.35142  -0.34813  -0.33767  -0.32348  -0.32007
 Alpha  occ. eigenvalues --   -0.31722  -0.29323  -0.29023  -0.27407  -0.23957
 Alpha  occ. eigenvalues --   -0.20105
 Alpha virt. eigenvalues --   -0.05191  -0.00656   0.03572   0.05526   0.07528
 Alpha virt. eigenvalues --    0.09956   0.11310   0.11803   0.12171   0.12527
 Alpha virt. eigenvalues --    0.12682   0.13155   0.13788   0.13943   0.14797

 Mulliken charges:
               1
     1  O   -0.544433
     2  O   -0.536788
     3  C    0.029698
     4  C   -0.171365
     5  C   -0.187601
     6  C    0.130459
     7  C    0.141697
     8  C   -0.022114
     9  C   -0.305193
    10  C   -0.297730
    11  C   -0.180498
    12  C   -0.130910
    13  C    0.167298
    14  C    0.031782
    15  C   -0.050621
    16  C   -0.190627
    17  C   -0.004124
    18  C   -0.287103
    19  C   -0.299078
    20  C   -0.380429
    21  C   -0.089819
    22  C   -0.087053
    23  C   -0.345380
    24  C    0.047423
    25  C   -0.088725
    26  C   -0.368632
    27  C    0.042135
    28  C   -0.092987
    29  C   -0.350382
    30  C   -0.115874
    31  C   -0.022505
    32  C   -0.100837
    33  C   -0.139623
    34  C    0.104503
    35  C   -0.098134
    36  C    0.094917
    37  C   -0.382396
    38  C   -0.120352
    39  C   -0.122205
    40  C   -0.371376
    41  C   -0.067529
    42  C   -0.082808
    43  H    0.079061
    44  H    0.094544
    45  H    0.100876
    46  H    0.087988
    47  H    0.102040
    48  H    0.113588
    49  H    0.110167
    50  H    0.123236
    51  H    0.076387
    52  H    0.075031
    53  H    0.077215
    54  H    0.090270
    55  H    0.044483
    56  H    0.086858
    57  H    0.084137
    58  H    0.088587
    59  H    0.131746
    60  H    0.065942
    61  H    0.120797
    62  H    0.092278
    63  H    0.109310
    64  H    0.110057
    65  H    0.081559
    66  H    0.123633
    67  H    0.120776
    68  H    0.118452
    69  H    0.299034
    70  H    0.078130
    71  H    0.077723
    72  H    0.112635
    73  H    0.129160
    74  H    0.114198
    75  H    0.270540
    76  H    0.088304
    77  H    0.098616
    78  H    0.130001
    79  H    0.136529
    80  H    0.076628
    81  H    0.101607
    82  H    0.135972
    83  H    0.109665
    84  H    0.080248
    85  H    0.062166
    86  H    0.079361
    87  H    0.084859
    88  H    0.061837
    89  H    0.125134
    90  H    0.110637
    91  H    0.118211
    92  H    0.071850
    93  H    0.067049
    94  H    0.134930
    95  H    0.105845
    96  H    0.130145
    97  H    0.075868
    98  H    0.069420
 Sum of Mulliken charges =  -0.00000

 Dipole moment (field-independent basis, Debye):
    X=              0.1480    Y=             -0.6262    Z=              0.3256  Tot=              0.7212
 Quadrupole moment (field-independent basis, Debye-Ang):
   XX=           -279.3053   YY=           -242.8309   ZZ=           -259.8848
   XY=             -0.0918   XZ=             37.4000   YZ=             -0.6422

 Normal termination of Gaussian 16 at Sat Jul 13 05:23:02 2019.
