 Gaussian 16, Revision A.03,
 Gaussian 16:  ES64L-G16RevA.03 25-Dec-2016

 -------------------------------------
 # td=(NStates=1) CAM-B3LYP/6-31G(d,p)
 -------------------------------------

 --
 TD
 --
 Symbolic Z-matrix:
 Charge =  0 Multiplicity = 1

                         Standard orientation:
 ---------------------------------------------------------------------
 Center     Atomic      Atomic             Coordinates (Angstroms)
 Number     Number       Type             X           Y           Z
 ---------------------------------------------------------------------
      1          8           0      -14.109430   -1.865832    0.961672
      2          8           0       14.736337    1.102620    0.155566
      3          6           0      -11.590133    0.282860    1.180648
      4          6           0      -10.973856    0.354252   -0.111265
      5          6           0      -11.872898   -1.248062    1.588716
      6          6           0      -12.765173   -2.033300    0.596450
      7          6           0      -11.672114   -0.542034   -1.054549
      8          6           0       11.032946    1.064860    1.163144
      9          6           0      -10.859523    0.840197    2.399567
     10          6           0      -13.103809    0.923077    1.247297
     11          6           0       12.368860    1.661002    0.754013
     12          6           0      -12.451453   -1.619645   -0.786975
     13          6           0       13.385386    0.616667    0.476225
     14          6           0       10.632598   -0.035263    0.069921
     15          6           0       -9.523508   -0.074086   -0.028352
     16          6           0       13.079088   -0.215869   -0.797599
     17          6           0       11.534225   -0.494398   -0.798763
     18          6           0        9.842489    2.216004    1.243756
     19          6           0       11.047637    0.387277    2.555304
     20          6           0      -11.517695   -0.153855   -2.557783
     21          6           0       -8.445177    0.759561   -0.348536
     22          6           0        9.341339   -0.444835    0.134637
     23          6           0       11.168230   -1.573685   -1.898379
     24          6           0       -7.041267    0.493442   -0.260815
     25          6           0        8.880555   -1.778501    0.020459
     26          6           0       -6.620825   -0.940452    0.102997
     27          6           0        7.495777   -2.159913   -0.053680
     28          6           0       -6.134870    1.463775   -0.422419
     29          6           0        7.223614   -3.609513    0.336572
     30          6           0        6.452276   -1.354740   -0.484000
     31          6           0       -4.765154    1.300259   -0.464366
     32          6           0        5.102746   -1.546764   -0.330902
     33          6           0       -3.948739    2.432541   -0.639199
     34          6           0       -2.592486    2.460739   -0.776171
     35          6           0        4.042269   -0.700379   -0.658967
     36          6           0        2.645883   -0.777775   -0.401904
     37          6           0       -1.950063    3.832880   -1.180911
     38          6           0       -1.781720    1.326200   -0.591554
     39          6           0        1.795563    0.314220   -0.608697
     40          6           0        2.058928   -2.101805    0.007513
     41          6           0       -0.379682    1.419449   -0.593671
     42          6           0        0.362898    0.285765   -0.449142
     43          1           0      -10.915990    1.469409   -0.400091
     44          1           0      -12.224850   -1.487038    2.655121
     45          1           0      -10.938979   -1.611131    1.565055
     46          1           0      -12.529327   -2.980766    0.939445
     47          1           0       -9.904598    0.389816    2.634238
     48          1           0      -10.682404    1.801514    2.180635
     49          1           0      -11.492783    1.111076    3.288510
     50          1           0      -13.628368    0.451073    0.429638
     51          1           0      -13.569294    0.748785    2.102546
     52          1           0      -12.849497    1.919670    0.894941
     53          1           0       12.162572    2.454878   -0.061407
     54          1           0       12.808831    2.371589    1.581093
     55          1           0      -12.954257   -2.111335   -1.759803
     56          1           0       13.433775   -0.219526    1.362638
     57          1           0       -9.499267   -1.085356    0.300847
     58          1           0       13.570464   -1.213716   -0.788239
     59          1           0       13.227480    0.255350   -1.823597
     60          1           0        8.976367    1.831618    1.811220
     61          1           0        9.509437    3.027125    0.346939
     62          1           0       10.160281    2.894254    2.062198
     63          1           0       11.705470   -0.358223    2.516817
     64          1           0       10.150734   -0.015715    2.766286
     65          1           0       11.183747    0.895929    3.487221
     66          1           0      -10.468432    0.086277   -2.850538
     67          1           0      -11.926054    0.696848   -2.940471
     68          1           0      -11.802455   -0.987426   -3.187306
     69          1           0      -14.775663   -2.479450    0.500490
     70          1           0        8.697859    0.453988    0.233045
     71          1           0       -8.740080    1.735805   -0.910479
     72          1           0       11.253389   -2.728364   -1.478528
     73          1           0       10.189890   -1.544769   -2.259475
     74          1           0       11.736387   -1.365023   -2.759638
     75          1           0       14.907506    1.737123    0.857224
     76          1           0        9.806568   -2.615217   -0.134918
     77          1           0       -5.479139   -0.892980    0.044925
     78          1           0       -6.800438   -1.229451    1.042002
     79          1           0       -7.058366   -1.728982   -0.486275
     80          1           0       -6.498808    2.347982   -0.709736
     81          1           0        7.373391   -3.822846    1.530926
     82          1           0        6.143608   -4.064844   -0.091635
     83          1           0        8.317176   -4.046660   -0.155933
     84          1           0        6.759475   -0.348282   -0.572399
     85          1           0       -4.234977    0.253146   -0.541115
     86          1           0        4.585732   -2.514708    0.133607
     87          1           0       -4.579187    3.308669   -0.865497
     88          1           0        4.660759    0.139938   -1.152111
     89          1           0       -1.295605    3.747786   -2.098535
     90          1           0       -1.476357    4.234874   -0.383928
     91          1           0       -2.832043    4.519562   -1.354101
     92          1           0       -2.221427    0.307854   -0.639552
     93          1           0        2.147178    1.339288   -1.116596
     94          1           0        2.473859   -2.316885    1.127506
     95          1           0        1.121738   -2.158701    0.097196
     96          1           0        2.373896   -2.774355   -0.689039
     97          1           0        0.102712    2.497425   -0.695553
     98          1           0       -0.195861   -0.402125    0.004560
 ---------------------------------------------------------------------

 SCF Done:  E(RCAM-B3LYP) =  -1706.88843196     A.U. after   15 cycles

 Excitation energies and oscillator strengths:

 Excited State   1:      Singlet-A      2.0248 eV  612.33 nm  f=3.1347  <S**2>=0.000
     155 ->158         0.15493
     156 ->157         0.69188
 This state for optimization and/or second-order correction.
 Total Energy, E(TD-HF/TD-DFT) =  -1706.81402253
 Copying the excited state density for this state as the 1-particle RhoCI density.

 The electronic state is 1-A.
 Alpha  occ. eigenvalues --  -19.21370 -19.20650 -10.32349 -10.29675 -10.29462
 Alpha  occ. eigenvalues --  -10.29121 -10.28147 -10.27746 -10.27745 -10.27375
 Alpha  occ. eigenvalues --  -10.27341 -10.27290 -10.27288 -10.27215 -10.27200
 Alpha  occ. eigenvalues --  -10.27140 -10.27030 -10.26909 -10.26739 -10.26685
 Alpha  occ. eigenvalues --  -10.26589 -10.26566 -10.26508 -10.26288 -10.26234
 Alpha  occ. eigenvalues --  -10.26136 -10.26090 -10.25996 -10.25795 -10.25696
 Alpha  occ. eigenvalues --  -10.25518 -10.25251 -10.25163 -10.25139 -10.24673
 Alpha  occ. eigenvalues --  -10.24475 -10.24417 -10.24226 -10.23643 -10.22910
 Alpha  occ. eigenvalues --  -10.22447 -10.21585  -1.08534  -1.08393  -0.94438
 Alpha  occ. eigenvalues --   -0.93806  -0.92550  -0.91505  -0.90692  -0.89643
 Alpha  occ. eigenvalues --   -0.87370  -0.86537  -0.85798  -0.85394  -0.84813
 Alpha  occ. eigenvalues --   -0.83125  -0.82445  -0.80204  -0.79687  -0.78309
 Alpha  occ. eigenvalues --   -0.77338  -0.76996  -0.76714  -0.76218  -0.75595
 Alpha  occ. eigenvalues --   -0.75287  -0.74975  -0.74918  -0.72912  -0.70635
 Alpha  occ. eigenvalues --   -0.68965  -0.67999  -0.66045  -0.65612  -0.64220
 Alpha  occ. eigenvalues --   -0.63592  -0.63260  -0.62568  -0.60969  -0.59817
 Alpha  occ. eigenvalues --   -0.58862  -0.58374  -0.57861  -0.57242  -0.56145
 Alpha  occ. eigenvalues --   -0.55477  -0.55281  -0.54448  -0.54050  -0.53632
 Alpha  occ. eigenvalues --   -0.52917  -0.52682  -0.52062  -0.51946  -0.50864
 Alpha  occ. eigenvalues --   -0.50327  -0.50265  -0.49900  -0.49503  -0.49246
 Alpha  occ. eigenvalues --   -0.48991  -0.48799  -0.48475  -0.48060  -0.47819
 Alpha  occ. eigenvalues --   -0.47757  -0.47068  -0.46774  -0.46287  -0.46148
 Alpha  occ. eigenvalues --   -0.45734  -0.45281  -0.45177  -0.44869  -0.44705
 Alpha  occ. eigenvalues --   -0.44542  -0.43998  -0.43791  -0.43536  -0.43456
 Alpha  occ. eigenvalues --   -0.43173  -0.43036  -0.42733  -0.42353  -0.42135
 Alpha  occ. eigenvalues --   -0.41911  -0.41721  -0.41700  -0.41085  -0.41059
 Alpha  occ. eigenvalues --   -0.40637  -0.40447  -0.40284  -0.39602  -0.39575
 Alpha  occ. eigenvalues --   -0.39324  -0.39011  -0.38670  -0.38043  -0.37701
 Alpha  occ. eigenvalues --   -0.37475  -0.37041  -0.36548  -0.35448  -0.34817
 Alpha  occ. eigenvalues --   -0.33971  -0.33415  -0.33362  -0.32937  -0.31769
 Alpha  occ. eigenvalues --   -0.30773  -0.29732  -0.29055  -0.27151  -0.23332
 Alpha  occ. eigenvalues --   -0.18970
 Alpha virt. eigenvalues --   -0.06084  -0.01776   0.02665   0.05035   0.06763
 Alpha virt. eigenvalues --    0.08392   0.11103   0.11531   0.11931   0.12030
 Alpha virt. eigenvalues --    0.12674   0.12788   0.13259   0.13342   0.13648

 Mulliken charges:
               1
     1  O   -0.559541
     2  O   -0.557806
     3  C   -0.003137
     4  C   -0.142843
     5  C   -0.202131
     6  C    0.155131
     7  C    0.135358
     8  C   -0.010877
     9  C   -0.301774
    10  C   -0.285752
    11  C   -0.188347
    12  C   -0.133190
    13  C    0.162872
    14  C    0.086109
    15  C   -0.066521
    16  C   -0.192137
    17  C   -0.002657
    18  C   -0.343661
    19  C   -0.308696
    20  C   -0.370648
    21  C   -0.130475
    22  C   -0.116156
    23  C   -0.353431
    24  C    0.104867
    25  C   -0.125779
    26  C   -0.364369
    27  C    0.104667
    28  C   -0.095396
    29  C   -0.330504
    30  C   -0.124364
    31  C   -0.067600
    32  C   -0.073217
    33  C   -0.138278
    34  C    0.073560
    35  C   -0.114350
    36  C    0.072045
    37  C   -0.370852
    38  C   -0.122979
    39  C   -0.120434
    40  C   -0.338096
    41  C   -0.074317
    42  C   -0.085522
    43  H    0.088400
    44  H    0.096469
    45  H    0.092820
    46  H    0.083673
    47  H    0.099500
    48  H    0.098757
    49  H    0.094884
    50  H    0.116867
    51  H    0.114361
    52  H    0.074959
    53  H    0.109356
    54  H    0.069663
    55  H    0.070186
    56  H    0.074629
    57  H    0.095133
    58  H    0.122287
    59  H    0.119212
    60  H    0.116251
    61  H    0.091677
    62  H    0.101215
    63  H    0.112316
    64  H    0.119174
    65  H    0.102885
    66  H    0.103379
    67  H    0.126133
    68  H    0.104966
    69  H    0.307732
    70  H    0.104031
    71  H    0.074893
    72  H    0.087246
    73  H    0.135365
    74  H    0.105107
    75  H    0.296858
    76  H    0.081171
    77  H    0.087786
    78  H    0.133659
    79  H    0.119050
    80  H    0.074699
    81  H    0.107948
    82  H    0.105060
    83  H    0.075907
    84  H    0.081188
    85  H    0.093185
    86  H    0.057106
    87  H    0.080683
    88  H    0.066342
    89  H    0.124013
    90  H    0.140548
    91  H    0.100041
    92  H    0.084961
    93  H    0.081901
    94  H    0.096569
    95  H    0.113566
    96  H    0.134209
    97  H    0.084457
    98  H    0.086792
 Sum of Mulliken charges =  -0.00000

 Dipole moment (field-independent basis, Debye):
    X=             -0.0783    Y=             -0.1263    Z=              0.3528  Tot=              0.3829
 Quadrupole moment (field-independent basis, Debye-Ang):
   XX=           -276.1232   YY=           -242.8756   ZZ=           -260.1474
   XY=             23.4824   XZ=             34.8412   YZ=             -1.0907

 Normal termination of Gaussian 16 at Fri Jul 12 16:01:22 2019.
