 Gaussian 16, Revision A.03,
 Gaussian 16:  ES64L-G16RevA.03 25-Dec-2016

 -------------------------------------
 # td=(NStates=1) CAM-B3LYP/6-31G(d,p)
 -------------------------------------

 --
 TD
 --
 Symbolic Z-matrix:
 Charge =  0 Multiplicity = 1

                         Standard orientation:
 ---------------------------------------------------------------------
 Center     Atomic      Atomic             Coordinates (Angstroms)
 Number     Number       Type             X           Y           Z
 ---------------------------------------------------------------------
      1          8           0      -14.135135   -1.919470    0.457351
      2          8           0       14.804421    0.779444    0.341391
      3          6           0      -11.885320    0.160622    1.369521
      4          6           0      -11.014910    0.351610    0.076729
      5          6           0      -12.031739   -1.457386    1.504420
      6          6           0      -12.744408   -2.146822    0.326398
      7          6           0      -11.611206   -0.451160   -1.082659
      8          6           0       11.141008    1.106636    1.080639
      9          6           0      -11.066157    0.587942    2.599634
     10          6           0      -13.234683    0.937026    1.255776
     11          6           0       12.548058    1.480030    0.880482
     12          6           0      -12.325788   -1.557925   -0.956249
     13          6           0       13.499977    0.375362    0.559376
     14          6           0       10.676035    0.073083    0.000211
     15          6           0       -9.498995   -0.023044    0.127970
     16          6           0       13.145946   -0.276315   -0.708178
     17          6           0       11.646130   -0.414522   -0.890872
     18          6           0       10.235145    2.322509    0.909223
     19          6           0       10.972829    0.491189    2.510540
     20          6           0      -11.331737    0.126334   -2.431755
     21          6           0       -8.559321    0.784450   -0.186490
     22          6           0        9.249473   -0.279976    0.036099
     23          6           0       11.284555   -1.548020   -1.887793
     24          6           0       -7.100586    0.468267   -0.159349
     25          6           0        8.890789   -1.652244   -0.024601
     26          6           0       -6.713134   -0.915216    0.279024
     27          6           0        7.447626   -2.066629   -0.105967
     28          6           0       -6.274436    1.477785   -0.374331
     29          6           0        7.229000   -3.513123    0.213124
     30          6           0        6.370628   -1.215051   -0.277429
     31          6           0       -4.851447    1.421445   -0.391659
     32          6           0        4.997446   -1.540891   -0.118312
     33          6           0       -4.019886    2.502931   -0.818719
     34          6           0       -2.609037    2.583130   -0.895018
     35          6           0        3.991034   -0.652579   -0.527753
     36          6           0        2.599314   -0.881094   -0.370083
     37          6           0       -1.930131    3.951654   -0.993158
     38          6           0       -1.822102    1.462791   -0.768875
     39          6           0        1.744294    0.260372   -0.533085
     40          6           0        2.218735   -2.394709   -0.092139
     41          6           0       -0.329037    1.294491   -0.753790
     42          6           0        0.386916    0.205027   -0.540273
     43          1           0      -11.207544    1.467748   -0.249787
     44          1           0      -12.799972   -1.514974    2.324104
     45          1           0      -11.035018   -1.853507    1.778660
     46          1           0      -12.641349   -3.343164    0.356951
     47          1           0      -10.146382   -0.101661    2.651376
     48          1           0      -10.756407    1.693310    2.593552
     49          1           0      -11.471823    0.391756    3.528022
     50          1           0      -13.814665    0.351871    0.599426
     51          1           0      -13.735826    0.827231    2.187255
     52          1           0      -13.246172    1.984859    1.265318
     53          1           0       12.775289    2.382382    0.072548
     54          1           0       12.835661    1.987780    1.852790
     55          1           0      -12.570649   -1.880971   -1.808059
     56          1           0       13.627932   -0.210738    1.345128
     57          1           0       -9.228349   -1.140766    0.294585
     58          1           0       13.597190   -1.240723   -0.836567
     59          1           0       13.651538    0.393262   -1.655980
     60          1           0        9.233830    2.267334    1.351167
     61          1           0       10.220870    2.601319   -0.296831
     62          1           0       10.538704    3.093974    1.561537
     63          1           0       11.620212   -0.158557    2.634062
     64          1           0       10.074810    0.103820    2.786894
     65          1           0       11.117898    1.394807    3.290202
     66          1           0      -10.248274    0.394858   -2.628302
     67          1           0      -12.034466    1.020355   -2.680566
     68          1           0      -11.589939   -0.592446   -3.159576
     69          1           0      -14.629349   -2.127842   -0.330359
     70          1           0        8.525916    0.438408    0.173018
     71          1           0       -8.875341    1.875381   -0.491076
     72          1           0       11.364662   -2.578638   -1.339948
     73          1           0       10.253471   -1.397010   -2.149117
     74          1           0       12.306302   -1.347214   -2.715937
     75          1           0       14.918367    1.459827    1.086966
     76          1           0        9.712488   -2.526492    0.073048
     77          1           0       -5.620716   -1.278843    0.354654
     78          1           0       -7.089925   -0.992713    1.246655
     79          1           0       -7.462257   -1.675718   -0.186294
     80          1           0       -6.666786    2.549380   -0.611068
     81          1           0        6.863665   -3.829492    1.151027
     82          1           0        6.586615   -4.018633   -0.544026
     83          1           0        8.200150   -4.205673    0.226527
     84          1           0        6.599231   -0.067499   -0.492466
     85          1           0       -4.347046    0.412275   -0.238560
     86          1           0        4.583219   -2.495823    0.036539
     87          1           0       -4.623287    3.380257   -1.039886
     88          1           0        4.113548    0.360680   -0.867877
     89          1           0       -1.228349    4.082991   -1.813588
     90          1           0       -1.205692    4.198760   -0.084712
     91          1           0       -2.635163    4.686070   -1.014454
     92          1           0       -2.469895    0.446226   -0.990097
     93          1           0        2.392415    1.135063   -0.891612
     94          1           0        2.343104   -2.483095    0.997602
     95          1           0        1.118248   -2.421381   -0.419879
     96          1           0        2.898588   -3.051867   -0.788984
     97          1           0        0.145021    2.273804   -0.709111
     98          1           0       -0.117852   -0.628027   -0.218593
 ---------------------------------------------------------------------

 SCF Done:  E(RCAM-B3LYP) =  -1706.95402397     A.U. after   14 cycles

 Excitation energies and oscillator strengths:

 Excited State   1:      Singlet-A      2.2738 eV  545.27 nm  f=2.9704  <S**2>=0.000
     155 ->158        -0.16857
     156 ->157         0.68571
 This state for optimization and/or second-order correction.
 Total Energy, E(TD-HF/TD-DFT) =  -1706.87046364
 Copying the excited state density for this state as the 1-particle RhoCI density.

 The electronic state is 1-A.
 Alpha  occ. eigenvalues --  -19.20960 -19.20836 -10.31724 -10.28289 -10.28167
 Alpha  occ. eigenvalues --  -10.27795 -10.27737 -10.27692 -10.27669 -10.27523
 Alpha  occ. eigenvalues --  -10.27308 -10.27293 -10.27209 -10.27150 -10.27102
 Alpha  occ. eigenvalues --  -10.27097 -10.27054 -10.26940 -10.26765 -10.26709
 Alpha  occ. eigenvalues --  -10.26688 -10.26616 -10.26313 -10.26289 -10.26263
 Alpha  occ. eigenvalues --  -10.26248 -10.26099 -10.26097 -10.26060 -10.25998
 Alpha  occ. eigenvalues --  -10.25995 -10.25841 -10.25761 -10.25682 -10.25678
 Alpha  occ. eigenvalues --  -10.25393 -10.25359 -10.25349 -10.24103 -10.23443
 Alpha  occ. eigenvalues --  -10.22833 -10.22279  -1.10449  -1.10077  -0.93331
 Alpha  occ. eigenvalues --   -0.92967  -0.92119  -0.91470  -0.90369  -0.89489
 Alpha  occ. eigenvalues --   -0.87541  -0.86670  -0.86484  -0.85375  -0.84542
 Alpha  occ. eigenvalues --   -0.82372  -0.81535  -0.80568  -0.79242  -0.77754
 Alpha  occ. eigenvalues --   -0.77581  -0.77118  -0.76319  -0.75811  -0.75518
 Alpha  occ. eigenvalues --   -0.75365  -0.75138  -0.74396  -0.73167  -0.70498
 Alpha  occ. eigenvalues --   -0.68728  -0.67592  -0.66737  -0.65178  -0.63409
 Alpha  occ. eigenvalues --   -0.62927  -0.62764  -0.61935  -0.59881  -0.59699
 Alpha  occ. eigenvalues --   -0.59010  -0.58720  -0.58561  -0.57464  -0.56443
 Alpha  occ. eigenvalues --   -0.55723  -0.55344  -0.54732  -0.54106  -0.53419
 Alpha  occ. eigenvalues --   -0.52753  -0.52192  -0.52003  -0.51777  -0.51578
 Alpha  occ. eigenvalues --   -0.50916  -0.50046  -0.49970  -0.49616  -0.49543
 Alpha  occ. eigenvalues --   -0.49310  -0.48745  -0.48547  -0.47858  -0.47660
 Alpha  occ. eigenvalues --   -0.47481  -0.47175  -0.46785  -0.46383  -0.46188
 Alpha  occ. eigenvalues --   -0.45667  -0.45568  -0.45165  -0.44533  -0.44408
 Alpha  occ. eigenvalues --   -0.44306  -0.43903  -0.43552  -0.43479  -0.43302
 Alpha  occ. eigenvalues --   -0.43137  -0.43013  -0.42839  -0.42302  -0.42109
 Alpha  occ. eigenvalues --   -0.41744  -0.41416  -0.41166  -0.40847  -0.40612
 Alpha  occ. eigenvalues --   -0.40182  -0.40140  -0.39951  -0.39504  -0.39204
 Alpha  occ. eigenvalues --   -0.38848  -0.38800  -0.38662  -0.38185  -0.37749
 Alpha  occ. eigenvalues --   -0.37740  -0.37667  -0.36894  -0.36355  -0.35499
 Alpha  occ. eigenvalues --   -0.35239  -0.34265  -0.33079  -0.32127  -0.31862
 Alpha  occ. eigenvalues --   -0.31385  -0.29738  -0.29042  -0.26676  -0.23754
 Alpha  occ. eigenvalues --   -0.19948
 Alpha virt. eigenvalues --   -0.05617  -0.01197   0.02685   0.05706   0.07330
 Alpha virt. eigenvalues --    0.08748   0.10796   0.11594   0.11725   0.12344
 Alpha virt. eigenvalues --    0.12515   0.12999   0.13146   0.13518   0.14111

 Mulliken charges:
               1
     1  O   -0.543480
     2  O   -0.560604
     3  C    0.014444
     4  C   -0.129657
     5  C   -0.200760
     6  C    0.148853
     7  C    0.103297
     8  C    0.004594
     9  C   -0.297078
    10  C   -0.316673
    11  C   -0.217538
    12  C   -0.078413
    13  C    0.205766
    14  C    0.044672
    15  C   -0.090871
    16  C   -0.210334
    17  C    0.028244
    18  C   -0.301389
    19  C   -0.286434
    20  C   -0.363674
    21  C   -0.067417
    22  C   -0.104365
    23  C   -0.329301
    24  C    0.124848
    25  C   -0.119344
    26  C   -0.392434
    27  C    0.095118
    28  C   -0.130876
    29  C   -0.386389
    30  C   -0.117787
    31  C   -0.063064
    32  C   -0.092109
    33  C   -0.145680
    34  C    0.123335
    35  C   -0.096741
    36  C    0.072173
    37  C   -0.372659
    38  C   -0.146801
    39  C   -0.131579
    40  C   -0.368847
    41  C   -0.097770
    42  C   -0.043169
    43  H    0.077374
    44  H    0.113315
    45  H    0.100316
    46  H    0.059527
    47  H    0.081891
    48  H    0.089010
    49  H    0.106037
    50  H    0.129300
    51  H    0.100364
    52  H    0.102144
    53  H    0.081678
    54  H    0.070569
    55  H    0.044600
    56  H    0.087702
    57  H    0.074912
    58  H    0.122228
    59  H    0.094757
    60  H    0.099057
    61  H    0.091205
    62  H    0.097665
    63  H    0.111443
    64  H    0.118134
    65  H    0.065980
    66  H    0.117340
    67  H    0.105617
    68  H    0.107950
    69  H    0.305493
    70  H    0.098559
    71  H    0.081261
    72  H    0.103667
    73  H    0.133125
    74  H    0.060904
    75  H    0.295539
    76  H    0.095181
    77  H    0.117429
    78  H    0.145238
    79  H    0.109407
    80  H    0.077842
    81  H    0.132891
    82  H    0.115374
    83  H    0.085134
    84  H    0.079683
    85  H    0.075672
    86  H    0.086165
    87  H    0.077247
    88  H    0.069586
    89  H    0.127521
    90  H    0.106793
    91  H    0.116224
    92  H    0.060555
    93  H    0.087689
    94  H    0.141644
    95  H    0.107395
    96  H    0.122713
    97  H    0.081735
    98  H    0.090111
 Sum of Mulliken charges =  -0.00000

 Dipole moment (field-independent basis, Debye):
    X=             -1.8967    Y=             -0.3875    Z=              0.9705  Tot=              2.1655
 Quadrupole moment (field-independent basis, Debye-Ang):
   XX=           -286.3409   YY=           -243.1869   ZZ=           -263.2972
   XY=              7.5301   XZ=             41.7662   YZ=              0.5462

 Normal termination of Gaussian 16 at Fri Jul 12 15:56:15 2019.
