 Gaussian 16, Revision A.03,
 Gaussian 16:  ES64L-G16RevA.03 25-Dec-2016

 -------------------------------------
 # td=(NStates=1) CAM-B3LYP/6-31G(d,p)
 -------------------------------------

 --
 TD
 --
 Symbolic Z-matrix:
 Charge =  0 Multiplicity = 1

                         Standard orientation:
 ---------------------------------------------------------------------
 Center     Atomic      Atomic             Coordinates (Angstroms)
 Number     Number       Type             X           Y           Z
 ---------------------------------------------------------------------
      1          8           0      -14.136883   -2.064841    0.506736
      2          8           0       14.717837    1.027784    0.216284
      3          6           0      -11.715110   -0.062320    1.428605
      4          6           0      -10.907818    0.310837    0.150092
      5          6           0      -12.095269   -1.557726    1.379405
      6          6           0      -12.704141   -2.133169    0.163716
      7          6           0      -11.564257   -0.278043   -1.095514
      8          6           0       11.053638    0.865097    1.305388
      9          6           0      -10.889619    0.341518    2.651582
     10          6           0      -13.060699    0.749047    1.326676
     11          6           0       12.497858    1.430605    1.053995
     12          6           0      -12.417931   -1.336346   -1.090630
     13          6           0       13.457675    0.385912    0.307914
     14          6           0       10.602185   -0.091920    0.045058
     15          6           0       -9.468208   -0.106431    0.164006
     16          6           0       12.899153    0.064525   -1.021981
     17          6           0       11.508978   -0.431661   -0.893166
     18          6           0       10.258733    2.090854    1.537178
     19          6           0       10.978067    0.089192    2.639397
     20          6           0      -11.248989    0.376637   -2.413052
     21          6           0       -8.481768    0.848297   -0.036638
     22          6           0        9.216963   -0.480997   -0.008126
     23          6           0       11.118157   -1.202138   -2.092809
     24          6           0       -7.021031    0.539317   -0.127523
     25          6           0        8.810330   -1.786733   -0.285119
     26          6           0       -6.587499   -0.925505   -0.153330
     27          6           0        7.414541   -2.218757   -0.164678
     28          6           0       -6.208916    1.599143   -0.439815
     29          6           0        7.161669   -3.638376   -0.004274
     30          6           0        6.438897   -1.340263   -0.307612
     31          6           0       -4.785088    1.454723   -0.623241
     32          6           0        5.017697   -1.636268   -0.232502
     33          6           0       -4.021651    2.661614   -0.678033
     34          6           0       -2.629755    2.680250   -0.710084
     35          6           0        3.969828   -0.649170   -0.375334
     36          6           0        2.583074   -0.863156   -0.387342
     37          6           0       -2.015718    4.075196   -1.010876
     38          6           0       -1.740142    1.596102   -0.363619
     39          6           0        1.708108    0.243884   -0.475503
     40          6           0        2.147842   -2.258112   -0.131745
     41          6           0       -0.380188    1.519291   -0.552707
     42          6           0        0.349292    0.349359   -0.435730
     43          1           0      -10.654492    1.490204    0.239662
     44          1           0      -12.648615   -1.947915    2.313216
     45          1           0      -11.139703   -2.132776    1.387340
     46          1           0      -12.402937   -3.187019    0.114771
     47          1           0      -10.067228   -0.258824    2.602240
     48          1           0      -10.588098    1.435943    2.639880
     49          1           0      -11.505143    0.271186    3.583971
     50          1           0      -13.754538    0.327977    0.454433
     51          1           0      -13.526985    0.417142    2.464020
     52          1           0      -12.765101    1.781945    1.389691
     53          1           0       12.594430    2.321289    0.349352
     54          1           0       12.928176    1.740611    1.800782
     55          1           0      -12.854006   -1.686554   -2.031064
     56          1           0       13.599130   -0.319025    1.156734
     57          1           0       -9.147742   -0.977172    0.347387
     58          1           0       13.574332   -0.627564   -1.610757
     59          1           0       13.000699    0.836826   -1.731073
     60          1           0        9.209822    1.954780    1.896629
     61          1           0       10.251141    2.661394    0.660107
     62          1           0       10.837688    2.891008    2.230267
     63          1           0       11.777451   -0.879505    2.574398
     64          1           0       10.022213   -0.267846    2.931106
     65          1           0       11.560805    0.628080    3.474969
     66          1           0      -10.320576    0.573697   -2.618666
     67          1           0      -11.792624    1.393218   -2.433936
     68          1           0      -11.820025   -0.116954   -3.292559
     69          1           0      -14.758621   -2.466561   -0.029674
     70          1           0        8.396025    0.278173    0.406839
     71          1           0       -8.610424    1.933211   -0.173746
     72          1           0       11.563155   -2.111523   -2.036839
     73          1           0        9.987959   -1.270844   -2.159233
     74          1           0       11.474056   -0.542064   -3.093548
     75          1           0       14.865453    1.443710    1.095356
     76          1           0        9.645237   -2.655686   -0.314650
     77          1           0       -5.514732   -1.231965   -0.190601
     78          1           0       -6.716899   -1.307180    0.950659
     79          1           0       -7.170186   -1.476991   -0.856226
     80          1           0       -6.551671    2.562307   -0.470675
     81          1           0        6.711330   -3.639995    1.092869
     82          1           0        6.272936   -3.913623   -0.552537
     83          1           0        8.081864   -4.230837   -0.141066
     84          1           0        6.762350   -0.285178   -0.686134
     85          1           0       -4.282089    0.473543   -0.749906
     86          1           0        4.774791   -2.480892    0.023417
     87          1           0       -4.410181    3.590175   -0.731149
     88          1           0        4.344470    0.459887   -0.685765
     89          1           0       -1.420721    4.057386   -2.009965
     90          1           0       -1.361404    4.336558   -0.304923
     91          1           0       -2.818982    4.730217   -1.088098
     92          1           0       -2.117383    0.785173   -0.247510
     93          1           0        2.103570    1.156944   -0.708682
     94          1           0        2.093111   -2.387339    0.966258
     95          1           0        1.061471   -2.358046   -0.502753
     96          1           0        2.925769   -2.755172   -0.715768
     97          1           0        0.412397    2.338678   -0.752852
     98          1           0       -0.251670   -0.705604   -0.262318
 ---------------------------------------------------------------------

 SCF Done:  E(RCAM-B3LYP) =  -1706.89522628     A.U. after   16 cycles

 Excitation energies and oscillator strengths:

 Excited State   1:      Singlet-A      1.8981 eV  653.19 nm  f=2.9650  <S**2>=0.000
     155 ->158         0.13672
     156 ->157         0.69898
     156 <-157        -0.11375
 This state for optimization and/or second-order correction.
 Total Energy, E(TD-HF/TD-DFT) =  -1706.82547143
 Copying the excited state density for this state as the 1-particle RhoCI density.

 The electronic state is 1-A.
 Alpha  occ. eigenvalues --  -19.20508 -19.19476 -10.31048 -10.30063 -10.28182
 Alpha  occ. eigenvalues --  -10.28042 -10.27909 -10.27655 -10.27630 -10.27554
 Alpha  occ. eigenvalues --  -10.27511 -10.27422 -10.27340 -10.27108 -10.27036
 Alpha  occ. eigenvalues --  -10.26988 -10.26948 -10.26732 -10.26585 -10.26489
 Alpha  occ. eigenvalues --  -10.26293 -10.26191 -10.26067 -10.25962 -10.25955
 Alpha  occ. eigenvalues --  -10.25918 -10.25690 -10.25640 -10.25399 -10.25327
 Alpha  occ. eigenvalues --  -10.25242 -10.25175 -10.25137 -10.25106 -10.25032
 Alpha  occ. eigenvalues --  -10.24950 -10.24874 -10.24842 -10.24568 -10.24311
 Alpha  occ. eigenvalues --  -10.24110 -10.23693  -1.09051  -1.07999  -0.93652
 Alpha  occ. eigenvalues --   -0.93243  -0.92254  -0.91736  -0.91012  -0.90016
 Alpha  occ. eigenvalues --   -0.88070  -0.87551  -0.86438  -0.85716  -0.85053
 Alpha  occ. eigenvalues --   -0.83231  -0.82153  -0.80762  -0.80069  -0.79600
 Alpha  occ. eigenvalues --   -0.77242  -0.76497  -0.76113  -0.76044  -0.75295
 Alpha  occ. eigenvalues --   -0.75187  -0.74996  -0.74216  -0.72883  -0.70549
 Alpha  occ. eigenvalues --   -0.68989  -0.67696  -0.66986  -0.65440  -0.64462
 Alpha  occ. eigenvalues --   -0.63173  -0.62369  -0.62197  -0.61522  -0.60717
 Alpha  occ. eigenvalues --   -0.59268  -0.58768  -0.58256  -0.57834  -0.57120
 Alpha  occ. eigenvalues --   -0.55947  -0.55038  -0.54876  -0.54483  -0.53593
 Alpha  occ. eigenvalues --   -0.53493  -0.52852  -0.52742  -0.51726  -0.51203
 Alpha  occ. eigenvalues --   -0.50974  -0.50508  -0.49929  -0.49911  -0.49721
 Alpha  occ. eigenvalues --   -0.49454  -0.49203  -0.48938  -0.48692  -0.48241
 Alpha  occ. eigenvalues --   -0.48005  -0.47525  -0.46921  -0.46841  -0.46503
 Alpha  occ. eigenvalues --   -0.46372  -0.45685  -0.45271  -0.45146  -0.45005
 Alpha  occ. eigenvalues --   -0.44960  -0.44357  -0.44021  -0.43644  -0.43382
 Alpha  occ. eigenvalues --   -0.42756  -0.42528  -0.42299  -0.42113  -0.42071
 Alpha  occ. eigenvalues --   -0.41932  -0.41577  -0.41272  -0.41063  -0.40782
 Alpha  occ. eigenvalues --   -0.40225  -0.40053  -0.39778  -0.39436  -0.39111
 Alpha  occ. eigenvalues --   -0.38940  -0.38733  -0.38554  -0.38201  -0.37280
 Alpha  occ. eigenvalues --   -0.37142  -0.36928  -0.36468  -0.36241  -0.35848
 Alpha  occ. eigenvalues --   -0.34961  -0.34542  -0.33697  -0.32584  -0.31718
 Alpha  occ. eigenvalues --   -0.30067  -0.29504  -0.28956  -0.26757  -0.23692
 Alpha  occ. eigenvalues --   -0.18538
 Alpha virt. eigenvalues --   -0.06688  -0.01146   0.02387   0.04803   0.06833
 Alpha virt. eigenvalues --    0.09002   0.10732   0.11901   0.12276   0.12531
 Alpha virt. eigenvalues --    0.12743   0.12930   0.13452   0.13727   0.14111

 Mulliken charges:
               1
     1  O   -0.562414
     2  O   -0.570040
     3  C    0.001727
     4  C   -0.135535
     5  C   -0.162755
     6  C    0.130299
     7  C    0.135898
     8  C    0.003383
     9  C   -0.294011
    10  C   -0.262621
    11  C   -0.197769
    12  C   -0.134621
    13  C    0.165163
    14  C    0.071793
    15  C   -0.058259
    16  C   -0.215590
    17  C    0.055253
    18  C   -0.292844
    19  C   -0.287002
    20  C   -0.353298
    21  C   -0.108839
    22  C   -0.139099
    23  C   -0.354625
    24  C    0.102743
    25  C   -0.130681
    26  C   -0.378501
    27  C    0.122587
    28  C   -0.116854
    29  C   -0.375890
    30  C   -0.124663
    31  C   -0.078532
    32  C   -0.092730
    33  C   -0.105504
    34  C    0.056810
    35  C   -0.106314
    36  C    0.080741
    37  C   -0.363074
    38  C   -0.067160
    39  C   -0.103921
    40  C   -0.358405
    41  C   -0.081585
    42  C   -0.072870
    43  H    0.084280
    44  H    0.112997
    45  H    0.070763
    46  H    0.093905
    47  H    0.112797
    48  H    0.091998
    49  H    0.096762
    50  H    0.124579
    51  H    0.054823
    52  H    0.091896
    53  H    0.089920
    54  H    0.069990
    55  H    0.080965
    56  H    0.082418
    57  H    0.071566
    58  H    0.104363
    59  H    0.136335
    60  H    0.092016
    61  H    0.113163
    62  H    0.080044
    63  H    0.058381
    64  H    0.121429
    65  H    0.094372
    66  H    0.129880
    67  H    0.103184
    68  H    0.095795
    69  H    0.288611
    70  H    0.101337
    71  H    0.083199
    72  H    0.127543
    73  H    0.121603
    74  H    0.068590
    75  H    0.303652
    76  H    0.090039
    77  H    0.112074
    78  H    0.108275
    79  H    0.136536
    80  H    0.083580
    81  H    0.113636
    82  H    0.129946
    83  H    0.112180
    84  H    0.078630
    85  H    0.104042
    86  H    0.054084
    87  H    0.079033
    88  H    0.067760
    89  H    0.109607
    90  H    0.136720
    91  H    0.104871
    92  H    0.035991
    93  H    0.065297
    94  H    0.133048
    95  H    0.101775
    96  H    0.121528
    97  H    0.078255
    98  H    0.049550
 Sum of Mulliken charges =  -0.00000

 Dipole moment (field-independent basis, Debye):
    X=             -1.5486    Y=             -0.7143    Z=             -0.1243  Tot=              1.7099
 Quadrupole moment (field-independent basis, Debye-Ang):
   XX=           -287.8942   YY=           -242.3272   ZZ=           -262.4986
   XY=             12.0388   XZ=             36.4742   YZ=              2.1249

 Normal termination of Gaussian 16 at Sat Jul 13 22:48:52 2019.
