 Gaussian 16, Revision A.03,
 Gaussian 16:  ES64L-G16RevA.03 25-Dec-2016

 -------------------------------------
 # td=(NStates=1) CAM-B3LYP/6-31G(d,p)
 -------------------------------------

 --
 TD
 --
 Symbolic Z-matrix:
 Charge =  0 Multiplicity = 1

                         Standard orientation:
 ---------------------------------------------------------------------
 Center     Atomic      Atomic             Coordinates (Angstroms)
 Number     Number       Type             X           Y           Z
 ---------------------------------------------------------------------
      1          8           0      -14.089566   -2.008678    0.611496
      2          8           0       14.726538    0.968289    0.266615
      3          6           0      -11.708137    0.135434    1.280432
      4          6           0      -10.925420    0.233137   -0.106799
      5          6           0      -11.986144   -1.285361    1.540428
      6          6           0      -12.634694   -2.105904    0.442880
      7          6           0      -11.465493   -0.620673   -1.224708
      8          6           0       11.061586    0.962834    1.040596
      9          6           0      -10.911076    0.919513    2.421931
     10          6           0      -13.022892    0.927021    1.113076
     11          6           0       12.424150    1.477588    0.792325
     12          6           0      -12.229891   -1.618978   -0.970913
     13          6           0       13.460883    0.395054    0.566930
     14          6           0       10.664421   -0.042009   -0.048310
     15          6           0       -9.459328   -0.207156    0.130088
     16          6           0       13.033527   -0.297497   -0.774469
     17          6           0       11.642939   -0.423339   -0.911452
     18          6           0       10.118836    2.105040    1.040706
     19          6           0       10.823926    0.119469    2.355400
     20          6           0      -11.340208   -0.105289   -2.576100
     21          6           0       -8.475944    0.666390   -0.282271
     22          6           0        9.284744   -0.531465   -0.000646
     23          6           0       11.227605   -1.331258   -2.096082
     24          6           0       -7.054762    0.510382   -0.175611
     25          6           0        8.776420   -1.684256   -0.228605
     26          6           0       -6.527605   -0.955393    0.162238
     27          6           0        7.351214   -2.061120   -0.254811
     28          6           0       -6.254349    1.530294   -0.393622
     29          6           0        7.018781   -3.575450   -0.156695
     30          6           0        6.297045   -1.181015   -0.266531
     31          6           0       -4.744719    1.547550   -0.333205
     32          6           0        4.961831   -1.477846   -0.029120
     33          6           0       -3.998484    2.652960   -0.689529
     34          6           0       -2.585624    2.735700   -0.842394
     35          6           0        3.904829   -0.590387   -0.099387
     36          6           0        2.521267   -0.766280    0.083668
     37          6           0       -2.023961    4.022041   -1.245606
     38          6           0       -1.744478    1.531527   -0.510899
     39          6           0        1.676041    0.312011   -0.203892
     40          6           0        2.175470   -2.153822    0.285544
     41          6           0       -0.352482    1.440874   -0.508353
     42          6           0        0.369089    0.261728   -0.297043
     43          1           0      -10.898661    1.377914   -0.359550
     44          1           0      -12.434725   -1.522390    2.526944
     45          1           0      -11.004632   -1.714001    1.758986
     46          1           0      -12.267466   -3.106722    0.421857
     47          1           0       -9.726370    0.620703    2.584243
     48          1           0      -10.836652    1.927590    2.322982
     49          1           0      -11.443473    0.575984    3.312473
     50          1           0      -13.708240    0.144352    0.379983
     51          1           0      -13.500876    0.907077    2.228858
     52          1           0      -12.832597    1.975131    0.713330
     53          1           0       12.498862    2.246733    0.111221
     54          1           0       12.718296    2.187344    1.771387
     55          1           0      -12.611753   -2.316234   -1.801262
     56          1           0       13.656563   -0.322183    1.340734
     57          1           0       -9.278505   -1.276625    0.315188
     58          1           0       13.381709   -0.877803   -1.073074
     59          1           0       13.563665    0.410314   -1.503975
     60          1           0        9.131074    1.945799    1.755799
     61          1           0        9.999210    2.639742   -0.021032
     62          1           0       10.636293    3.019125    1.737480
     63          1           0       11.735901   -0.680685    2.361569
     64          1           0        9.796900   -0.235750    2.476271
     65          1           0       11.205132    0.751927    3.219134
     66          1           0      -10.266501   -0.129337   -2.969539
     67          1           0      -11.875759    0.881046   -2.662237
     68          1           0      -11.844482   -0.705517   -3.479099
     69          1           0      -14.640371   -2.944657    0.022443
     70          1           0        8.573989    0.379178    0.162984
     71          1           0       -8.836046    1.615687   -0.380058
     72          1           0       11.161564   -2.472137   -1.774802
     73          1           0       10.132703   -1.331894   -2.484944
     74          1           0       12.043713   -1.104322   -2.881288
     75          1           0       15.214494    1.160666    1.132843
     76          1           0        9.557490   -2.378557   -0.407605
     77          1           0       -5.431515   -1.109677   -0.193251
     78          1           0       -6.552969   -1.236147    1.336974
     79          1           0       -7.003484   -1.585398   -0.571507
     80          1           0       -6.798616    2.459889   -0.556978
     81          1           0        6.505392   -3.906747    0.875075
     82          1           0        6.355669   -3.783691   -0.980746
     83          1           0        8.060364   -4.203009   -0.384927
     84          1           0        6.553371   -0.189622   -0.395434
     85          1           0       -4.261970    0.409057   -0.318345
     86          1           0        4.675738   -2.477227    0.090456
     87          1           0       -4.576394    3.505456   -1.042709
     88          1           0        4.228559    0.514025   -0.037392
     89          1           0       -1.333689    3.859303   -2.061203
     90          1           0       -1.207624    4.581743   -0.561968
     91          1           0       -2.794998    4.836342   -1.484624
     92          1           0       -2.348898    0.668375    0.105919
     93          1           0        2.086680    1.238194   -0.157763
     94          1           0        2.455263   -2.453293    1.285790
     95          1           0        0.998129   -2.407164    0.450769
     96          1           0        2.296194   -2.744353   -0.668166
     97          1           0        0.212654    2.396858   -0.742974
     98          1           0       -0.307571   -0.529601   -0.045251
 ---------------------------------------------------------------------

 SCF Done:  E(RCAM-B3LYP) =  -1706.72681226     A.U. after   16 cycles

 Excitation energies and oscillator strengths:

 Excited State   1:      Singlet-A      1.9304 eV  642.26 nm  f=2.7394  <S**2>=0.000
     155 ->158        -0.12264
     156 ->157         0.70185
     156 <-157        -0.12001
 This state for optimization and/or second-order correction.
 Total Energy, E(TD-HF/TD-DFT) =  -1706.65587016
 Copying the excited state density for this state as the 1-particle RhoCI density.

 The electronic state is 1-A.
 Alpha  occ. eigenvalues --  -19.23441 -19.21438 -10.31108 -10.30863 -10.28716
 Alpha  occ. eigenvalues --  -10.28347 -10.27858 -10.27603 -10.27311 -10.27160
 Alpha  occ. eigenvalues --  -10.27142 -10.27123 -10.26992 -10.26862 -10.26828
 Alpha  occ. eigenvalues --  -10.26804 -10.26622 -10.26607 -10.26519 -10.26455
 Alpha  occ. eigenvalues --  -10.26434 -10.26306 -10.26284 -10.25987 -10.25953
 Alpha  occ. eigenvalues --  -10.25914 -10.25789 -10.25704 -10.25645 -10.25413
 Alpha  occ. eigenvalues --  -10.25348 -10.25181 -10.25041 -10.24993 -10.24941
 Alpha  occ. eigenvalues --  -10.24930 -10.24888 -10.24863 -10.24824 -10.24789
 Alpha  occ. eigenvalues --  -10.24465 -10.22481  -1.08953  -1.05335  -0.94510
 Alpha  occ. eigenvalues --   -0.93570  -0.92817  -0.91063  -0.90520  -0.89676
 Alpha  occ. eigenvalues --   -0.88617  -0.87825  -0.87339  -0.85721  -0.84341
 Alpha  occ. eigenvalues --   -0.82270  -0.81624  -0.80186  -0.79617  -0.78915
 Alpha  occ. eigenvalues --   -0.77254  -0.75986  -0.75354  -0.75167  -0.74970
 Alpha  occ. eigenvalues --   -0.74849  -0.74064  -0.73270  -0.72305  -0.69796
 Alpha  occ. eigenvalues --   -0.68751  -0.68002  -0.66998  -0.65341  -0.63396
 Alpha  occ. eigenvalues --   -0.62647  -0.62460  -0.61971  -0.60606  -0.59895
 Alpha  occ. eigenvalues --   -0.59399  -0.59227  -0.57445  -0.57077  -0.57045
 Alpha  occ. eigenvalues --   -0.55535  -0.55018  -0.54176  -0.53841  -0.53437
 Alpha  occ. eigenvalues --   -0.53191  -0.52626  -0.52313  -0.51758  -0.51489
 Alpha  occ. eigenvalues --   -0.51047  -0.50163  -0.49852  -0.49288  -0.49125
 Alpha  occ. eigenvalues --   -0.48855  -0.48528  -0.48214  -0.47946  -0.47648
 Alpha  occ. eigenvalues --   -0.47183  -0.46916  -0.46768  -0.46185  -0.45880
 Alpha  occ. eigenvalues --   -0.45653  -0.45239  -0.44735  -0.44501  -0.44420
 Alpha  occ. eigenvalues --   -0.44090  -0.43357  -0.43049  -0.42814  -0.42554
 Alpha  occ. eigenvalues --   -0.42381  -0.42240  -0.42199  -0.41783  -0.41524
 Alpha  occ. eigenvalues --   -0.41341  -0.40898  -0.40735  -0.40616  -0.40147
 Alpha  occ. eigenvalues --   -0.40013  -0.39644  -0.39507  -0.39122  -0.38672
 Alpha  occ. eigenvalues --   -0.38264  -0.38252  -0.38162  -0.38010  -0.37831
 Alpha  occ. eigenvalues --   -0.37532  -0.37412  -0.36319  -0.35880  -0.35343
 Alpha  occ. eigenvalues --   -0.34411  -0.33997  -0.33569  -0.32392  -0.32198
 Alpha  occ. eigenvalues --   -0.31331  -0.29899  -0.28115  -0.26394  -0.24067
 Alpha  occ. eigenvalues --   -0.18651
 Alpha virt. eigenvalues --   -0.06633  -0.00364   0.02857   0.04746   0.05669
 Alpha virt. eigenvalues --    0.08206   0.09242   0.10796   0.11228   0.11993
 Alpha virt. eigenvalues --    0.12170   0.12810   0.13171   0.13355   0.13495

 Mulliken charges:
               1
     1  O   -0.531815
     2  O   -0.573416
     3  C    0.028852
     4  C   -0.163045
     5  C   -0.185624
     6  C    0.122256
     7  C    0.179432
     8  C    0.015194
     9  C   -0.301345
    10  C   -0.277603
    11  C   -0.176589
    12  C   -0.139568
    13  C    0.150112
    14  C    0.054549
    15  C   -0.073695
    16  C   -0.046433
    17  C    0.039744
    18  C   -0.296617
    19  C   -0.296436
    20  C   -0.364352
    21  C   -0.103988
    22  C   -0.095364
    23  C   -0.371354
    24  C    0.125521
    25  C   -0.094961
    26  C   -0.363386
    27  C    0.063079
    28  C   -0.140615
    29  C   -0.360357
    30  C   -0.087944
    31  C   -0.078179
    32  C   -0.083154
    33  C   -0.122581
    34  C    0.117213
    35  C   -0.119136
    36  C    0.100284
    37  C   -0.391367
    38  C   -0.139926
    39  C   -0.095432
    40  C   -0.390930
    41  C   -0.090362
    42  C   -0.051215
    43  H    0.077082
    44  H    0.104999
    45  H    0.098204
    46  H    0.099489
    47  H    0.074708
    48  H    0.115527
    49  H    0.101950
    50  H    0.112354
    51  H    0.075358
    52  H    0.086434
    53  H    0.124719
    54  H    0.045931
    55  H    0.066211
    56  H    0.087967
    57  H    0.094574
    58  H   -0.001515
    59  H    0.106914
    60  H    0.091370
    61  H    0.102611
    62  H    0.059622
    63  H    0.077473
    64  H    0.130147
    65  H    0.087414
    66  H    0.110111
    67  H    0.120585
    68  H    0.088897
    69  H    0.285612
    70  H    0.077869
    71  H    0.072759
    72  H    0.096288
    73  H    0.121086
    74  H    0.090085
    75  H    0.306042
    76  H    0.073510
    77  H    0.092258
    78  H    0.114097
    79  H    0.126436
    80  H    0.077212
    81  H    0.110146
    82  H    0.131496
    83  H    0.080891
    84  H    0.071297
    85  H    0.081271
    86  H    0.079671
    87  H    0.089160
    88  H    0.062596
    89  H    0.135405
    90  H    0.106974
    91  H    0.112310
    92  H    0.079583
    93  H    0.083493
    94  H    0.139442
    95  H    0.073237
    96  H    0.137877
    97  H    0.077406
    98  H    0.085911
 Sum of Mulliken charges =  -0.00000

 Dipole moment (field-independent basis, Debye):
    X=             -0.3655    Y=             -1.5568    Z=              0.3533  Tot=              1.6377
 Quadrupole moment (field-independent basis, Debye-Ang):
   XX=           -263.4890   YY=           -240.8524   ZZ=           -262.7477
   XY=             18.9162   XZ=             32.3001   YZ=             -0.3346

 Normal termination of Gaussian 16 at Fri Jul 12 23:52:37 2019.
