 Gaussian 16, Revision A.03,
 Gaussian 16:  ES64L-G16RevA.03 25-Dec-2016

 -------------------------------------
 # td=(NStates=1) CAM-B3LYP/6-31G(d,p)
 -------------------------------------

 --
 TD
 --
 Symbolic Z-matrix:
 Charge =  0 Multiplicity = 1

                         Standard orientation:
 ---------------------------------------------------------------------
 Center     Atomic      Atomic             Coordinates (Angstroms)
 Number     Number       Type             X           Y           Z
 ---------------------------------------------------------------------
      1          8           0      -13.954718   -2.080052    0.602671
      2          8           0       14.768606    1.040798    0.359805
      3          6           0      -11.787248    0.169666    1.264263
      4          6           0      -11.012595    0.384646   -0.024185
      5          6           0      -11.880064   -1.435790    1.480873
      6          6           0      -12.540692   -2.142862    0.374814
      7          6           0      -11.578999   -0.411999   -1.207441
      8          6           0       11.118985    1.016778    1.101563
      9          6           0      -10.993905    0.691554    2.602860
     10          6           0      -13.211444    0.779645    1.205794
     11          6           0       12.521059    1.536999    0.908985
     12          6           0      -12.224867   -1.530370   -1.012594
     13          6           0       13.534469    0.502501    0.384052
     14          6           0       10.657880   -0.074307    0.063260
     15          6           0       -9.541468    0.080383    0.084134
     16          6           0       13.030414   -0.216501   -0.912324
     17          6           0       11.588258   -0.510358   -0.932953
     18          6           0       10.095502    2.198423    1.064520
     19          6           0       11.002407    0.464548    2.555452
     20          6           0      -11.308138    0.050689   -2.534974
     21          6           0       -8.577872    0.976798   -0.116679
     22          6           0        9.245974   -0.494844    0.008126
     23          6           0       11.120840   -1.365167   -2.033503
     24          6           0       -7.068385    0.636332   -0.080174
     25          6           0        8.779040   -1.735942   -0.075690
     26          6           0       -6.707553   -0.839431    0.319324
     27          6           0        7.425711   -2.119256   -0.094147
     28          6           0       -6.259464    1.560569   -0.559869
     29          6           0        7.086142   -3.663405   -0.090900
     30          6           0        6.352051   -1.254372   -0.160869
     31          6           0       -4.783212    1.370864   -0.562248
     32          6           0        4.991799   -1.607266   -0.186967
     33          6           0       -3.959488    2.534014   -0.761044
     34          6           0       -2.540707    2.606017   -0.821373
     35          6           0        3.951325   -0.656070   -0.230754
     36          6           0        2.570107   -0.920880   -0.206213
     37          6           0       -1.899304    3.761998   -1.155307
     38          6           0       -1.781070    1.444085   -0.522290
     39          6           0        1.799039    0.182823   -0.367485
     40          6           0        2.061205   -2.328839    0.158738
     41          6           0       -0.345239    1.388542   -0.706867
     42          6           0        0.433963    0.209507   -0.251553
     43          1           0      -11.164596    1.371762   -0.247440
     44          1           0      -12.616127   -1.420562    2.280461
     45          1           0      -10.963674   -1.866188    1.666805
     46          1           0      -12.205058   -3.166782    0.350435
     47          1           0      -10.175500   -0.016235    2.845683
     48          1           0      -10.745209    1.793640    2.439288
     49          1           0      -11.787190    0.568671    3.362790
     50          1           0      -13.708127    0.520127    0.361691
     51          1           0      -13.806418    0.577382    2.191191
     52          1           0      -13.039791    1.897695    1.106476
     53          1           0       12.488460    2.200036   -0.043311
     54          1           0       12.945886    2.087085    1.769517
     55          1           0      -12.675453   -2.061525   -1.692569
     56          1           0       13.490768   -0.241786    1.221517
     57          1           0       -9.257779   -1.015325    0.234040
     58          1           0       13.719522   -1.064738   -1.117245
     59          1           0       13.460943    0.674719   -1.629456
     60          1           0        9.234325    1.931302    1.535595
     61          1           0        9.960961    2.582825    0.035665
     62          1           0       10.582959    3.133444    1.495267
     63          1           0       11.763323   -0.224830    2.361149
     64          1           0       10.017940    0.188689    2.798741
     65          1           0       11.185632    1.172752    3.133449
     66          1           0      -10.200254    0.152569   -2.717464
     67          1           0      -11.624823    1.063998   -2.671997
     68          1           0      -11.601805   -0.713840   -3.439157
     69          1           0      -14.466602   -2.076151   -0.217083
     70          1           0        8.445861    0.492228    0.166168
     71          1           0       -8.684542    1.979076   -0.669625
     72          1           0       11.648871   -2.315756   -1.871086
     73          1           0       10.035410   -1.683845   -2.044101
     74          1           0       11.548974   -0.845264   -3.037606
     75          1           0       14.900316    1.332172    1.300754
     76          1           0        9.439931   -2.506219   -0.090446
     77          1           0       -5.719555   -0.957464    0.361027
     78          1           0       -7.152320   -1.099936    1.340611
     79          1           0       -7.297812   -1.471380   -0.403427
     80          1           0       -6.519321    2.571743   -0.483817
     81          1           0        6.313251   -3.878772    0.686906
     82          1           0        6.584577   -3.810101   -1.212503
     83          1           0        8.032903   -4.313052    0.087504
     84          1           0        6.822174   -0.170630   -0.491803
     85          1           0       -4.399057    0.409044   -0.303632
     86          1           0        4.953873   -2.585143    0.175053
     87          1           0       -4.534491    3.245497   -0.949691
     88          1           0        4.048038    0.504125   -0.377142
     89          1           0       -1.829776    3.649385   -2.513477
     90          1           0       -1.045645    4.214636   -0.497996
     91          1           0       -2.668059    4.647763   -1.101863
     92          1           0       -2.555461    0.692665   -0.064920
     93          1           0        2.196000    1.222534   -0.804668
     94          1           0        2.393579   -2.637733    1.090666
     95          1           0        1.021202   -2.297095    0.047151
     96          1           0        2.363335   -3.047163   -0.476077
     97          1           0        0.253050    2.174311   -1.086638
     98          1           0       -0.105484   -0.688666    0.300689
 ---------------------------------------------------------------------

 SCF Done:  E(RCAM-B3LYP) =  -1706.89079831     A.U. after   15 cycles

 Excitation energies and oscillator strengths:

 Excited State   1:      Singlet-A      1.9847 eV  624.70 nm  f=2.8238  <S**2>=0.000
     155 ->158         0.14196
     156 ->157         0.69633
     156 <-157        -0.10511
 This state for optimization and/or second-order correction.
 Total Energy, E(TD-HF/TD-DFT) =  -1706.81786149
 Copying the excited state density for this state as the 1-particle RhoCI density.

 The electronic state is 1-A.
 Alpha  occ. eigenvalues --  -19.22167 -19.20506 -10.30390 -10.29504 -10.28418
 Alpha  occ. eigenvalues --  -10.27811 -10.27808 -10.27804 -10.27486 -10.27348
 Alpha  occ. eigenvalues --  -10.27298 -10.27212 -10.27193 -10.27017 -10.27004
 Alpha  occ. eigenvalues --  -10.26962 -10.26933 -10.26895 -10.26842 -10.26837
 Alpha  occ. eigenvalues --  -10.26723 -10.26598 -10.26544 -10.26518 -10.26353
 Alpha  occ. eigenvalues --  -10.26090 -10.26050 -10.25854 -10.25739 -10.25627
 Alpha  occ. eigenvalues --  -10.25627 -10.25552 -10.25315 -10.25256 -10.25245
 Alpha  occ. eigenvalues --  -10.24843 -10.24228 -10.24008 -10.23813 -10.23348
 Alpha  occ. eigenvalues --  -10.23110 -10.21338  -1.12451  -1.08553  -0.93713
 Alpha  occ. eigenvalues --   -0.92967  -0.92410  -0.91848  -0.90453  -0.90151
 Alpha  occ. eigenvalues --   -0.87529  -0.86805  -0.86239  -0.85469  -0.84284
 Alpha  occ. eigenvalues --   -0.82794  -0.81827  -0.80749  -0.79589  -0.79008
 Alpha  occ. eigenvalues --   -0.77393  -0.76945  -0.76411  -0.76149  -0.75589
 Alpha  occ. eigenvalues --   -0.75481  -0.74967  -0.74758  -0.72118  -0.69876
 Alpha  occ. eigenvalues --   -0.68677  -0.67609  -0.67067  -0.64488  -0.63155
 Alpha  occ. eigenvalues --   -0.63044  -0.62938  -0.62275  -0.60453  -0.59599
 Alpha  occ. eigenvalues --   -0.59445  -0.58867  -0.58064  -0.57165  -0.56331
 Alpha  occ. eigenvalues --   -0.55989  -0.55546  -0.54644  -0.54186  -0.53817
 Alpha  occ. eigenvalues --   -0.53772  -0.53193  -0.52667  -0.52103  -0.51814
 Alpha  occ. eigenvalues --   -0.51699  -0.50869  -0.49871  -0.49780  -0.49482
 Alpha  occ. eigenvalues --   -0.48903  -0.48735  -0.48368  -0.47838  -0.47786
 Alpha  occ. eigenvalues --   -0.47453  -0.47169  -0.46957  -0.46486  -0.46391
 Alpha  occ. eigenvalues --   -0.46229  -0.46023  -0.45525  -0.45373  -0.45232
 Alpha  occ. eigenvalues --   -0.45121  -0.44772  -0.44635  -0.44207  -0.43778
 Alpha  occ. eigenvalues --   -0.43604  -0.43211  -0.42908  -0.42780  -0.42497
 Alpha  occ. eigenvalues --   -0.42235  -0.41687  -0.41601  -0.41044  -0.40998
 Alpha  occ. eigenvalues --   -0.40778  -0.39908  -0.39686  -0.39490  -0.39028
 Alpha  occ. eigenvalues --   -0.38696  -0.38535  -0.38097  -0.37969  -0.37123
 Alpha  occ. eigenvalues --   -0.36791  -0.36759  -0.36506  -0.35553  -0.35306
 Alpha  occ. eigenvalues --   -0.34952  -0.34558  -0.33534  -0.31623  -0.31080
 Alpha  occ. eigenvalues --   -0.30532  -0.29925  -0.28281  -0.26706  -0.23573
 Alpha  occ. eigenvalues --   -0.18707
 Alpha virt. eigenvalues --   -0.06206  -0.00722   0.02752   0.05408   0.06969
 Alpha virt. eigenvalues --    0.08133   0.09857   0.10848   0.11008   0.11923
 Alpha virt. eigenvalues --    0.12354   0.12512   0.12998   0.13590   0.13901

 Mulliken charges:
               1
     1  O   -0.561912
     2  O   -0.534981
     3  C   -0.000356
     4  C   -0.120726
     5  C   -0.184979
     6  C    0.164382
     7  C    0.144793
     8  C   -0.036692
     9  C   -0.298942
    10  C   -0.282211
    11  C   -0.200876
    12  C   -0.154545
    13  C    0.167129
    14  C    0.035142
    15  C   -0.074792
    16  C   -0.240316
    17  C    0.089117
    18  C   -0.307961
    19  C   -0.270715
    20  C   -0.370560
    21  C   -0.099239
    22  C   -0.120212
    23  C   -0.358579
    24  C    0.097647
    25  C   -0.078609
    26  C   -0.356192
    27  C    0.071647
    28  C   -0.152094
    29  C   -0.369306
    30  C   -0.099824
    31  C   -0.087572
    32  C   -0.116418
    33  C   -0.100170
    34  C    0.161061
    35  C   -0.104561
    36  C    0.107779
    37  C   -0.391717
    38  C   -0.100847
    39  C   -0.123849
    40  C   -0.359510
    41  C   -0.126386
    42  C   -0.090518
    43  H    0.081902
    44  H    0.114775
    45  H    0.090218
    46  H    0.078020
    47  H    0.104852
    48  H    0.096335
    49  H    0.099813
    50  H    0.115146
    51  H    0.097499
    52  H    0.075612
    53  H    0.086874
    54  H    0.078613
    55  H    0.062664
    56  H    0.052086
    57  H    0.086811
    58  H    0.119772
    59  H    0.098934
    60  H    0.110720
    61  H    0.099595
    62  H    0.087010
    63  H    0.100475
    64  H    0.102932
    65  H    0.100227
    66  H    0.117853
    67  H    0.115696
    68  H    0.094024
    69  H    0.302245
    70  H    0.076451
    71  H    0.083265
    72  H    0.110799
    73  H    0.122662
    74  H    0.094428
    75  H    0.317169
    76  H    0.084926
    77  H    0.115035
    78  H    0.117845
    79  H    0.124894
    80  H    0.096303
    81  H    0.124841
    82  H    0.109908
    83  H    0.099257
    84  H    0.062432
    85  H    0.083941
    86  H    0.081033
    87  H    0.052090
    88  H    0.082483
    89  H    0.084436
    90  H    0.127950
    91  H    0.098824
    92  H    0.074926
    93  H    0.082470
    94  H    0.130866
    95  H    0.107958
    96  H    0.132220
    97  H    0.101035
    98  H    0.086321
 Sum of Mulliken charges =  -0.00000

 Dipole moment (field-independent basis, Debye):
    X=             -1.1708    Y=             -0.0315    Z=             -0.0221  Tot=              1.1714
 Quadrupole moment (field-independent basis, Debye-Ang):
   XX=           -279.6121   YY=           -245.6943   ZZ=           -263.3639
   XY=             -4.3583   XZ=             39.1431   YZ=              2.1940

 Normal termination of Gaussian 16 at Sat Jul 13 22:48:45 2019.
