 Gaussian 16, Revision A.03,
 Gaussian 16:  ES64L-G16RevA.03 25-Dec-2016

 -------------------------------------
 # td=(NStates=1) CAM-B3LYP/6-31G(d,p)
 -------------------------------------

 --
 TD
 --
 Symbolic Z-matrix:
 Charge =  0 Multiplicity = 1

                         Standard orientation:
 ---------------------------------------------------------------------
 Center     Atomic      Atomic             Coordinates (Angstroms)
 Number     Number       Type             X           Y           Z
 ---------------------------------------------------------------------
      1          8           0      -14.082957   -2.052369    0.688530
      2          8           0       14.909805    0.922470    0.594174
      3          6           0      -11.660139    0.118952    1.397075
      4          6           0      -10.901786    0.399935    0.042926
      5          6           0      -11.972662   -1.378549    1.623578
      6          6           0      -12.648103   -2.077134    0.479546
      7          6           0      -11.650815   -0.360038   -1.146300
      8          6           0       11.034713    1.120131    1.090044
      9          6           0      -10.943091    0.824923    2.600280
     10          6           0      -12.973686    0.904078    1.252043
     11          6           0       12.541277    1.589172    0.892342
     12          6           0      -12.326159   -1.536631   -0.871437
     13          6           0       13.495677    0.503564    0.635637
     14          6           0       10.745239   -0.055829    0.069986
     15          6           0       -9.491366   -0.013934    0.163540
     16          6           0       13.086201   -0.117735   -0.691054
     17          6           0       11.696283   -0.507797   -0.733047
     18          6           0       10.063421    2.224518    0.804867
     19          6           0       10.683564    0.597691    2.598482
     20          6           0      -11.453347    0.100211   -2.497681
     21          6           0       -8.553335    0.868272   -0.225921
     22          6           0        9.293303   -0.479131    0.037570
     23          6           0       11.429833   -1.297277   -1.966841
     24          6           0       -7.092440    0.525884   -0.021681
     25          6           0        8.826796   -1.799638   -0.020189
     26          6           0       -6.716575   -0.899293    0.219101
     27          6           0        7.453793   -2.121663   -0.082891
     28          6           0       -6.211206    1.449709   -0.542304
     29          6           0        7.230172   -3.588285    0.198079
     30          6           0        6.361639   -1.258434   -0.341125
     31          6           0       -4.753279    1.397967   -0.498679
     32          6           0        4.961941   -1.647283   -0.242558
     33          6           0       -4.088084    2.452344   -0.833694
     34          6           0       -2.660322    2.528020   -0.915110
     35          6           0        3.924925   -0.685138   -0.397550
     36          6           0        2.548992   -0.982591   -0.430169
     37          6           0       -1.910541    3.853417   -1.101132
     38          6           0       -1.816780    1.331883   -0.706204
     39          6           0        1.752793    0.088038   -0.627487
     40          6           0        2.003203   -2.361289   -0.210204
     41          6           0       -0.465612    1.328810   -0.818488
     42          6           0        0.314311    0.185272   -0.703467
     43          1           0      -11.062081    1.373295   -0.064550
     44          1           0      -12.447185   -1.585943    2.406091
     45          1           0      -10.847582   -1.934887    1.882232
     46          1           0      -12.446479   -3.128128    0.602047
     47          1           0       -9.976952    0.501106    2.941020
     48          1           0      -10.891463    2.039937    2.535797
     49          1           0      -11.691110    0.834552    3.489962
     50          1           0      -13.594849    0.565394    0.326525
     51          1           0      -13.640274    0.724021    2.065438
     52          1           0      -12.778584    1.984992    1.035833
     53          1           0       12.430742    2.321691    0.211730
     54          1           0       12.925011    2.299025    1.773403
     55          1           0      -12.634166   -2.127034   -1.793996
     56          1           0       13.562201   -0.326248    1.468286
     57          1           0       -9.249854   -1.056116    0.293794
     58          1           0       13.954883   -0.957493   -0.827033
     59          1           0       13.263156    0.650202   -1.566729
     60          1           0        9.218214    2.032463    1.264178
     61          1           0        9.923567    2.381180   -0.293097
     62          1           0       10.354758    3.109861    1.304517
     63          1           0       11.162003   -0.262747    2.793697
     64          1           0        9.559116    0.464547    2.723313
     65          1           0       10.914307    1.287037    3.365484
     66          1           0      -10.396758    0.505995   -2.611314
     67          1           0      -11.848343    0.941437   -2.566356
     68          1           0      -11.817564   -0.674503   -3.174072
     69          1           0      -14.528144   -2.616925   -0.048105
     70          1           0        8.557167    0.239664    0.235315
     71          1           0       -8.816936    2.006135   -0.364401
     72          1           0       11.814273   -2.403284   -2.093736
     73          1           0       10.434402   -1.458442   -2.003024
     74          1           0       11.764999   -0.758104   -2.837691
     75          1           0       15.019539    1.576782    1.334573
     76          1           0        9.636138   -2.667654   -0.389923
     77          1           0       -5.603257   -0.747865    0.520050
     78          1           0       -7.412506   -1.271433    1.114421
     79          1           0       -6.970500   -1.587197   -0.727125
     80          1           0       -6.523042    2.392708   -0.982902
     81          1           0        6.789649   -4.033814    1.197377
     82          1           0        6.456782   -3.930925   -0.681709
     83          1           0        8.180193   -4.236215    0.177608
     84          1           0        6.545878   -0.274637   -0.441976
     85          1           0       -4.295741    0.477296   -0.561973
     86          1           0        4.703398   -2.798652   -0.228535
     87          1           0       -4.455071    3.424432   -1.126922
     88          1           0        4.293399    0.340612   -0.632964
     89          1           0       -1.193915    4.046874   -1.933714
     90          1           0       -1.290351    4.223497    0.033432
     91          1           0       -2.536643    4.834160   -1.230127
     92          1           0       -2.206511    0.428031   -0.379747
     93          1           0        2.307020    0.977894   -0.916457
     94          1           0        2.180755   -2.751560    0.856437
     95          1           0        1.029996   -2.287396   -0.371692
     96          1           0        2.636398   -2.894596   -0.750002
     97          1           0        0.109054    2.223573   -0.940150
     98          1           0       -0.138405   -0.748137   -0.553468
 ---------------------------------------------------------------------

 SCF Done:  E(RCAM-B3LYP) =  -1706.92100255     A.U. after   15 cycles

 Excitation energies and oscillator strengths:

 Excited State   1:      Singlet-A      2.1348 eV  580.79 nm  f=2.9049  <S**2>=0.000
     155 ->158         0.15679
     156 ->157         0.69095
 This state for optimization and/or second-order correction.
 Total Energy, E(TD-HF/TD-DFT) =  -1706.84255176
 Copying the excited state density for this state as the 1-particle RhoCI density.

 The electronic state is 1-A.
 Alpha  occ. eigenvalues --  -19.20702 -19.20576 -10.30888 -10.30141 -10.29033
 Alpha  occ. eigenvalues --  -10.28727 -10.28581 -10.28100 -10.27894 -10.27776
 Alpha  occ. eigenvalues --  -10.27727 -10.27464 -10.27050 -10.26981 -10.26979
 Alpha  occ. eigenvalues --  -10.26957 -10.26888 -10.26881 -10.26684 -10.26609
 Alpha  occ. eigenvalues --  -10.26508 -10.26326 -10.26222 -10.26100 -10.26051
 Alpha  occ. eigenvalues --  -10.25948 -10.25858 -10.25795 -10.25755 -10.25644
 Alpha  occ. eigenvalues --  -10.25605 -10.25341 -10.25290 -10.25271 -10.25138
 Alpha  occ. eigenvalues --  -10.25090 -10.24322 -10.24024 -10.23969 -10.23729
 Alpha  occ. eigenvalues --  -10.23519 -10.23340  -1.07118  -1.07047  -0.93939
 Alpha  occ. eigenvalues --   -0.93075  -0.92618  -0.91941  -0.90385  -0.89590
 Alpha  occ. eigenvalues --   -0.87717  -0.87673  -0.86991  -0.85295  -0.84583
 Alpha  occ. eigenvalues --   -0.83317  -0.82318  -0.81019  -0.80076  -0.79266
 Alpha  occ. eigenvalues --   -0.76919  -0.76885  -0.76625  -0.76069  -0.75737
 Alpha  occ. eigenvalues --   -0.75336  -0.74393  -0.73669  -0.72679  -0.69809
 Alpha  occ. eigenvalues --   -0.68958  -0.67863  -0.66344  -0.65332  -0.64200
 Alpha  occ. eigenvalues --   -0.63423  -0.62573  -0.62410  -0.61297  -0.60183
 Alpha  occ. eigenvalues --   -0.59000  -0.58222  -0.57601  -0.57458  -0.56440
 Alpha  occ. eigenvalues --   -0.55952  -0.55461  -0.55124  -0.54322  -0.53880
 Alpha  occ. eigenvalues --   -0.53317  -0.52970  -0.52345  -0.52127  -0.51816
 Alpha  occ. eigenvalues --   -0.51223  -0.50306  -0.49545  -0.49202  -0.48898
 Alpha  occ. eigenvalues --   -0.48825  -0.48700  -0.48613  -0.47804  -0.47684
 Alpha  occ. eigenvalues --   -0.47567  -0.47061  -0.46706  -0.46520  -0.46403
 Alpha  occ. eigenvalues --   -0.46191  -0.45639  -0.45500  -0.45413  -0.45343
 Alpha  occ. eigenvalues --   -0.44918  -0.44658  -0.44201  -0.43905  -0.43306
 Alpha  occ. eigenvalues --   -0.43220  -0.42985  -0.42794  -0.42283  -0.42093
 Alpha  occ. eigenvalues --   -0.41951  -0.41724  -0.41092  -0.40760  -0.40575
 Alpha  occ. eigenvalues --   -0.40479  -0.40221  -0.40132  -0.39861  -0.39541
 Alpha  occ. eigenvalues --   -0.39406  -0.39076  -0.38797  -0.38402  -0.37587
 Alpha  occ. eigenvalues --   -0.37164  -0.36507  -0.36322  -0.36195  -0.35210
 Alpha  occ. eigenvalues --   -0.35067  -0.34281  -0.33528  -0.32133  -0.31950
 Alpha  occ. eigenvalues --   -0.31719  -0.29113  -0.28254  -0.27109  -0.23922
 Alpha  occ. eigenvalues --   -0.19592
 Alpha virt. eigenvalues --   -0.06101  -0.01451   0.02678   0.05142   0.06547
 Alpha virt. eigenvalues --    0.08685   0.09863   0.10875   0.11651   0.11954
 Alpha virt. eigenvalues --    0.12306   0.12849   0.12980   0.13254   0.13775

 Mulliken charges:
               1
     1  O   -0.567887
     2  O   -0.583258
     3  C    0.016858
     4  C   -0.110490
     5  C   -0.137005
     6  C    0.144897
     7  C    0.096342
     8  C   -0.019655
     9  C   -0.305734
    10  C   -0.309889
    11  C   -0.199863
    12  C   -0.137068
    13  C    0.183643
    14  C    0.066287
    15  C   -0.057927
    16  C   -0.226178
    17  C    0.065228
    18  C   -0.308956
    19  C   -0.314019
    20  C   -0.344441
    21  C   -0.093976
    22  C   -0.119174
    23  C   -0.353613
    24  C    0.057633
    25  C   -0.117111
    26  C   -0.349955
    27  C    0.103937
    28  C   -0.107454
    29  C   -0.363842
    30  C   -0.100703
    31  C   -0.075244
    32  C   -0.106743
    33  C   -0.083385
    34  C    0.061649
    35  C   -0.121398
    36  C    0.111501
    37  C   -0.364237
    38  C   -0.109471
    39  C   -0.130104
    40  C   -0.333789
    41  C   -0.052042
    42  C   -0.108767
    43  H    0.080370
    44  H    0.113222
    45  H    0.045664
    46  H    0.086205
    47  H    0.109905
    48  H    0.075860
    49  H    0.089459
    50  H    0.106055
    51  H    0.107517
    52  H    0.085613
    53  H    0.118725
    54  H    0.051902
    55  H    0.058582
    56  H    0.080612
    57  H    0.096798
    58  H    0.102709
    59  H    0.107136
    60  H    0.115217
    61  H    0.102899
    62  H    0.103112
    63  H    0.118108
    64  H    0.094706
    65  H    0.102412
    66  H    0.106283
    67  H    0.131647
    68  H    0.110260
    69  H    0.303862
    70  H    0.091227
    71  H    0.080512
    72  H    0.091507
    73  H    0.117843
    74  H    0.113298
    75  H    0.303158
    76  H    0.087260
    77  H    0.107811
    78  H    0.100107
    79  H    0.123323
    80  H    0.081030
    81  H    0.111795
    82  H    0.092939
    83  H    0.103673
    84  H    0.072287
    85  H    0.100950
    86  H    0.082210
    87  H    0.082692
    88  H    0.088601
    89  H    0.131325
    90  H    0.076229
    91  H    0.098557
    92  H    0.082314
    93  H    0.070580
    94  H    0.112903
    95  H    0.112990
    96  H    0.130111
    97  H    0.085288
    98  H    0.068039
 Sum of Mulliken charges =  -0.00000

 Dipole moment (field-independent basis, Debye):
    X=             -0.4710    Y=              0.4119    Z=             -0.8251  Tot=              1.0356
 Quadrupole moment (field-independent basis, Debye-Ang):
   XX=           -309.8192   YY=           -239.4645   ZZ=           -261.1646
   XY=             17.3897   XZ=             31.8753   YZ=              0.7059

 Normal termination of Gaussian 16 at Fri Jul 12 19:08:21 2019.
