 Gaussian 16, Revision A.03,
 Gaussian 16:  ES64L-G16RevA.03 25-Dec-2016

 -------------------------------------
 # td=(NStates=1) CAM-B3LYP/6-31G(d,p)
 -------------------------------------

 --
 TD
 --
 Symbolic Z-matrix:
 Charge =  0 Multiplicity = 1

                         Standard orientation:
 ---------------------------------------------------------------------
 Center     Atomic      Atomic             Coordinates (Angstroms)
 Number     Number       Type             X           Y           Z
 ---------------------------------------------------------------------
      1          8           0      -14.060670   -1.974784    0.696424
      2          8           0       14.933217    0.776578    0.484741
      3          6           0      -11.810944    0.117435    1.316250
      4          6           0      -11.082906    0.341871    0.000376
      5          6           0      -12.074699   -1.431678    1.520934
      6          6           0      -12.727340   -2.051947    0.353287
      7          6           0      -11.622799   -0.544536   -1.059431
      8          6           0       11.053863    1.005233    1.118830
      9          6           0      -11.087212    0.694610    2.593107
     10          6           0      -13.140366    0.913113    1.180356
     11          6           0       12.484775    1.546726    0.993639
     12          6           0      -12.373352   -1.566835   -0.923106
     13          6           0       13.571710    0.379809    0.556240
     14          6           0       10.742970   -0.017535    0.007302
     15          6           0       -9.578556    0.078032    0.081642
     16          6           0       12.957837   -0.161104   -0.938799
     17          6           0       11.609475   -0.546944   -0.863659
     18          6           0       10.200399    2.316352    1.006265
     19          6           0       10.867703    0.429882    2.530456
     20          6           0      -11.283976    0.096491   -2.465484
     21          6           0       -8.491779    0.847254   -0.259301
     22          6           0        9.332326   -0.490827    0.021044
     23          6           0       11.198236   -1.352417   -2.107668
     24          6           0       -7.098455    0.470542   -0.259901
     25          6           0        8.818443   -1.718789   -0.256591
     26          6           0       -6.754672   -0.936937    0.224724
     27          6           0        7.428625   -2.092018   -0.116727
     28          6           0       -6.146820    1.374962   -0.527360
     29          6           0        7.110507   -3.440083    0.355869
     30          6           0        6.389592   -1.205354   -0.335500
     31          6           0       -4.761817    1.272464   -0.558591
     32          6           0        5.048242   -1.560010   -0.219102
     33          6           0       -4.027252    2.446153   -0.681851
     34          6           0       -2.579561    2.491338   -0.699605
     35          6           0        4.072436   -0.548176   -0.662738
     36          6           0        2.687041   -0.765421   -0.328869
     37          6           0       -1.976012    3.874567   -1.050143
     38          6           0       -1.736139    1.421244   -0.633235
     39          6           0        1.786941    0.215004   -0.486380
     40          6           0        2.167179   -2.059055    0.040737
     41          6           0       -0.424388    1.366725   -0.684629
     42          6           0        0.372203    0.208654   -0.515827
     43          1           0      -11.117326    1.370038   -0.209690
     44          1           0      -12.664857   -1.557395    2.347868
     45          1           0      -11.116642   -1.853940    1.870592
     46          1           0      -12.450133   -3.104390    0.337549
     47          1           0      -10.060684    0.274984    2.776067
     48          1           0      -10.710635    1.699121    2.222985
     49          1           0      -11.761040    0.627846    3.626183
     50          1           0      -13.563703    0.556137    0.406159
     51          1           0      -13.749431    0.792294    1.926979
     52          1           0      -12.932107    1.935873    0.696652
     53          1           0       12.659927    2.397549    0.341706
     54          1           0       12.964256    1.826041    2.225745
     55          1           0      -12.781810   -1.981521   -1.694588
     56          1           0       13.456093   -0.338870    1.217160
     57          1           0       -9.421048   -0.984344    0.527798
     58          1           0       13.483819   -1.118102   -0.854988
     59          1           0       13.363839    0.431230   -1.714236
     60          1           0        9.242968    2.081771    1.353552
     61          1           0       10.458564    2.704965   -0.051236
     62          1           0       10.515611    3.008950    1.763216
     63          1           0       11.441481   -0.592509    2.771468
     64          1           0        9.682561    0.288637    2.570331
     65          1           0       11.411441    1.115372    3.291477
     66          1           0      -10.230963    0.249732   -2.416675
     67          1           0      -11.654581    1.092102   -2.536869
     68          1           0      -11.712311   -0.479607   -3.411055
     69          1           0      -14.646153   -2.146999   -0.046690
     70          1           0        8.653091    0.072981    0.339793
     71          1           0       -8.721071    1.849825   -0.530099
     72          1           0       11.589651   -2.314682   -1.757635
     73          1           0       10.060990   -1.458367   -2.480306
     74          1           0       11.822544   -1.021227   -2.999576
     75          1           0       15.242111    1.264298    1.294117
     76          1           0        9.566748   -2.556380   -0.308481
     77          1           0       -5.736954   -1.155495    0.423656
     78          1           0       -7.151565   -1.234299    1.162155
     79          1           0       -7.146730   -1.562399   -0.353294
     80          1           0       -6.504055    2.206485   -0.683650
     81          1           0        6.584454   -3.480842    1.361403
     82          1           0        6.624308   -4.050080   -0.713254
     83          1           0        8.045008   -4.180703    0.594700
     84          1           0        6.473067   -0.064125   -0.813839
     85          1           0       -4.250435    0.247416   -0.456209
     86          1           0        4.698555   -2.559265    0.198231
     87          1           0       -4.539257    3.390182   -0.768677
     88          1           0        4.471240    0.558020   -0.913991
     89          1           0       -1.549034    4.074530   -1.917527
     90          1           0       -1.324591    4.182712   -0.249123
     91          1           0       -2.810852    4.761814   -1.079642
     92          1           0       -2.262556    0.398113   -0.618257
     93          1           0        2.180183    1.145939   -0.869316
     94          1           0        2.182880   -2.153553    1.167859
     95          1           0        1.163095   -2.224324   -0.234339
     96          1           0        2.740133   -3.058956   -0.471945
     97          1           0        0.196211    2.312486   -0.504958
     98          1           0       -0.113427   -0.612175   -0.203921
 ---------------------------------------------------------------------

 SCF Done:  E(RCAM-B3LYP) =  -1706.83823268     A.U. after   15 cycles

 Excitation energies and oscillator strengths:

 Excited State   1:      Singlet-A      2.0332 eV  609.81 nm  f=3.1561  <S**2>=0.000
     155 ->158         0.14387
     156 ->157         0.69533
 This state for optimization and/or second-order correction.
 Total Energy, E(TD-HF/TD-DFT) =  -1706.76351567
 Copying the excited state density for this state as the 1-particle RhoCI density.

 The electronic state is 1-A.
 Alpha  occ. eigenvalues --  -19.21617 -19.20865 -10.30503 -10.28943 -10.28809
 Alpha  occ. eigenvalues --  -10.28004 -10.27816 -10.27362 -10.27277 -10.27269
 Alpha  occ. eigenvalues --  -10.27266 -10.27241 -10.27025 -10.26805 -10.26777
 Alpha  occ. eigenvalues --  -10.26601 -10.26539 -10.26492 -10.26445 -10.26440
 Alpha  occ. eigenvalues --  -10.26407 -10.26354 -10.26245 -10.26136 -10.26132
 Alpha  occ. eigenvalues --  -10.25991 -10.25978 -10.25895 -10.25724 -10.25528
 Alpha  occ. eigenvalues --  -10.25348 -10.25274 -10.25269 -10.25091 -10.24967
 Alpha  occ. eigenvalues --  -10.24699 -10.24330 -10.23418 -10.23179 -10.22725
 Alpha  occ. eigenvalues --  -10.22678 -10.20967  -1.11080  -1.08396  -0.94510
 Alpha  occ. eigenvalues --   -0.93660  -0.92461  -0.91942  -0.90988  -0.90250
 Alpha  occ. eigenvalues --   -0.88029  -0.87187  -0.86728  -0.85545  -0.84849
 Alpha  occ. eigenvalues --   -0.83319  -0.81733  -0.80607  -0.79140  -0.78526
 Alpha  occ. eigenvalues --   -0.78029  -0.77078  -0.76179  -0.75946  -0.75262
 Alpha  occ. eigenvalues --   -0.75114  -0.75070  -0.74119  -0.72563  -0.70502
 Alpha  occ. eigenvalues --   -0.69347  -0.68714  -0.66976  -0.65743  -0.63739
 Alpha  occ. eigenvalues --   -0.63534  -0.63447  -0.62373  -0.61210  -0.60311
 Alpha  occ. eigenvalues --   -0.59411  -0.59113  -0.58903  -0.58609  -0.57108
 Alpha  occ. eigenvalues --   -0.55730  -0.55543  -0.55229  -0.54263  -0.53701
 Alpha  occ. eigenvalues --   -0.53650  -0.52992  -0.52304  -0.52015  -0.51534
 Alpha  occ. eigenvalues --   -0.51243  -0.50536  -0.50046  -0.49970  -0.49371
 Alpha  occ. eigenvalues --   -0.49035  -0.48697  -0.48600  -0.48344  -0.48007
 Alpha  occ. eigenvalues --   -0.47729  -0.47504  -0.46678  -0.46495  -0.46337
 Alpha  occ. eigenvalues --   -0.45603  -0.45394  -0.45038  -0.44764  -0.44314
 Alpha  occ. eigenvalues --   -0.44159  -0.44073  -0.43564  -0.43528  -0.43451
 Alpha  occ. eigenvalues --   -0.43298  -0.43130  -0.42669  -0.42324  -0.41950
 Alpha  occ. eigenvalues --   -0.41467  -0.41355  -0.41034  -0.40653  -0.40603
 Alpha  occ. eigenvalues --   -0.40282  -0.40019  -0.39687  -0.39556  -0.39440
 Alpha  occ. eigenvalues --   -0.39373  -0.38959  -0.38841  -0.38053  -0.37908
 Alpha  occ. eigenvalues --   -0.37401  -0.37153  -0.36701  -0.35847  -0.35247
 Alpha  occ. eigenvalues --   -0.35008  -0.34020  -0.33031  -0.32497  -0.32197
 Alpha  occ. eigenvalues --   -0.30822  -0.30037  -0.29026  -0.26817  -0.23514
 Alpha  occ. eigenvalues --   -0.18803
 Alpha virt. eigenvalues --   -0.06083  -0.01091   0.02999   0.05721   0.07458
 Alpha virt. eigenvalues --    0.09743   0.09943   0.11197   0.11743   0.12441
 Alpha virt. eigenvalues --    0.12780   0.13116   0.13496   0.13804   0.14115

 Mulliken charges:
               1
     1  O   -0.541395
     2  O   -0.573668
     3  C    0.005114
     4  C   -0.152716
     5  C   -0.179885
     6  C    0.149378
     7  C    0.134814
     8  C   -0.028890
     9  C   -0.296902
    10  C   -0.258595
    11  C   -0.187257
    12  C   -0.103114
    13  C    0.179791
    14  C    0.102877
    15  C   -0.093046
    16  C   -0.261425
    17  C    0.036453
    18  C   -0.290868
    19  C   -0.277446
    20  C   -0.359792
    21  C   -0.114297
    22  C   -0.073440
    23  C   -0.343026
    24  C    0.102998
    25  C   -0.119520
    26  C   -0.370711
    27  C    0.081788
    28  C   -0.073223
    29  C   -0.364125
    30  C   -0.106810
    31  C   -0.060862
    32  C   -0.082203
    33  C   -0.122872
    34  C    0.072858
    35  C   -0.148798
    36  C    0.159098
    37  C   -0.373877
    38  C   -0.089628
    39  C   -0.142643
    40  C   -0.384139
    41  C   -0.086423
    42  C   -0.082666
    43  H    0.094797
    44  H    0.118909
    45  H    0.085023
    46  H    0.068693
    47  H    0.093364
    48  H    0.090799
    49  H    0.085933
    50  H    0.106209
    51  H    0.103069
    52  H    0.067980
    53  H    0.103198
    54  H    0.005064
    55  H    0.062152
    56  H    0.090227
    57  H    0.076315
    58  H    0.118276
    59  H    0.131254
    60  H    0.102632
    61  H    0.105802
    62  H    0.111990
    63  H    0.088994
    64  H    0.091430
    65  H    0.099357
    66  H    0.125321
    67  H    0.116512
    68  H    0.088812
    69  H    0.295649
    70  H    0.057456
    71  H    0.076366
    72  H    0.119329
    73  H    0.119818
    74  H    0.104468
    75  H    0.313580
    76  H    0.078925
    77  H    0.103876
    78  H    0.118010
    79  H    0.130289
    80  H    0.038739
    81  H    0.132533
    82  H    0.089493
    83  H    0.094349
    84  H    0.079059
    85  H    0.091495
    86  H    0.109352
    87  H    0.092033
    88  H    0.088218
    89  H    0.141394
    90  H    0.123206
    91  H    0.070898
    92  H    0.067390
    93  H    0.068123
    94  H    0.121161
    95  H    0.125040
    96  H    0.082653
    97  H    0.081161
    98  H    0.072919
 Sum of Mulliken charges =  -0.00000

 Dipole moment (field-independent basis, Debye):
    X=              0.1301    Y=             -0.5376    Z=              0.1368  Tot=              0.5698
 Quadrupole moment (field-independent basis, Debye-Ang):
   XX=           -254.5547   YY=           -245.6481   ZZ=           -261.5842
   XY=              6.8253   XZ=             37.0879   YZ=             -1.3331

 Normal termination of Gaussian 16 at Sat Jul 13 07:24:37 2019.
