 Gaussian 16, Revision A.03,
 Gaussian 16:  ES64L-G16RevA.03 25-Dec-2016

 -------------------------------------
 # td=(NStates=1) CAM-B3LYP/6-31G(d,p)
 -------------------------------------

 --
 TD
 --
 Symbolic Z-matrix:
 Charge =  0 Multiplicity = 1

                         Standard orientation:
 ---------------------------------------------------------------------
 Center     Atomic      Atomic             Coordinates (Angstroms)
 Number     Number       Type             X           Y           Z
 ---------------------------------------------------------------------
      1          8           0      -14.226692   -2.026949    0.407077
      2          8           0       14.767254    1.073825   -0.014789
      3          6           0      -11.731347    0.116111    1.349342
      4          6           0      -10.932820    0.421926    0.036365
      5          6           0      -12.005198   -1.388515    1.418964
      6          6           0      -12.781950   -1.983434    0.193012
      7          6           0      -11.702535   -0.158438   -1.175735
      8          6           0       11.098722    1.122956    0.958092
      9          6           0      -10.871548    0.505295    2.492115
     10          6           0      -13.018962    0.943364    1.390000
     11          6           0       12.459729    1.763892    0.572723
     12          6           0      -12.403219   -1.272772   -1.131088
     13          6           0       13.438478    0.588379    0.383418
     14          6           0       10.596835    0.023154   -0.015680
     15          6           0       -9.567759   -0.102466   -0.108832
     16          6           0       13.081295   -0.272503   -0.769831
     17          6           0       11.579805   -0.633875   -0.803661
     18          6           0       10.072688    2.338080    1.051181
     19          6           0       11.132780    0.574141    2.392978
     20          6           0      -11.488136    0.535815   -2.480746
     21          6           0       -8.442135    0.759760   -0.213943
     22          6           0        9.235554   -0.380115    0.147199
     23          6           0       11.159096   -1.549937   -1.897055
     24          6           0       -7.050756    0.334694   -0.225306
     25          6           0        8.828460   -1.724538   -0.059976
     26          6           0       -6.858113   -1.075828    0.052653
     27          6           0        7.440794   -2.185633    0.007983
     28          6           0       -6.114192    1.384550   -0.413276
     29          6           0        7.220562   -3.661254    0.158981
     30          6           0        6.416795   -1.194849   -0.196223
     31          6           0       -4.761529    1.308808   -0.249890
     32          6           0        5.035598   -1.532206   -0.052491
     33          6           0       -4.039184    2.405792   -0.680475
     34          6           0       -2.578436    2.459748   -0.728567
     35          6           0        4.033369   -0.626910   -0.289509
     36          6           0        2.688136   -0.925869   -0.128714
     37          6           0       -1.929246    3.770981   -0.879793
     38          6           0       -1.764140    1.338686   -0.575995
     39          6           0        1.816904    0.119599   -0.412741
     40          6           0        2.212899   -2.260362    0.208922
     41          6           0       -0.380466    1.225834   -0.611677
     42          6           0        0.441922    0.118742   -0.268164
     43          1           0      -10.858106    1.505815   -0.020203
     44          1           0      -12.535363   -1.697822    2.334890
     45          1           0      -11.021111   -1.977968    1.705195
     46          1           0      -12.447733   -3.048971   -0.172511
     47          1           0      -10.066772   -0.095667    2.679295
     48          1           0      -10.715774    1.474168    2.554308
     49          1           0      -11.609146    0.384139    3.428621
     50          1           0      -13.665713    0.787485    0.584198
     51          1           0      -13.759250    0.686112    2.233645
     52          1           0      -12.688657    1.969643    1.355688
     53          1           0       12.466230    2.078381   -0.561808
     54          1           0       12.850027    2.331613    1.410011
     55          1           0      -13.040252   -1.662377   -2.020958
     56          1           0       13.302650    0.068679    1.462525
     57          1           0       -9.250244   -1.382995    0.017852
     58          1           0       13.644294   -1.232649   -0.925258
     59          1           0       13.319680    0.108847   -1.857997
     60          1           0        9.134547    2.117965    1.351592
     61          1           0        9.827853    2.853732   -0.016701
     62          1           0       10.668304    3.119303    1.390515
     63          1           0       11.603654   -0.574535    2.312009
     64          1           0        9.932189    0.233790    2.628338
     65          1           0       11.626922    1.293793    3.169002
     66          1           0      -10.478328    0.835632   -2.597987
     67          1           0      -11.866362    1.639766   -2.605127
     68          1           0      -11.924906   -0.224382   -3.129691
     69          1           0      -14.559843   -2.052583   -0.577196
     70          1           0        8.565842    0.372695    0.391438
     71          1           0       -8.691048    1.905600   -0.048106
     72          1           0       11.733688   -2.543149   -1.826680
     73          1           0       10.076875   -1.526892   -2.048159
     74          1           0       11.738905   -1.175476   -2.872584
     75          1           0       15.165009    1.570278    0.737015
     76          1           0        9.659477   -2.469800    0.114683
     77          1           0       -5.790587   -1.335186    0.299087
     78          1           0       -7.393576   -1.604942    1.082899
     79          1           0       -7.368006   -1.643685   -0.713111
     80          1           0       -6.630851    2.357946   -0.689867
     81          1           0        6.713488   -3.798396    1.111069
     82          1           0        6.458374   -4.010719   -0.500154
     83          1           0        8.066508   -4.367225   -0.079611
     84          1           0        6.602238   -0.010354   -0.302054
     85          1           0       -4.355678    0.437102    0.266025
     86          1           0        4.825833   -2.484357    0.305543
     87          1           0       -4.450923    3.392075   -0.863264
     88          1           0        4.256366    0.473515   -0.387034
     89          1           0       -1.247199    3.747506   -1.669273
     90          1           0       -1.289755    4.024465    0.073761
     91          1           0       -2.788777    4.562241   -1.047501
     92          1           0       -2.076798    0.268303   -0.598175
     93          1           0        2.201805    1.127050   -0.750050
     94          1           0        2.919145   -2.425746    1.074055
     95          1           0        1.081958   -2.340143    0.661680
     96          1           0        2.344220   -2.930039   -0.643751
     97          1           0        0.133116    1.983377   -0.849406
     98          1           0       -0.085445   -0.854789   -0.166373
 ---------------------------------------------------------------------

 SCF Done:  E(RCAM-B3LYP) =  -1706.93448278     A.U. after   16 cycles

 Excitation energies and oscillator strengths:

 Excited State   1:      Singlet-A      1.8681 eV  663.69 nm  f=3.2255  <S**2>=0.000
     155 ->158        -0.16245
     156 ->157         0.69001
 This state for optimization and/or second-order correction.
 Total Energy, E(TD-HF/TD-DFT) =  -1706.86583127
 Copying the excited state density for this state as the 1-particle RhoCI density.

 The electronic state is 1-A.
 Alpha  occ. eigenvalues --  -19.21787 -19.21428 -10.31626 -10.31421 -10.28414
 Alpha  occ. eigenvalues --  -10.28335 -10.28229 -10.27765 -10.27572 -10.27463
 Alpha  occ. eigenvalues --  -10.27389 -10.27388 -10.27261 -10.27177 -10.27040
 Alpha  occ. eigenvalues --  -10.27035 -10.26792 -10.26765 -10.26763 -10.26739
 Alpha  occ. eigenvalues --  -10.26626 -10.26588 -10.26518 -10.26469 -10.26464
 Alpha  occ. eigenvalues --  -10.26392 -10.26226 -10.26092 -10.26057 -10.26049
 Alpha  occ. eigenvalues --  -10.26028 -10.26001 -10.25963 -10.25945 -10.25750
 Alpha  occ. eigenvalues --  -10.25647 -10.25614 -10.25026 -10.24761 -10.24332
 Alpha  occ. eigenvalues --  -10.23575 -10.22617  -1.07810  -1.07126  -0.93722
 Alpha  occ. eigenvalues --   -0.93169  -0.92842  -0.92021  -0.90426  -0.89693
 Alpha  occ. eigenvalues --   -0.87647  -0.87380  -0.86573  -0.85580  -0.84801
 Alpha  occ. eigenvalues --   -0.82951  -0.82370  -0.80083  -0.79960  -0.78962
 Alpha  occ. eigenvalues --   -0.76473  -0.76450  -0.76319  -0.75707  -0.75562
 Alpha  occ. eigenvalues --   -0.75108  -0.74840  -0.74282  -0.72170  -0.69930
 Alpha  occ. eigenvalues --   -0.68779  -0.67222  -0.66324  -0.64734  -0.63036
 Alpha  occ. eigenvalues --   -0.62900  -0.62306  -0.61540  -0.61278  -0.60036
 Alpha  occ. eigenvalues --   -0.58631  -0.57831  -0.57534  -0.57173  -0.56108
 Alpha  occ. eigenvalues --   -0.55743  -0.55177  -0.54925  -0.54007  -0.53513
 Alpha  occ. eigenvalues --   -0.52952  -0.52642  -0.52328  -0.52007  -0.51395
 Alpha  occ. eigenvalues --   -0.50990  -0.50748  -0.50032  -0.49854  -0.49539
 Alpha  occ. eigenvalues --   -0.48877  -0.48649  -0.48566  -0.48101  -0.47843
 Alpha  occ. eigenvalues --   -0.47554  -0.46998  -0.46721  -0.46546  -0.46246
 Alpha  occ. eigenvalues --   -0.45810  -0.45389  -0.45230  -0.45110  -0.44927
 Alpha  occ. eigenvalues --   -0.44484  -0.44235  -0.43870  -0.43528  -0.43379
 Alpha  occ. eigenvalues --   -0.43246  -0.43069  -0.42643  -0.42335  -0.42015
 Alpha  occ. eigenvalues --   -0.41582  -0.41208  -0.40975  -0.40492  -0.40409
 Alpha  occ. eigenvalues --   -0.40187  -0.40022  -0.39688  -0.39652  -0.39408
 Alpha  occ. eigenvalues --   -0.38939  -0.38760  -0.38401  -0.38184  -0.37576
 Alpha  occ. eigenvalues --   -0.37342  -0.37216  -0.36996  -0.36944  -0.36411
 Alpha  occ. eigenvalues --   -0.35510  -0.34742  -0.33070  -0.31958  -0.31199
 Alpha  occ. eigenvalues --   -0.30951  -0.29236  -0.28805  -0.25823  -0.22701
 Alpha  occ. eigenvalues --   -0.18616
 Alpha virt. eigenvalues --   -0.06626  -0.02110   0.01766   0.05389   0.06904
 Alpha virt. eigenvalues --    0.08635   0.10268   0.10538   0.11088   0.11535
 Alpha virt. eigenvalues --    0.12230   0.12484   0.12716   0.12940   0.13292

 Mulliken charges:
               1
     1  O   -0.550421
     2  O   -0.567854
     3  C    0.022363
     4  C   -0.142372
     5  C   -0.193262
     6  C    0.161259
     7  C    0.139401
     8  C   -0.027309
     9  C   -0.279218
    10  C   -0.298923
    11  C   -0.183199
    12  C   -0.180994
    13  C    0.154053
    14  C    0.066242
    15  C   -0.061269
    16  C   -0.212720
    17  C    0.054161
    18  C   -0.295129
    19  C   -0.277308
    20  C   -0.351903
    21  C   -0.129371
    22  C   -0.094295
    23  C   -0.361505
    24  C    0.126920
    25  C   -0.152555
    26  C   -0.380582
    27  C    0.070098
    28  C   -0.113739
    29  C   -0.387489
    30  C   -0.110770
    31  C   -0.061927
    32  C   -0.100643
    33  C   -0.112639
    34  C    0.080126
    35  C   -0.100352
    36  C    0.117272
    37  C   -0.372050
    38  C   -0.102089
    39  C   -0.125726
    40  C   -0.366744
    41  C   -0.075015
    42  C   -0.090732
    43  H    0.089740
    44  H    0.112273
    45  H    0.081017
    46  H    0.070523
    47  H    0.112207
    48  H    0.102491
    49  H    0.067205
    50  H    0.119284
    51  H    0.102442
    52  H    0.090549
    53  H    0.110145
    54  H    0.087987
    55  H    0.064640
    56  H    0.071554
    57  H    0.067965
    58  H    0.115210
    59  H    0.115791
    60  H    0.110822
    61  H    0.067899
    62  H    0.109856
    63  H    0.089447
    64  H    0.083232
    65  H    0.098882
    66  H    0.124496
    67  H    0.094995
    68  H    0.107319
    69  H    0.305698
    70  H    0.084102
    71  H    0.077323
    72  H    0.103414
    73  H    0.139424
    74  H    0.079979
    75  H    0.301261
    76  H    0.102145
    77  H    0.102788
    78  H    0.085651
    79  H    0.142014
    80  H    0.085316
    81  H    0.131007
    82  H    0.130914
    83  H    0.120934
    84  H    0.083855
    85  H    0.108957
    86  H    0.079711
    87  H    0.085611
    88  H    0.084283
    89  H    0.136990
    90  H    0.118614
    91  H    0.091351
    92  H    0.071498
    93  H    0.076131
    94  H    0.117386
    95  H    0.100819
    96  H    0.136943
    97  H    0.045809
    98  H    0.070310
 Sum of Mulliken charges =  -0.00000

 Dipole moment (field-independent basis, Debye):
    X=              1.8481    Y=              0.2801    Z=              0.3424  Tot=              1.9003
 Quadrupole moment (field-independent basis, Debye-Ang):
   XX=           -294.2634   YY=           -244.3254   ZZ=           -265.3065
   XY=             -9.6061   XZ=             36.8890   YZ=              3.5166

 Normal termination of Gaussian 16 at Tue Jul 16 11:54:10 2019.
