 Gaussian 16, Revision A.03,
 Gaussian 16:  ES64L-G16RevA.03 25-Dec-2016

 -------------------------------------
 # td=(NStates=1) CAM-B3LYP/6-31G(d,p)
 -------------------------------------

 --
 TD
 --
 Symbolic Z-matrix:
 Charge =  0 Multiplicity = 1

                         Standard orientation:
 ---------------------------------------------------------------------
 Center     Atomic      Atomic             Coordinates (Angstroms)
 Number     Number       Type             X           Y           Z
 ---------------------------------------------------------------------
      1          8           0      -14.195331   -1.802575    0.535215
      2          8           0       14.828341    0.778733    0.306865
      3          6           0      -11.758374    0.165863    1.276246
      4          6           0      -10.947335    0.301482   -0.011421
      5          6           0      -12.030275   -1.332602    1.454802
      6          6           0      -12.791083   -2.037925    0.269361
      7          6           0      -11.519263   -0.464678   -1.181774
      8          6           0       11.011730    1.003963    1.140778
      9          6           0      -10.926297    0.727446    2.520111
     10          6           0      -13.090919    0.953525    1.167168
     11          6           0       12.549185    1.525359    0.846691
     12          6           0      -12.311771   -1.452530   -1.075013
     13          6           0       13.477763    0.379026    0.395461
     14          6           0       10.544950   -0.017191   -0.067138
     15          6           0       -9.428708   -0.111222    0.127402
     16          6           0       12.951209   -0.150168   -1.001805
     17          6           0       11.520166   -0.500967   -0.894979
     18          6           0       10.130242    2.214055    1.256512
     19          6           0       10.986663    0.335395    2.409829
     20          6           0      -11.122418   -0.081615   -2.566123
     21          6           0       -8.367837    0.727514   -0.176693
     22          6           0        9.158756   -0.333812    0.111536
     23          6           0       11.105138   -1.251735   -2.239327
     24          6           0       -7.050216    0.392799   -0.070241
     25          6           0        8.860342   -1.665252   -0.176629
     26          6           0       -6.632660   -0.970063    0.428687
     27          6           0        7.448593   -2.075793   -0.155126
     28          6           0       -6.203170    1.414305   -0.395269
     29          6           0        7.157999   -3.531569    0.067031
     30          6           0        6.347890   -1.222512   -0.245683
     31          6           0       -4.820014    1.393815   -0.380769
     32          6           0        4.981404   -1.547833   -0.064626
     33          6           0       -3.988602    2.475104   -0.816919
     34          6           0       -2.548319    2.509976   -0.798647
     35          6           0        4.001546   -0.535293   -0.322451
     36          6           0        2.646182   -0.754977   -0.019833
     37          6           0       -1.951036    3.788404   -1.157150
     38          6           0       -1.755587    1.328283   -0.621820
     39          6           0        1.718803    0.247724   -0.302217
     40          6           0        2.095440   -2.072396    0.342359
     41          6           0       -0.410974    1.385541   -0.630452
     42          6           0        0.336433    0.316957   -0.197203
     43          1           0      -10.888978    1.382286   -0.343140
     44          1           0      -12.654484   -1.434831    2.256525
     45          1           0      -11.158874   -1.973742    1.608173
     46          1           0      -12.463285   -3.187530    0.290756
     47          1           0      -10.008666    0.344292    2.695403
     48          1           0      -10.833954    1.613316    2.164773
     49          1           0      -11.608237    0.811902    3.323889
     50          1           0      -13.525591    0.654292    0.214501
     51          1           0      -13.625915    0.716548    2.094063
     52          1           0      -12.936825    2.025691    1.123535
     53          1           0       12.315817    2.125827   -0.040845
     54          1           0       12.816163    2.086399    1.831918
     55          1           0      -12.533565   -2.193256   -1.931743
     56          1           0       13.399296   -0.613822    1.291471
     57          1           0       -9.324453   -1.224807    0.302566
     58          1           0       13.659634   -0.751554   -1.362533
     59          1           0       13.078096    0.704435   -1.728350
     60          1           0        8.965110    2.059533    1.528499
     61          1           0        9.741256    2.449784    0.224741
     62          1           0       10.653968    3.017811    1.873476
     63          1           0       11.586440   -0.497989    2.383555
     64          1           0        9.974447   -0.396838    2.623228
     65          1           0       11.231665    1.049388    3.142902
     66          1           0       -9.988887   -0.072953   -2.654809
     67          1           0      -11.535309    0.988758   -2.871297
     68          1           0      -11.449036   -0.647879   -3.507223
     69          1           0      -14.732671   -1.708838   -0.302685
     70          1           0        8.495560    0.316094    0.577351
     71          1           0       -8.777779    1.713893   -0.578731
     72          1           0       11.587395   -2.285932   -2.187345
     73          1           0       10.130247   -1.193981   -2.376593
     74          1           0       11.374240   -0.768087   -3.073113
     75          1           0       15.086927    1.218247    1.029177
     76          1           0        9.729440   -2.160928   -0.432672
     77          1           0       -5.571181   -1.052271    0.583144
     78          1           0       -7.121463   -1.227226    1.363897
     79          1           0       -6.733051   -1.893019   -0.230318
     80          1           0       -6.611627    2.380936   -0.649943
     81          1           0        6.765373   -3.813572    1.019781
     82          1           0        6.529024   -4.051460   -0.629846
     83          1           0        8.093444   -4.081634    0.089991
     84          1           0        6.646696   -0.101830   -0.649879
     85          1           0       -4.345630    0.471865   -0.194951
     86          1           0        4.677514   -2.464880    0.355366
     87          1           0       -4.352850    3.318777   -1.137840
     88          1           0        4.326918    0.370303   -0.711001
     89          1           0       -1.174558    3.708757   -1.921580
     90          1           0       -1.301657    4.103239   -0.372867
     91          1           0       -2.686238    4.248525   -1.584937
     92          1           0       -2.150050    0.218967   -0.223437
     93          1           0        2.305475    1.163794   -0.754669
     94          1           0        2.393961   -2.352310    1.306738
     95          1           0        0.983754   -2.225831    0.264946
     96          1           0        2.303313   -3.022025   -0.345271
     97          1           0        0.087643    2.196312   -1.055650
     98          1           0       -0.161536   -0.728619    0.084267
 ---------------------------------------------------------------------

 SCF Done:  E(RCAM-B3LYP) =  -1706.93142741     A.U. after   15 cycles

 Excitation energies and oscillator strengths:

 Excited State   1:      Singlet-A      1.8341 eV  676.00 nm  f=3.1229  <S**2>=0.000
     155 ->158         0.14124
     156 ->157         0.69805
     156 <-157        -0.11208
 This state for optimization and/or second-order correction.
 Total Energy, E(TD-HF/TD-DFT) =  -1706.86402624
 Copying the excited state density for this state as the 1-particle RhoCI density.

 The electronic state is 1-A.
 Alpha  occ. eigenvalues --  -19.21092 -19.20760 -10.32875 -10.31215 -10.27691
 Alpha  occ. eigenvalues --  -10.27364 -10.27279 -10.27154 -10.27017 -10.27007
 Alpha  occ. eigenvalues --  -10.26988 -10.26975 -10.26959 -10.26869 -10.26713
 Alpha  occ. eigenvalues --  -10.26653 -10.26553 -10.26539 -10.26467 -10.26418
 Alpha  occ. eigenvalues --  -10.26377 -10.26372 -10.26361 -10.26318 -10.26270
 Alpha  occ. eigenvalues --  -10.26228 -10.26039 -10.26022 -10.25921 -10.25904
 Alpha  occ. eigenvalues --  -10.25732 -10.25641 -10.25508 -10.25437 -10.24793
 Alpha  occ. eigenvalues --  -10.24344 -10.23971 -10.23537 -10.23313 -10.23265
 Alpha  occ. eigenvalues --  -10.23222 -10.21400  -1.11240  -1.07361  -0.93696
 Alpha  occ. eigenvalues --   -0.93070  -0.92914  -0.92133  -0.91351  -0.89698
 Alpha  occ. eigenvalues --   -0.87837  -0.87360  -0.87251  -0.85627  -0.85031
 Alpha  occ. eigenvalues --   -0.82556  -0.82162  -0.80210  -0.80074  -0.78919
 Alpha  occ. eigenvalues --   -0.77864  -0.76765  -0.76264  -0.76014  -0.75801
 Alpha  occ. eigenvalues --   -0.75796  -0.75252  -0.74921  -0.72535  -0.71003
 Alpha  occ. eigenvalues --   -0.69529  -0.67431  -0.66994  -0.65869  -0.63278
 Alpha  occ. eigenvalues --   -0.63225  -0.62540  -0.61839  -0.61340  -0.60707
 Alpha  occ. eigenvalues --   -0.60226  -0.58475  -0.57607  -0.57174  -0.56808
 Alpha  occ. eigenvalues --   -0.56405  -0.55299  -0.54876  -0.54320  -0.53717
 Alpha  occ. eigenvalues --   -0.53306  -0.53024  -0.52588  -0.52143  -0.51622
 Alpha  occ. eigenvalues --   -0.51321  -0.51210  -0.50130  -0.49595  -0.49351
 Alpha  occ. eigenvalues --   -0.48889  -0.48635  -0.48433  -0.48240  -0.47935
 Alpha  occ. eigenvalues --   -0.47477  -0.47302  -0.47109  -0.47033  -0.46400
 Alpha  occ. eigenvalues --   -0.46209  -0.46092  -0.45652  -0.45530  -0.45019
 Alpha  occ. eigenvalues --   -0.44916  -0.44448  -0.44345  -0.44099  -0.43791
 Alpha  occ. eigenvalues --   -0.43545  -0.43090  -0.42848  -0.42594  -0.42222
 Alpha  occ. eigenvalues --   -0.41827  -0.41630  -0.41567  -0.41208  -0.41043
 Alpha  occ. eigenvalues --   -0.41034  -0.40878  -0.40404  -0.39831  -0.39519
 Alpha  occ. eigenvalues --   -0.38998  -0.38836  -0.38623  -0.38344  -0.37653
 Alpha  occ. eigenvalues --   -0.36988  -0.36845  -0.36417  -0.35497  -0.34895
 Alpha  occ. eigenvalues --   -0.34178  -0.33726  -0.32815  -0.32105  -0.31440
 Alpha  occ. eigenvalues --   -0.31377  -0.30566  -0.29078  -0.26561  -0.23240
 Alpha  occ. eigenvalues --   -0.18525
 Alpha virt. eigenvalues --   -0.06996  -0.01762   0.02231   0.05655   0.07277
 Alpha virt. eigenvalues --    0.09442   0.10949   0.11632   0.12456   0.12668
 Alpha virt. eigenvalues --    0.13222   0.13294   0.13861   0.14047   0.14258

 Mulliken charges:
               1
     1  O   -0.556334
     2  O   -0.541091
     3  C   -0.006662
     4  C   -0.143988
     5  C   -0.165663
     6  C    0.146644
     7  C    0.170842
     8  C   -0.019025
     9  C   -0.292659
    10  C   -0.286947
    11  C   -0.205042
    12  C   -0.179048
    13  C    0.202620
    14  C    0.035806
    15  C   -0.109709
    16  C   -0.217562
    17  C    0.005626
    18  C   -0.310898
    19  C   -0.252065
    20  C   -0.363084
    21  C   -0.103413
    22  C   -0.075888
    23  C   -0.354708
    24  C    0.141102
    25  C   -0.111247
    26  C   -0.382633
    27  C    0.069358
    28  C   -0.111724
    29  C   -0.389134
    30  C   -0.116111
    31  C   -0.067159
    32  C   -0.086796
    33  C   -0.109140
    34  C    0.056058
    35  C   -0.106441
    36  C    0.133317
    37  C   -0.366043
    38  C   -0.107979
    39  C   -0.134511
    40  C   -0.386582
    41  C   -0.043298
    42  C   -0.097022
    43  H    0.074623
    44  H    0.110424
    45  H    0.083830
    46  H    0.061503
    47  H    0.108464
    48  H    0.108787
    49  H    0.095211
    50  H    0.105119
    51  H    0.108003
    52  H    0.089435
    53  H    0.113700
    54  H    0.071835
    55  H    0.079795
    56  H    0.018443
    57  H    0.088165
    58  H    0.124939
    59  H    0.115298
    60  H    0.086051
    61  H    0.098805
    62  H    0.102766
    63  H    0.108056
    64  H    0.065541
    65  H    0.091132
    66  H    0.112599
    67  H    0.092187
    68  H    0.108356
    69  H    0.307035
    70  H    0.096429
    71  H    0.088244
    72  H    0.102893
    73  H    0.122514
    74  H    0.113003
    75  H    0.294549
    76  H    0.108268
    77  H    0.113490
    78  H    0.129633
    79  H    0.117503
    80  H    0.083019
    81  H    0.122378
    82  H    0.120673
    83  H    0.103983
    84  H    0.064479
    85  H    0.079100
    86  H    0.094998
    87  H    0.062020
    88  H    0.085239
    89  H    0.120784
    90  H    0.141893
    91  H    0.112541
    92  H    0.072754
    93  H    0.060863
    94  H    0.129302
    95  H    0.106053
    96  H    0.101359
    97  H    0.085150
    98  H    0.075017
 Sum of Mulliken charges =  -0.00000

 Dipole moment (field-independent basis, Debye):
    X=             -0.5278    Y=              0.7024    Z=             -1.2555  Tot=              1.5325
 Quadrupole moment (field-independent basis, Debye-Ang):
   XX=           -296.1987   YY=           -245.1004   ZZ=           -260.5732
   XY=              2.3163   XZ=             30.0960   YZ=             -0.8298

 Normal termination of Gaussian 16 at Sat Jul 13 19:52:52 2019.
