 Gaussian 16, Revision A.03,
 Gaussian 16:  ES64L-G16RevA.03 25-Dec-2016

 -------------------------------------
 # td=(NStates=1) CAM-B3LYP/6-31G(d,p)
 -------------------------------------

 --
 TD
 --
 Symbolic Z-matrix:
 Charge =  0 Multiplicity = 1

                         Standard orientation:
 ---------------------------------------------------------------------
 Center     Atomic      Atomic             Coordinates (Angstroms)
 Number     Number       Type             X           Y           Z
 ---------------------------------------------------------------------
      1          8           0      -14.116370   -1.930728    0.558594
      2          8           0       14.768848    1.132154    0.100025
      3          6           0      -11.792046    0.069932    1.416230
      4          6           0      -10.925156    0.328208    0.103001
      5          6           0      -11.960935   -1.422936    1.453746
      6          6           0      -12.590604   -2.008503    0.223299
      7          6           0      -11.607542   -0.263454   -1.182322
      8          6           0       11.112188    1.050755    1.065773
      9          6           0      -11.046483    0.510863    2.595055
     10          6           0      -13.122029    0.712666    1.304425
     11          6           0       12.468516    1.624889    0.809097
     12          6           0      -12.396204   -1.364039   -1.038277
     13          6           0       13.414556    0.576922    0.458675
     14          6           0       10.666394   -0.043625    0.100899
     15          6           0       -9.439585    0.070923    0.211570
     16          6           0       13.039486   -0.146048   -0.785494
     17          6           0       11.476013   -0.592950   -0.768956
     18          6           0       10.013869    2.144894    1.050534
     19          6           0       11.130659    0.384770    2.530940
     20          6           0      -11.168705    0.138924   -2.535178
     21          6           0       -8.415608    0.874129   -0.105219
     22          6           0        9.239127   -0.506944    0.146162
     23          6           0       11.217997   -1.522131   -1.880012
     24          6           0       -7.076324    0.461576   -0.084241
     25          6           0        8.814004   -1.745687    0.053951
     26          6           0       -6.696735   -0.914373    0.128616
     27          6           0        7.396587   -2.159586   -0.025111
     28          6           0       -6.226090    1.488759   -0.420632
     29          6           0        7.092074   -3.647932    0.127112
     30          6           0        6.423278   -1.263545   -0.159377
     31          6           0       -4.779769    1.416733   -0.446884
     32          6           0        4.991077   -1.507617   -0.113320
     33          6           0       -3.984921    2.556971   -0.743198
     34          6           0       -2.594656    2.532506   -0.733067
     35          6           0        3.986690   -0.597281   -0.259225
     36          6           0        2.587886   -0.855401   -0.439092
     37          6           0       -1.989496    3.891163   -1.097143
     38          6           0       -1.749848    1.456112   -0.582372
     39          6           0        1.724170    0.165380   -0.482454
     40          6           0        2.163137   -2.284940   -0.340919
     41          6           0       -0.361678    1.364930   -0.752125
     42          6           0        0.349775    0.196978   -0.706677
     43          1           0      -11.065366    1.404362    0.069014
     44          1           0      -12.617945   -1.914843    2.283237
     45          1           0      -11.017769   -1.988230    1.615700
     46          1           0      -12.558814   -2.956118    0.178056
     47          1           0      -10.140173    0.077508    2.821269
     48          1           0      -10.797152    1.645838    2.617962
     49          1           0      -11.645784    0.326512    3.536055
     50          1           0      -13.731728    0.269243    0.576421
     51          1           0      -13.680556    0.420698    2.136177
     52          1           0      -13.002103    1.846479    1.221066
     53          1           0       12.514030    2.459539    0.081637
     54          1           0       12.617408    2.074177    1.663964
     55          1           0      -12.721400   -2.091018   -1.737407
     56          1           0       13.515122   -0.220704    1.310355
     57          1           0       -9.165494   -0.890955    0.485378
     58          1           0       13.531848   -1.104481   -1.008903
     59          1           0       13.265605    0.541686   -1.522723
     60          1           0        9.197396    1.670047    1.628530
     61          1           0        9.681647    2.651454   -0.039006
     62          1           0       10.310028    3.004997    1.748438
     63          1           0       11.948380   -0.366528    2.539808
     64          1           0       10.104035   -0.077128    2.673743
     65          1           0       11.276947    1.140011    3.328293
     66          1           0       -9.987209    0.083362   -2.607041
     67          1           0      -11.320349    1.188798   -2.615341
     68          1           0      -11.795997   -0.374195   -3.246308
     69          1           0      -14.492186   -2.118790   -0.433123
     70          1           0        8.489470    0.211381    0.327775
     71          1           0       -8.725370    1.865701   -0.393319
     72          1           0       11.680966   -2.556362   -1.818117
     73          1           0       10.134849   -1.789330   -2.060127
     74          1           0       11.742670   -0.974502   -2.721347
     75          1           0       15.176559    1.589151    0.838411
     76          1           0        9.626576   -2.429466    0.114005
     77          1           0       -5.582311   -1.064021    0.067715
     78          1           0       -6.911950   -1.055881    1.184128
     79          1           0       -7.148673   -1.568282   -0.445645
     80          1           0       -6.504347    2.474776   -0.549793
     81          1           0        6.548690   -3.716035    1.030684
     82          1           0        6.461401   -4.095901   -0.739066
     83          1           0        7.894713   -4.196385    0.238188
     84          1           0        6.676608   -0.097330   -0.159616
     85          1           0       -4.325757    0.561119   -0.333158
     86          1           0        4.729042   -2.648900    0.028749
     87          1           0       -4.607725    3.379736   -0.951760
     88          1           0        4.099480    0.533675   -0.250036
     89          1           0       -1.357701    3.750828   -2.011682
     90          1           0       -1.200078    4.174545   -0.453115
     91          1           0       -2.796561    4.839339   -0.976650
     92          1           0       -2.307011    0.534714   -0.271756
     93          1           0        2.228611    1.166312   -0.657528
     94          1           0        2.367148   -2.461271    0.903736
     95          1           0        1.040817   -2.409170   -0.785669
     96          1           0        2.764429   -2.824616   -0.902657
     97          1           0        0.325096    2.264340   -0.738550
     98          1           0       -0.260305   -0.803236   -0.674733
 ---------------------------------------------------------------------

 SCF Done:  E(RCAM-B3LYP) =  -1707.00858498     A.U. after   15 cycles

 Excitation energies and oscillator strengths:

 Excited State   1:      Singlet-A      2.3089 eV  536.97 nm  f=2.8859  <S**2>=0.000
     155 ->158         0.14260
     156 ->157         0.69244
 This state for optimization and/or second-order correction.
 Total Energy, E(TD-HF/TD-DFT) =  -1706.92373285
 Copying the excited state density for this state as the 1-particle RhoCI density.

 The electronic state is 1-A.
 Alpha  occ. eigenvalues --  -19.20297 -19.20167 -10.30786 -10.28092 -10.27939
 Alpha  occ. eigenvalues --  -10.27694 -10.27255 -10.27237 -10.27230 -10.27151
 Alpha  occ. eigenvalues --  -10.26919 -10.26826 -10.26802 -10.26759 -10.26741
 Alpha  occ. eigenvalues --  -10.26500 -10.26411 -10.26266 -10.26140 -10.26129
 Alpha  occ. eigenvalues --  -10.26107 -10.26038 -10.26029 -10.25823 -10.25818
 Alpha  occ. eigenvalues --  -10.25782 -10.25688 -10.25643 -10.25613 -10.25597
 Alpha  occ. eigenvalues --  -10.25384 -10.25278 -10.25237 -10.25059 -10.24834
 Alpha  occ. eigenvalues --  -10.24802 -10.24745 -10.24726 -10.24456 -10.23750
 Alpha  occ. eigenvalues --  -10.23562 -10.21774  -1.06701  -1.04056  -0.94177
 Alpha  occ. eigenvalues --   -0.94091  -0.92848  -0.92325  -0.91245  -0.90626
 Alpha  occ. eigenvalues --   -0.87943  -0.87688  -0.87091  -0.85698  -0.85225
 Alpha  occ. eigenvalues --   -0.83585  -0.82451  -0.81812  -0.80898  -0.78662
 Alpha  occ. eigenvalues --   -0.77914  -0.76821  -0.76535  -0.76440  -0.76077
 Alpha  occ. eigenvalues --   -0.75675  -0.75648  -0.75128  -0.73712  -0.70933
 Alpha  occ. eigenvalues --   -0.68910  -0.68016  -0.66602  -0.65067  -0.64166
 Alpha  occ. eigenvalues --   -0.63770  -0.63381  -0.62581  -0.61295  -0.60256
 Alpha  occ. eigenvalues --   -0.58838  -0.58604  -0.57847  -0.56980  -0.56235
 Alpha  occ. eigenvalues --   -0.56078  -0.55110  -0.55029  -0.54413  -0.54274
 Alpha  occ. eigenvalues --   -0.53837  -0.52748  -0.52477  -0.52273  -0.51947
 Alpha  occ. eigenvalues --   -0.51472  -0.50280  -0.50028  -0.49692  -0.49610
 Alpha  occ. eigenvalues --   -0.49247  -0.48692  -0.48501  -0.48319  -0.48060
 Alpha  occ. eigenvalues --   -0.47538  -0.47361  -0.47159  -0.46790  -0.46441
 Alpha  occ. eigenvalues --   -0.45915  -0.45798  -0.45329  -0.45264  -0.45013
 Alpha  occ. eigenvalues --   -0.44657  -0.44202  -0.44160  -0.44029  -0.43564
 Alpha  occ. eigenvalues --   -0.42814  -0.42763  -0.42516  -0.42411  -0.42329
 Alpha  occ. eigenvalues --   -0.42061  -0.41819  -0.41418  -0.41286  -0.40749
 Alpha  occ. eigenvalues --   -0.40698  -0.40615  -0.40201  -0.39620  -0.39328
 Alpha  occ. eigenvalues --   -0.38950  -0.38870  -0.38414  -0.38383  -0.38042
 Alpha  occ. eigenvalues --   -0.37564  -0.37273  -0.37023  -0.36645  -0.36178
 Alpha  occ. eigenvalues --   -0.35492  -0.34711  -0.34166  -0.32515  -0.31963
 Alpha  occ. eigenvalues --   -0.31566  -0.29617  -0.29168  -0.27319  -0.24202
 Alpha  occ. eigenvalues --   -0.19918
 Alpha virt. eigenvalues --   -0.05483  -0.00708   0.03096   0.04594   0.07170
 Alpha virt. eigenvalues --    0.09497   0.11383   0.11679   0.12137   0.12639
 Alpha virt. eigenvalues --    0.13077   0.13355   0.13677   0.13900   0.14265

 Mulliken charges:
               1
     1  O   -0.576298
     2  O   -0.585256
     3  C    0.023406
     4  C   -0.143650
     5  C   -0.182154
     6  C    0.131361
     7  C    0.095208
     8  C   -0.050903
     9  C   -0.299676
    10  C   -0.284064
    11  C   -0.148543
    12  C   -0.113230
    13  C    0.141921
    14  C    0.098649
    15  C   -0.096086
    16  C   -0.201891
    17  C    0.018142
    18  C   -0.296970
    19  C   -0.313523
    20  C   -0.356219
    21  C   -0.070168
    22  C   -0.095384
    23  C   -0.365959
    24  C    0.111559
    25  C   -0.123616
    26  C   -0.371172
    27  C    0.081230
    28  C   -0.124355
    29  C   -0.363795
    30  C   -0.111599
    31  C   -0.048113
    32  C   -0.123246
    33  C   -0.129417
    34  C    0.117214
    35  C   -0.099525
    36  C    0.116703
    37  C   -0.380858
    38  C   -0.129426
    39  C   -0.139024
    40  C   -0.338442
    41  C   -0.088961
    42  C   -0.072896
    43  H    0.086735
    44  H    0.105030
    45  H    0.083036
    46  H    0.094120
    47  H    0.109054
    48  H    0.078798
    49  H    0.092840
    50  H    0.127642
    51  H    0.109017
    52  H    0.073174
    53  H    0.102381
    54  H    0.095674
    55  H    0.082028
    56  H    0.071532
    57  H    0.071434
    58  H    0.109155
    59  H    0.128707
    60  H    0.106498
    61  H    0.092898
    62  H    0.084976
    63  H    0.108498
    64  H    0.107548
    65  H    0.100126
    66  H    0.116805
    67  H    0.118043
    68  H    0.117322
    69  H    0.280890
    70  H    0.078825
    71  H    0.079967
    72  H    0.107650
    73  H    0.118802
    74  H    0.112286
    75  H    0.298389
    76  H    0.085201
    77  H    0.108699
    78  H    0.131788
    79  H    0.138540
    80  H    0.075236
    81  H    0.133023
    82  H    0.111445
    83  H    0.115153
    84  H    0.075136
    85  H    0.059138
    86  H    0.080937
    87  H    0.084305
    88  H    0.075701
    89  H    0.125394
    90  H    0.125809
    91  H    0.088061
    92  H    0.074227
    93  H    0.070046
    94  H    0.101392
    95  H    0.088205
    96  H    0.133355
    97  H    0.083108
    98  H    0.075249
 Sum of Mulliken charges =  -0.00000

 Dipole moment (field-independent basis, Debye):
    X=              1.0000    Y=             -0.7515    Z=              0.0496  Tot=              1.2519
 Quadrupole moment (field-independent basis, Debye-Ang):
   XX=           -302.8525   YY=           -242.7203   ZZ=           -261.9902
   XY=              5.0964   XZ=             45.4002   YZ=              4.7238

 Normal termination of Gaussian 16 at Mon Jul 15 01:25:05 2019.
