 Gaussian 16, Revision A.03,
 Gaussian 16:  ES64L-G16RevA.03 25-Dec-2016

 -------------------------------------
 # td=(NStates=1) CAM-B3LYP/6-31G(d,p)
 -------------------------------------

 --
 TD
 --
 Symbolic Z-matrix:
 Charge =  0 Multiplicity = 1

                         Standard orientation:
 ---------------------------------------------------------------------
 Center     Atomic      Atomic             Coordinates (Angstroms)
 Number     Number       Type             X           Y           Z
 ---------------------------------------------------------------------
      1          8           0      -14.073723   -2.098382    0.458306
      2          8           0       14.889969    0.915756    0.177688
      3          6           0      -11.925344    0.054850    1.321293
      4          6           0      -11.049071    0.331038    0.086519
      5          6           0      -11.989428   -1.444950    1.480483
      6          6           0      -12.665652   -2.182246    0.361373
      7          6           0      -11.555023   -0.424786   -1.159587
      8          6           0       11.118042    0.921633    1.203659
      9          6           0      -11.053286    0.463405    2.583504
     10          6           0      -13.214842    0.711252    1.212146
     11          6           0       12.625802    1.526069    0.847329
     12          6           0      -12.161738   -1.632701   -0.978978
     13          6           0       13.613592    0.441002    0.516394
     14          6           0       10.722302   -0.082546    0.036666
     15          6           0       -9.562828   -0.011155    0.092947
     16          6           0       13.092781   -0.355701   -0.759972
     17          6           0       11.623414   -0.511350   -0.792773
     18          6           0       10.165718    2.074212    1.111632
     19          6           0       11.123994    0.246590    2.543133
     20          6           0      -11.232468    0.098841   -2.546366
     21          6           0       -8.536983    0.936782   -0.153522
     22          6           0        9.206327   -0.424271    0.056317
     23          6           0       11.228540   -1.512448   -1.988559
     24          6           0       -7.192823    0.635866   -0.132543
     25          6           0        8.826652   -1.604655   -0.129011
     26          6           0       -6.713515   -0.795300    0.245230
     27          6           0        7.351351   -1.984375   -0.170251
     28          6           0       -6.247329    1.582345   -0.242607
     29          6           0        7.141284   -3.526265   -0.020043
     30          6           0        6.344339   -1.211250   -0.292684
     31          6           0       -4.864495    1.573955   -0.374532
     32          6           0        4.964100   -1.530403   -0.155890
     33          6           0       -4.023025    2.616512   -0.597777
     34          6           0       -2.632618    2.615700   -0.742893
     35          6           0        4.015373   -0.665803   -0.329840
     36          6           0        2.595454   -0.786883   -0.290005
     37          6           0       -1.974333    3.908705   -1.131657
     38          6           0       -1.913007    1.521737   -0.640586
     39          6           0        1.736005    0.328273   -0.457814
     40          6           0        2.214794   -2.145263   -0.060254
     41          6           0       -0.444045    1.470719   -0.646398
     42          6           0        0.324032    0.414114   -0.484880
     43          1           0      -11.193998    1.518983    0.134382
     44          1           0      -12.587753   -1.845374    2.435862
     45          1           0      -11.055803   -1.856676    1.584627
     46          1           0      -12.520818   -3.263629    0.286987
     47          1           0      -10.037264   -0.068990    2.565610
     48          1           0      -11.053590    1.669198    2.625863
     49          1           0      -11.586531    0.136007    3.594358
     50          1           0      -13.529962    0.506493    0.192330
     51          1           0      -14.097564    0.284074    1.909601
     52          1           0      -12.971370    1.856122    1.294099
     53          1           0       12.544449    2.334052    0.162111
     54          1           0       13.098442    2.233232    1.669414
     55          1           0      -12.497515   -2.107550   -1.876376
     56          1           0       13.746468   -0.340720    1.250064
     57          1           0       -9.361569   -0.981810    0.355913
     58          1           0       13.748605   -1.203130   -0.898962
     59          1           0       13.372129    0.290869   -1.711485
     60          1           0        9.261853    1.924590    1.824725
     61          1           0        9.936682    2.605680    0.146982
     62          1           0       10.696469    2.898723    1.757710
     63          1           0       11.983644   -0.460720    2.579172
     64          1           0       10.150149   -0.256831    2.739919
     65          1           0       11.254170    0.909799    3.304193
     66          1           0      -10.053018    0.130531   -2.558557
     67          1           0      -11.827285    0.928495   -2.707014
     68          1           0      -11.564163   -0.595133   -3.315201
     69          1           0      -14.242359   -2.596242   -0.527748
     70          1           0        8.686073    0.496204    0.279717
     71          1           0       -8.751120    1.849609   -0.626733
     72          1           0       11.353350   -2.582707   -1.782174
     73          1           0       10.120520   -1.135066   -2.357876
     74          1           0       11.866168   -0.997856   -2.837078
     75          1           0       15.317515    1.438103    0.707954
     76          1           0        9.529942   -2.457921   -0.352355
     77          1           0       -5.565143   -0.809673    0.531098
     78          1           0       -7.414704   -1.105465    1.147009
     79          1           0       -6.880195   -1.411441   -0.919632
     80          1           0       -6.715826    2.565614   -0.524362
     81          1           0        7.408877   -3.880432    1.269619
     82          1           0        6.139000   -4.043833   -0.438538
     83          1           0        7.868002   -4.067010   -0.553799
     84          1           0        6.552939   -0.084547   -0.504549
     85          1           0       -4.492874    0.701742   -0.083919
     86          1           0        4.734677   -2.471652    0.119673
     87          1           0       -4.581411    3.571762   -0.763954
     88          1           0        4.329753    0.353643   -0.481609
     89          1           0       -1.302681    3.853772   -2.155853
     90          1           0       -1.502598    4.407734   -0.354397
     91          1           0       -2.746764    4.789044   -1.366795
     92          1           0       -2.377317    0.510067   -0.438536
     93          1           0        2.122458    1.301481   -0.717189
     94          1           0        2.389530   -2.534489    0.819365
     95          1           0        1.129228   -2.260134    0.039698
     96          1           0        2.581246   -2.994310   -0.778077
     97          1           0       -0.137568    2.469159   -0.955636
     98          1           0       -0.295802   -0.507939   -0.342833
 ---------------------------------------------------------------------

 SCF Done:  E(RCAM-B3LYP) =  -1706.91427209     A.U. after   14 cycles

 Excitation energies and oscillator strengths:

 Excited State   1:      Singlet-A      2.6388 eV  469.85 nm  f=2.9843  <S**2>=0.000
     155 ->158        -0.15096
     156 ->157         0.68744
 This state for optimization and/or second-order correction.
 Total Energy, E(TD-HF/TD-DFT) =  -1706.81729688
 Copying the excited state density for this state as the 1-particle RhoCI density.

 The electronic state is 1-A.
 Alpha  occ. eigenvalues --  -19.22087 -19.19534 -10.30536 -10.30034 -10.29386
 Alpha  occ. eigenvalues --  -10.28215 -10.27989 -10.27663 -10.27625 -10.27425
 Alpha  occ. eigenvalues --  -10.27182 -10.26992 -10.26910 -10.26767 -10.26663
 Alpha  occ. eigenvalues --  -10.26653 -10.26640 -10.26488 -10.26472 -10.26340
 Alpha  occ. eigenvalues --  -10.26275 -10.26275 -10.26228 -10.26030 -10.25944
 Alpha  occ. eigenvalues --  -10.25941 -10.25867 -10.25741 -10.25586 -10.25547
 Alpha  occ. eigenvalues --  -10.25465 -10.25318 -10.25249 -10.25087 -10.24905
 Alpha  occ. eigenvalues --  -10.24881 -10.24837 -10.24531 -10.24524 -10.24323
 Alpha  occ. eigenvalues --  -10.24307 -10.24108  -1.11142  -1.08326  -0.94106
 Alpha  occ. eigenvalues --   -0.93183  -0.93013  -0.92479  -0.91417  -0.90322
 Alpha  occ. eigenvalues --   -0.88055  -0.86913  -0.86512  -0.85988  -0.85082
 Alpha  occ. eigenvalues --   -0.82783  -0.82346  -0.80466  -0.80235  -0.78740
 Alpha  occ. eigenvalues --   -0.76761  -0.76395  -0.76024  -0.75635  -0.75153
 Alpha  occ. eigenvalues --   -0.74993  -0.74019  -0.73918  -0.73651  -0.70894
 Alpha  occ. eigenvalues --   -0.69280  -0.68176  -0.66664  -0.65334  -0.64544
 Alpha  occ. eigenvalues --   -0.63199  -0.62559  -0.62130  -0.61655  -0.60321
 Alpha  occ. eigenvalues --   -0.59100  -0.59022  -0.58615  -0.57585  -0.56379
 Alpha  occ. eigenvalues --   -0.55663  -0.55286  -0.54671  -0.54216  -0.53992
 Alpha  occ. eigenvalues --   -0.53454  -0.52809  -0.52459  -0.52074  -0.51219
 Alpha  occ. eigenvalues --   -0.50554  -0.50189  -0.49949  -0.49762  -0.49466
 Alpha  occ. eigenvalues --   -0.49136  -0.49066  -0.48654  -0.48615  -0.48253
 Alpha  occ. eigenvalues --   -0.47901  -0.47304  -0.47220  -0.46869  -0.46583
 Alpha  occ. eigenvalues --   -0.45754  -0.45352  -0.45099  -0.44639  -0.44025
 Alpha  occ. eigenvalues --   -0.43841  -0.43688  -0.43644  -0.42824  -0.42561
 Alpha  occ. eigenvalues --   -0.42450  -0.42180  -0.41926  -0.41822  -0.41804
 Alpha  occ. eigenvalues --   -0.41621  -0.41429  -0.40955  -0.40860  -0.40648
 Alpha  occ. eigenvalues --   -0.40496  -0.40041  -0.39811  -0.39683  -0.39597
 Alpha  occ. eigenvalues --   -0.39141  -0.38836  -0.38745  -0.38352  -0.37731
 Alpha  occ. eigenvalues --   -0.37573  -0.37051  -0.36272  -0.35812  -0.35592
 Alpha  occ. eigenvalues --   -0.34181  -0.34030  -0.32974  -0.32265  -0.31701
 Alpha  occ. eigenvalues --   -0.31369  -0.30087  -0.29398  -0.27852  -0.24663
 Alpha  occ. eigenvalues --   -0.21061
 Alpha virt. eigenvalues --   -0.04922  -0.00595   0.03507   0.05508   0.07214
 Alpha virt. eigenvalues --    0.09513   0.10262   0.11068   0.11909   0.12322
 Alpha virt. eigenvalues --    0.12770   0.13027   0.13121   0.13417   0.14088

 Mulliken charges:
               1
     1  O   -0.532363
     2  O   -0.551041
     3  C    0.027842
     4  C   -0.126375
     5  C   -0.175515
     6  C    0.142336
     7  C    0.085057
     8  C    0.001084
     9  C   -0.280119
    10  C   -0.282995
    11  C   -0.204500
    12  C   -0.144953
    13  C    0.190927
    14  C    0.037689
    15  C   -0.103858
    16  C   -0.223549
    17  C    0.031918
    18  C   -0.336423
    19  C   -0.295410
    20  C   -0.344780
    21  C   -0.089227
    22  C   -0.077265
    23  C   -0.356210
    24  C    0.129602
    25  C   -0.079807
    26  C   -0.336527
    27  C    0.081937
    28  C   -0.139070
    29  C   -0.345714
    30  C   -0.117553
    31  C   -0.024522
    32  C   -0.042994
    33  C   -0.134476
    34  C    0.145631
    35  C   -0.112013
    36  C    0.139907
    37  C   -0.392586
    38  C   -0.132344
    39  C   -0.141806
    40  C   -0.402633
    41  C   -0.072149
    42  C   -0.078119
    43  H    0.073595
    44  H    0.084497
    45  H    0.099418
    46  H    0.075206
    47  H    0.099810
    48  H    0.073923
    49  H    0.085972
    50  H    0.120218
    51  H    0.108847
    52  H    0.074892
    53  H    0.109851
    54  H    0.053118
    55  H    0.061936
    56  H    0.083790
    57  H    0.099663
    58  H    0.117955
    59  H    0.101503
    60  H    0.099388
    61  H    0.120476
    62  H    0.083041
    63  H    0.102507
    64  H    0.103978
    65  H    0.110261
    66  H    0.115138
    67  H    0.129819
    68  H    0.106456
    69  H    0.297207
    70  H    0.105324
    71  H    0.090539
    72  H    0.123229
    73  H    0.100113
    74  H    0.092208
    75  H    0.280346
    76  H    0.095958
    77  H    0.105632
    78  H    0.109907
    79  H    0.083381
    80  H    0.052389
    81  H    0.061385
    82  H    0.098020
    83  H    0.122032
    84  H    0.068807
    85  H    0.055683
    86  H    0.075485
    87  H    0.076715
    88  H    0.063455
    89  H    0.111728
    90  H    0.143177
    91  H    0.092739
    92  H    0.075930
    93  H    0.084326
    94  H    0.142546
    95  H    0.096445
    96  H    0.111850
    97  H    0.076993
    98  H    0.074156
 Sum of Mulliken charges =  -0.00000

 Dipole moment (field-independent basis, Debye):
    X=              1.2084    Y=             -0.0950    Z=             -0.2791  Tot=              1.2438
 Quadrupole moment (field-independent basis, Debye-Ang):
   XX=           -280.6169   YY=           -242.2530   ZZ=           -263.1928
   XY=             12.4204   XZ=             39.2614   YZ=              1.9131

 Normal termination of Gaussian 16 at Mon Jul 15 18:39:43 2019.
