 Gaussian 16, Revision A.03,
 Gaussian 16:  ES64L-G16RevA.03 25-Dec-2016

 -------------------------------------
 # td=(NStates=1) CAM-B3LYP/6-31G(d,p)
 -------------------------------------

 --
 TD
 --
 Symbolic Z-matrix:
 Charge =  0 Multiplicity = 1

                         Standard orientation:
 ---------------------------------------------------------------------
 Center     Atomic      Atomic             Coordinates (Angstroms)
 Number     Number       Type             X           Y           Z
 ---------------------------------------------------------------------
      1          8           0      -14.207534   -2.087239    0.625896
      2          8           0       14.907798    0.944573   -0.325692
      3          6           0      -11.742530    0.060829    1.207145
      4          6           0      -11.025693    0.343745   -0.088522
      5          6           0      -11.944485   -1.420927    1.448992
      6          6           0      -12.835780   -2.043380    0.337919
      7          6           0      -11.714655   -0.405549   -1.294492
      8          6           0       11.261049    1.065122    1.013443
      9          6           0      -10.934214    0.629916    2.554979
     10          6           0      -12.967475    0.789194    1.117527
     11          6           0       12.667369    1.502683    0.620212
     12          6           0      -12.422338   -1.408212   -1.042167
     13          6           0       13.567375    0.398028    0.178714
     14          6           0       10.797211   -0.073885   -0.012962
     15          6           0       -9.559912   -0.085755   -0.133974
     16          6           0       13.030285   -0.181658   -1.117671
     17          6           0       11.545566   -0.623323   -0.915578
     18          6           0       10.260205    2.290492    1.105670
     19          6           0       11.244560    0.479108    2.425476
     20          6           0      -11.424838    0.100371   -2.662889
     21          6           0       -8.552666    0.773982   -0.324343
     22          6           0        9.265649   -0.338699    0.029047
     23          6           0       11.025830   -1.611571   -1.957465
     24          6           0       -7.143333    0.463015   -0.236954
     25          6           0        8.732570   -1.634935    0.143570
     26          6           0       -6.526247   -0.902146   -0.074129
     27          6           0        7.406710   -2.090134    0.165592
     28          6           0       -6.257544    1.518660   -0.446388
     29          6           0        7.129240   -3.571046    0.396193
     30          6           0        6.304625   -1.285813   -0.060230
     31          6           0       -4.794909    1.504481   -0.227353
     32          6           0        4.965255   -1.613545    0.101780
     33          6           0       -3.957521    2.587164   -0.482642
     34          6           0       -2.595185    2.669501   -0.514263
     35          6           0        3.923629   -0.691018   -0.136769
     36          6           0        2.539607   -0.962144   -0.264494
     37          6           0       -2.011543    4.039384   -0.734906
     38          6           0       -1.809457    1.513637   -0.390732
     39          6           0        1.728982    0.241893   -0.264117
     40          6           0        1.938152   -2.309941   -0.015565
     41          6           0       -0.388656    1.495646   -0.433930
     42          6           0        0.413445    0.341326   -0.305777
     43          1           0      -10.922385    1.585869   -0.127769
     44          1           0      -12.504098   -1.613335    2.306386
     45          1           0      -10.982607   -1.951261    1.517150
     46          1           0      -12.593098   -3.079281    0.371239
     47          1           0      -10.000971    0.001421    2.533737
     48          1           0      -10.876312    1.802859    2.418282
     49          1           0      -11.577488    0.474080    3.476616
     50          1           0      -13.637855    0.616767    0.184078
     51          1           0      -13.605310    0.712909    2.020813
     52          1           0      -12.830171    1.896102    1.033866
     53          1           0       12.504301    2.107504   -0.198436
     54          1           0       13.349484    1.824758    1.470269
     55          1           0      -13.099132   -1.990734   -1.761500
     56          1           0       13.677617   -0.494657    0.899029
     57          1           0       -9.314324   -1.104593    0.074597
     58          1           0       13.575739   -1.090084   -1.301090
     59          1           0       13.012577    0.609957   -1.854203
     60          1           0        9.329803    1.831074    1.620480
     61          1           0       10.320029    2.784474    0.110545
     62          1           0       10.588053    3.054248    1.636092
     63          1           0       11.935125   -0.359840    2.776743
     64          1           0       10.207183    0.264009    2.666887
     65          1           0       11.306211    1.212260    3.053905
     66          1           0      -10.333029    0.212943   -2.859936
     67          1           0      -11.944216    1.080902   -2.867953
     68          1           0      -11.822626   -0.454741   -3.380744
     69          1           0      -14.477387   -2.418588   -0.232174
     70          1           0        8.541652    0.504926    0.023456
     71          1           0       -8.683265    2.058157   -0.374613
     72          1           0       11.315446   -2.582462   -1.657672
     73          1           0        9.965071   -1.532551   -2.080927
     74          1           0       11.525384   -1.308121   -2.852505
     75          1           0       15.693685    1.058963    0.514646
     76          1           0        9.410662   -2.578839   -0.094715
     77          1           0       -5.452314   -1.055276   -0.327469
     78          1           0       -6.591760   -1.368360    0.976352
     79          1           0       -7.089627   -1.645802   -0.884491
     80          1           0       -6.776028    2.522392   -0.839618
     81          1           0        6.749863   -3.707624    1.522692
     82          1           0        6.249870   -3.808038   -0.281589
     83          1           0        8.178376   -3.995677    0.288391
     84          1           0        6.559389   -0.277970   -0.214788
     85          1           0       -4.469085    0.569889    0.066899
     86          1           0        4.672639   -2.727596    0.236460
     87          1           0       -4.520074    3.353325   -0.831455
     88          1           0        4.334783    0.221704   -0.238422
     89          1           0       -1.165379    3.901611   -1.552204
     90          1           0       -1.391384    4.406884    0.062628
     91          1           0       -2.722548    4.818544   -0.813041
     92          1           0       -2.120303    0.433542   -0.181470
     93          1           0        2.493850    1.212963   -0.419377
     94          1           0        2.137093   -2.747560    1.068429
     95          1           0        0.955479   -2.185447   -0.172177
     96          1           0        2.436649   -3.000609   -0.615329
     97          1           0        0.085618    2.331067   -0.422613
     98          1           0       -0.040951   -0.572713   -0.141694
 ---------------------------------------------------------------------

 SCF Done:  E(RCAM-B3LYP) =  -1706.92467210     A.U. after   16 cycles

 Excitation energies and oscillator strengths:

 Excited State   1:      Singlet-A      1.8222 eV  680.42 nm  f=3.0213  <S**2>=0.000
     155 ->158        -0.12928
     156 ->157         0.70353
     156 <-157        -0.12784
 This state for optimization and/or second-order correction.
 Total Energy, E(TD-HF/TD-DFT) =  -1706.85770899
 Copying the excited state density for this state as the 1-particle RhoCI density.

 The electronic state is 1-A.
 Alpha  occ. eigenvalues --  -19.21991 -19.21539 -10.30768 -10.30090 -10.27977
 Alpha  occ. eigenvalues --  -10.27967 -10.27936 -10.27855 -10.27735 -10.27687
 Alpha  occ. eigenvalues --  -10.27532 -10.27371 -10.27368 -10.27304 -10.26817
 Alpha  occ. eigenvalues --  -10.26809 -10.26806 -10.26718 -10.26593 -10.26257
 Alpha  occ. eigenvalues --  -10.26256 -10.26136 -10.26132 -10.26039 -10.25886
 Alpha  occ. eigenvalues --  -10.25816 -10.25657 -10.25513 -10.25459 -10.25418
 Alpha  occ. eigenvalues --  -10.25412 -10.25280 -10.25118 -10.25045 -10.24683
 Alpha  occ. eigenvalues --  -10.24660 -10.24632 -10.24463 -10.24171 -10.23731
 Alpha  occ. eigenvalues --  -10.23357 -10.23000  -1.11186  -1.03418  -0.94161
 Alpha  occ. eigenvalues --   -0.93017  -0.92439  -0.91690  -0.90618  -0.89992
 Alpha  occ. eigenvalues --   -0.87589  -0.87504  -0.87094  -0.85018  -0.84383
 Alpha  occ. eigenvalues --   -0.83070  -0.81992  -0.80626  -0.79793  -0.79321
 Alpha  occ. eigenvalues --   -0.77120  -0.76704  -0.76641  -0.76123  -0.75932
 Alpha  occ. eigenvalues --   -0.75737  -0.75001  -0.73789  -0.72394  -0.70617
 Alpha  occ. eigenvalues --   -0.68908  -0.67768  -0.66757  -0.65310  -0.63428
 Alpha  occ. eigenvalues --   -0.63335  -0.62715  -0.62281  -0.61369  -0.60158
 Alpha  occ. eigenvalues --   -0.58588  -0.58194  -0.57962  -0.57232  -0.56139
 Alpha  occ. eigenvalues --   -0.54988  -0.54574  -0.54276  -0.54036  -0.53674
 Alpha  occ. eigenvalues --   -0.53349  -0.53042  -0.52446  -0.52187  -0.50958
 Alpha  occ. eigenvalues --   -0.50721  -0.50638  -0.50223  -0.49684  -0.49258
 Alpha  occ. eigenvalues --   -0.48937  -0.48487  -0.48382  -0.47766  -0.47745
 Alpha  occ. eigenvalues --   -0.47493  -0.47361  -0.47053  -0.46198  -0.46154
 Alpha  occ. eigenvalues --   -0.46122  -0.46050  -0.45858  -0.45736  -0.45330
 Alpha  occ. eigenvalues --   -0.45246  -0.44616  -0.44346  -0.44029  -0.43830
 Alpha  occ. eigenvalues --   -0.43283  -0.42938  -0.42534  -0.42022  -0.41643
 Alpha  occ. eigenvalues --   -0.41429  -0.41217  -0.40893  -0.40775  -0.40593
 Alpha  occ. eigenvalues --   -0.40348  -0.40170  -0.40143  -0.39834  -0.39073
 Alpha  occ. eigenvalues --   -0.38729  -0.38432  -0.38338  -0.38006  -0.37936
 Alpha  occ. eigenvalues --   -0.37787  -0.37497  -0.37231  -0.36560  -0.35397
 Alpha  occ. eigenvalues --   -0.34477  -0.33991  -0.33218  -0.32355  -0.32082
 Alpha  occ. eigenvalues --   -0.31420  -0.30490  -0.29624  -0.27107  -0.23659
 Alpha  occ. eigenvalues --   -0.18374
 Alpha virt. eigenvalues --   -0.07171  -0.01016   0.02697   0.06285   0.07592
 Alpha virt. eigenvalues --    0.08353   0.09420   0.10883   0.11249   0.12172
 Alpha virt. eigenvalues --    0.12596   0.12968   0.13311   0.13446   0.13871

 Mulliken charges:
               1
     1  O   -0.527071
     2  O   -0.573580
     3  C    0.013369
     4  C   -0.125380
     5  C   -0.180523
     6  C    0.126260
     7  C    0.138941
     8  C   -0.026942
     9  C   -0.296509
    10  C   -0.286189
    11  C   -0.145190
    12  C   -0.145295
    13  C    0.125405
    14  C    0.072902
    15  C   -0.105127
    16  C   -0.198460
    17  C    0.003829
    18  C   -0.313769
    19  C   -0.296835
    20  C   -0.357114
    21  C   -0.079894
    22  C   -0.165213
    23  C   -0.352304
    24  C    0.138310
    25  C   -0.094339
    26  C   -0.375138
    27  C    0.086191
    28  C   -0.148510
    29  C   -0.350194
    30  C   -0.100052
    31  C   -0.055691
    32  C   -0.101556
    33  C   -0.119438
    34  C    0.115476
    35  C   -0.090036
    36  C    0.072457
    37  C   -0.380860
    38  C   -0.118639
    39  C   -0.095768
    40  C   -0.349931
    41  C   -0.054220
    42  C   -0.096770
    43  H    0.075006
    44  H    0.112370
    45  H    0.093227
    46  H    0.082399
    47  H    0.104242
    48  H    0.086710
    49  H    0.101725
    50  H    0.099818
    51  H    0.095134
    52  H    0.081998
    53  H    0.102064
    54  H    0.080151
    55  H    0.049870
    56  H    0.086012
    57  H    0.094935
    58  H    0.108562
    59  H    0.128702
    60  H    0.103841
    61  H    0.099020
    62  H    0.120944
    63  H    0.092339
    64  H    0.096177
    65  H    0.109737
    66  H    0.121661
    67  H    0.108069
    68  H    0.118859
    69  H    0.303570
    70  H    0.104349
    71  H    0.066603
    72  H    0.119749
    73  H    0.127466
    74  H    0.108243
    75  H    0.287451
    76  H    0.068092
    77  H    0.123098
    78  H    0.112703
    79  H    0.093375
    80  H    0.068167
    81  H    0.109343
    82  H    0.121897
    83  H    0.097859
    84  H    0.064647
    85  H    0.071892
    86  H    0.066871
    87  H    0.073646
    88  H    0.072830
    89  H    0.113210
    90  H    0.131653
    91  H    0.120912
    92  H    0.082981
    93  H    0.062547
    94  H    0.111530
    95  H    0.116862
    96  H    0.129004
    97  H    0.058937
    98  H    0.070343
 Sum of Mulliken charges =  -0.00000

 Dipole moment (field-independent basis, Debye):
    X=              0.7842    Y=             -0.4833    Z=              0.1382  Tot=              0.9315
 Quadrupole moment (field-independent basis, Debye-Ang):
   XX=           -274.1697   YY=           -244.5371   ZZ=           -263.9358
   XY=              3.4918   XZ=             41.7033   YZ=              2.2691

 Normal termination of Gaussian 16 at Sun Jul 14 14:28:43 2019.
