 Gaussian 16, Revision A.03,
 Gaussian 16:  ES64L-G16RevA.03 25-Dec-2016

 -------------------------------------
 # td=(NStates=1) CAM-B3LYP/6-31G(d,p)
 -------------------------------------

 --
 TD
 --
 Symbolic Z-matrix:
 Charge =  0 Multiplicity = 1

                         Standard orientation:
 ---------------------------------------------------------------------
 Center     Atomic      Atomic             Coordinates (Angstroms)
 Number     Number       Type             X           Y           Z
 ---------------------------------------------------------------------
      1          8           0      -13.999431   -2.179785    0.678414
      2          8           0       14.707698    1.232935    0.112248
      3          6           0      -11.708285    0.033556    1.339102
      4          6           0      -11.015280    0.410829   -0.015445
      5          6           0      -11.941618   -1.499918    1.524214
      6          6           0      -12.629340   -2.226352    0.310055
      7          6           0      -11.646469   -0.310217   -1.272196
      8          6           0       11.026897    1.032835    1.267571
      9          6           0      -10.783152    0.418048    2.605984
     10          6           0      -12.982282    0.844203    1.445530
     11          6           0       12.539053    1.623240    0.975633
     12          6           0      -12.344674   -1.453790   -1.051782
     13          6           0       13.421525    0.565097    0.452336
     14          6           0       10.682584   -0.098562    0.132915
     15          6           0       -9.547884    0.003822    0.027390
     16          6           0       12.953700   -0.068190   -0.818891
     17          6           0       11.590502   -0.541245   -0.727083
     18          6           0       10.036152    2.135260    1.345382
     19          6           0       11.032350    0.194732    2.608054
     20          6           0      -11.494326    0.356205   -2.531761
     21          6           0       -8.495917    0.861096   -0.255991
     22          6           0        9.265512   -0.586508    0.184747
     23          6           0       11.297211   -1.348384   -2.056919
     24          6           0       -7.124204    0.449497   -0.157477
     25          6           0        8.894241   -1.867978   -0.246677
     26          6           0       -6.776292   -0.929311    0.293213
     27          6           0        7.398201   -2.229169   -0.252083
     28          6           0       -6.260469    1.559565   -0.456528
     29          6           0        7.184196   -3.714986   -0.126780
     30          6           0        6.442731   -1.419750   -0.414112
     31          6           0       -4.802580    1.526470   -0.474221
     32          6           0        5.077648   -1.597964   -0.203057
     33          6           0       -3.980861    2.670904   -0.653141
     34          6           0       -2.564317    2.728862   -0.741713
     35          6           0        4.096892   -0.649088   -0.337342
     36          6           0        2.626903   -0.754643   -0.339695
     37          6           0       -1.930898    4.050816   -1.020428
     38          6           0       -1.827539    1.501536   -0.638103
     39          6           0        1.722869    0.248528   -0.606540
     40          6           0        2.129995   -2.122077   -0.046572
     41          6           0       -0.411256    1.410672   -0.663237
     42          6           0        0.291055    0.259959   -0.420151
     43          1           0      -11.178999    1.448048   -0.268063
     44          1           0      -12.565011   -1.452009    2.448618
     45          1           0      -11.027240   -1.946437    1.859850
     46          1           0      -12.263196   -3.226616    0.205500
     47          1           0       -9.738648   -0.147362    2.642299
     48          1           0      -10.509101    1.500637    2.488475
     49          1           0      -11.307238    0.287941    3.493647
     50          1           0      -13.707124    0.729920    0.551751
     51          1           0      -13.644835    0.597767    2.397887
     52          1           0      -12.803828    2.014389    1.636550
     53          1           0       12.368794    2.455268    0.028187
     54          1           0       12.860833    2.323594    1.882218
     55          1           0      -12.568065   -2.128119   -1.968037
     56          1           0       13.650206   -0.212074    1.305043
     57          1           0       -9.501900   -1.114641   -0.103540
     58          1           0       13.630797   -0.941969   -1.058207
     59          1           0       13.080710    0.368523   -1.797928
     60          1           0        9.068502    1.724275    1.520878
     61          1           0        9.909461    2.641094    0.436547
     62          1           0       10.432089    2.941188    2.040028
     63          1           0       11.590829   -0.705669    2.860809
     64          1           0       10.139850   -0.267779    2.896933
     65          1           0       10.968906    0.683931    3.573873
     66          1           0      -10.509837    0.808142   -2.880485
     67          1           0      -12.293386    1.009489   -2.401173
     68          1           0      -11.890518   -0.302199   -3.250228
     69          1           0      -14.629589   -2.473870   -0.045676
     70          1           0        8.523192    0.031243    0.356490
     71          1           0       -8.959295    1.905868   -0.653397
     72          1           0       11.667768   -2.473872   -2.086636
     73          1           0       10.207060   -1.460212   -2.246643
     74          1           0       11.907942   -0.707923   -2.912429
     75          1           0       15.273226    1.691292    0.771821
     76          1           0        9.384526   -2.711711   -0.337011
     77          1           0       -5.678288   -1.132515    0.245124
     78          1           0       -7.070981   -1.343131    1.196433
     79          1           0       -7.038860   -1.682643   -0.494300
     80          1           0       -6.635521    2.460657   -0.630088
     81          1           0        6.969521   -4.072555    0.920140
     82          1           0        6.174388   -3.863641   -0.645973
     83          1           0        8.033537   -4.354785   -0.499453
     84          1           0        6.858036   -0.387635   -0.398062
     85          1           0       -4.356862    0.497202   -0.337007
     86          1           0        4.705199   -2.644016   -0.057256
     87          1           0       -4.317900    3.657097   -0.832981
     88          1           0        4.467464    0.389882   -0.695019
     89          1           0       -1.417024    3.679432   -1.847946
     90          1           0       -1.280887    4.511785   -0.236825
     91          1           0       -2.880491    4.453662   -1.352093
     92          1           0       -2.220254    0.495127   -0.341293
     93          1           0        2.116985    1.289950   -0.630242
     94          1           0        2.871963   -2.623606    0.748955
     95          1           0        1.022099   -2.271473    0.491070
     96          1           0        1.983438   -2.724049   -1.083556
     97          1           0       -0.046480    2.298579   -1.077876
     98          1           0       -0.147542   -0.754290   -0.060205
 ---------------------------------------------------------------------

 SCF Done:  E(RCAM-B3LYP) =  -1706.93811194     A.U. after   15 cycles

 Excitation energies and oscillator strengths:

 Excited State   1:      Singlet-A      2.1946 eV  564.95 nm  f=2.7399  <S**2>=0.000
     155 ->158        -0.13648
     156 ->157         0.69450
 This state for optimization and/or second-order correction.
 Total Energy, E(TD-HF/TD-DFT) =  -1706.85746204
 Copying the excited state density for this state as the 1-particle RhoCI density.

 The electronic state is 1-A.
 Alpha  occ. eigenvalues --  -19.20923 -19.19204 -10.31626 -10.31245 -10.29152
 Alpha  occ. eigenvalues --  -10.28754 -10.28108 -10.27619 -10.27614 -10.27559
 Alpha  occ. eigenvalues --  -10.27425 -10.27401 -10.27215 -10.27146 -10.27145
 Alpha  occ. eigenvalues --  -10.27068 -10.27058 -10.26637 -10.26537 -10.26423
 Alpha  occ. eigenvalues --  -10.26407 -10.26326 -10.26288 -10.26226 -10.26218
 Alpha  occ. eigenvalues --  -10.26124 -10.26118 -10.26021 -10.25971 -10.25878
 Alpha  occ. eigenvalues --  -10.25859 -10.25734 -10.25693 -10.25632 -10.25621
 Alpha  occ. eigenvalues --  -10.25164 -10.24868 -10.24562 -10.24462 -10.24424
 Alpha  occ. eigenvalues --  -10.23972 -10.23580  -1.08051  -1.05569  -0.93023
 Alpha  occ. eigenvalues --   -0.92513  -0.92063  -0.91848  -0.90249  -0.89787
 Alpha  occ. eigenvalues --   -0.87178  -0.87136  -0.86826  -0.85134  -0.84058
 Alpha  occ. eigenvalues --   -0.82408  -0.81797  -0.80126  -0.79972  -0.78086
 Alpha  occ. eigenvalues --   -0.77694  -0.77554  -0.76212  -0.76004  -0.75226
 Alpha  occ. eigenvalues --   -0.74154  -0.74028  -0.73737  -0.72162  -0.69778
 Alpha  occ. eigenvalues --   -0.69159  -0.67842  -0.66703  -0.66113  -0.63494
 Alpha  occ. eigenvalues --   -0.62903  -0.62773  -0.61847  -0.60441  -0.59993
 Alpha  occ. eigenvalues --   -0.58731  -0.57903  -0.57676  -0.56736  -0.55869
 Alpha  occ. eigenvalues --   -0.55288  -0.54883  -0.54115  -0.53701  -0.53408
 Alpha  occ. eigenvalues --   -0.53153  -0.52485  -0.52282  -0.52089  -0.51150
 Alpha  occ. eigenvalues --   -0.51043  -0.50491  -0.49991  -0.49730  -0.49196
 Alpha  occ. eigenvalues --   -0.48690  -0.48419  -0.48197  -0.47902  -0.47635
 Alpha  occ. eigenvalues --   -0.47256  -0.47015  -0.46807  -0.46691  -0.46242
 Alpha  occ. eigenvalues --   -0.46166  -0.45844  -0.45505  -0.44905  -0.44802
 Alpha  occ. eigenvalues --   -0.44247  -0.43792  -0.43425  -0.43247  -0.43047
 Alpha  occ. eigenvalues --   -0.42964  -0.42527  -0.42480  -0.41770  -0.41643
 Alpha  occ. eigenvalues --   -0.41066  -0.40753  -0.40551  -0.40169  -0.39752
 Alpha  occ. eigenvalues --   -0.39416  -0.39288  -0.39260  -0.39147  -0.38927
 Alpha  occ. eigenvalues --   -0.38690  -0.38515  -0.38141  -0.37931  -0.37821
 Alpha  occ. eigenvalues --   -0.37487  -0.37018  -0.36325  -0.35085  -0.34909
 Alpha  occ. eigenvalues --   -0.34395  -0.33746  -0.33381  -0.32167  -0.31700
 Alpha  occ. eigenvalues --   -0.31223  -0.29236  -0.28897  -0.26649  -0.23904
 Alpha  occ. eigenvalues --   -0.19542
 Alpha virt. eigenvalues --   -0.05611  -0.01065   0.02436   0.05328   0.07160
 Alpha virt. eigenvalues --    0.09340   0.10614   0.11537   0.12203   0.12299
 Alpha virt. eigenvalues --    0.12762   0.13177   0.13217   0.13501   0.13735

 Mulliken charges:
               1
     1  O   -0.549826
     2  O   -0.605979
     3  C    0.037554
     4  C   -0.133663
     5  C   -0.174082
     6  C    0.162507
     7  C    0.099215
     8  C    0.002084
     9  C   -0.306781
    10  C   -0.290483
    11  C   -0.169945
    12  C   -0.177991
    13  C    0.186888
    14  C    0.050576
    15  C   -0.086033
    16  C   -0.222173
    17  C    0.054274
    18  C   -0.313036
    19  C   -0.331487
    20  C   -0.360246
    21  C   -0.105225
    22  C   -0.092000
    23  C   -0.345525
    24  C    0.100797
    25  C   -0.071944
    26  C   -0.384251
    27  C    0.081423
    28  C   -0.095403
    29  C   -0.385679
    30  C   -0.099107
    31  C   -0.081188
    32  C   -0.094625
    33  C   -0.110346
    34  C    0.033093
    35  C   -0.114742
    36  C    0.118358
    37  C   -0.350691
    38  C   -0.108006
    39  C   -0.132777
    40  C   -0.364021
    41  C   -0.070116
    42  C   -0.090633
    43  H    0.077189
    44  H    0.113160
    45  H    0.091808
    46  H    0.086504
    47  H    0.088430
    48  H    0.094145
    49  H    0.108570
    50  H    0.104271
    51  H    0.085909
    52  H    0.074801
    53  H    0.067770
    54  H    0.083284
    55  H    0.056505
    56  H    0.088191
    57  H    0.094062
    58  H    0.114883
    59  H    0.134726
    60  H    0.109038
    61  H    0.116644
    62  H    0.103268
    63  H    0.105739
    64  H    0.107549
    65  H    0.087706
    66  H    0.122653
    67  H    0.141944
    68  H    0.115841
    69  H    0.301326
    70  H    0.085805
    71  H    0.085876
    72  H    0.098740
    73  H    0.122908
    74  H    0.083258
    75  H    0.303079
    76  H    0.077252
    77  H    0.107155
    78  H    0.143767
    79  H    0.122394
    80  H    0.076675
    81  H    0.118975
    82  H    0.110165
    83  H    0.105798
    84  H    0.062143
    85  H    0.086947
    86  H    0.082136
    87  H    0.069903
    88  H    0.071852
    89  H    0.142552
    90  H    0.138047
    91  H    0.106014
    92  H    0.075372
    93  H    0.079732
    94  H    0.103754
    95  H    0.082865
    96  H    0.113033
    97  H    0.075376
    98  H    0.083747
 Sum of Mulliken charges =  -0.00000

 Dipole moment (field-independent basis, Debye):
    X=             -0.6784    Y=             -0.5230    Z=             -0.3191  Tot=              0.9141
 Quadrupole moment (field-independent basis, Debye-Ang):
   XX=           -266.4228   YY=           -243.0002   ZZ=           -261.9617
   XY=              2.4981   XZ=             41.5860   YZ=              1.4238

 Normal termination of Gaussian 16 at Mon Jul 15 09:20:57 2019.
