 Gaussian 16, Revision A.03,
 Gaussian 16:  ES64L-G16RevA.03 25-Dec-2016

 -------------------------------------
 # td=(NStates=1) CAM-B3LYP/6-31G(d,p)
 -------------------------------------

 --
 TD
 --
 Symbolic Z-matrix:
 Charge =  0 Multiplicity = 1

                         Standard orientation:
 ---------------------------------------------------------------------
 Center     Atomic      Atomic             Coordinates (Angstroms)
 Number     Number       Type             X           Y           Z
 ---------------------------------------------------------------------
      1          8           0      -14.007430   -2.224856    0.392055
      2          8           0       14.873019    0.685763    0.358485
      3          6           0      -11.723077   -0.192316    1.518778
      4          6           0      -10.989865    0.303635    0.135227
      5          6           0      -11.959948   -1.658487    1.469527
      6          6           0      -12.613584   -2.245051    0.162247
      7          6           0      -11.592013   -0.216910   -1.171581
      8          6           0       11.154321    0.818848    1.178120
      9          6           0      -10.893787    0.180152    2.638443
     10          6           0      -13.148128    0.667230    1.516814
     11          6           0       12.541247    1.357582    0.984542
     12          6           0      -12.199473   -1.406654   -1.021186
     13          6           0       13.476720    0.232446    0.559556
     14          6           0       10.687532   -0.100745   -0.013451
     15          6           0       -9.577226   -0.127336    0.097549
     16          6           0       13.094346   -0.154733   -0.825977
     17          6           0       11.611598   -0.432045   -0.877952
     18          6           0       10.230598    2.084453    1.269089
     19          6           0       10.910269    0.088830    2.500664
     20          6           0      -11.476871    0.522198   -2.422543
     21          6           0       -8.538236    0.751281   -0.128765
     22          6           0        9.341728   -0.459846    0.097138
     23          6           0       11.233533   -1.185762   -2.137126
     24          6           0       -7.112777    0.468130   -0.308970
     25          6           0        8.750675   -1.638383   -0.231118
     26          6           0       -6.642840   -1.019122   -0.186393
     27          6           0        7.375793   -2.064074   -0.156905
     28          6           0       -6.230173    1.571701   -0.257145
     29          6           0        7.057663   -3.536911   -0.135738
     30          6           0        6.365889   -1.139988   -0.120985
     31          6           0       -4.854656    1.574712   -0.437269
     32          6           0        4.910502   -1.464338   -0.171053
     33          6           0       -4.052397    2.730562   -0.554492
     34          6           0       -2.637504    2.767406   -0.732497
     35          6           0        4.013936   -0.470230   -0.197804
     36          6           0        2.524627   -0.671953   -0.338595
     37          6           0       -1.970026    4.111071   -0.853699
     38          6           0       -1.753733    1.578458   -0.713240
     39          6           0        1.789001    0.526204   -0.335126
     40          6           0        2.130001   -2.160884   -0.457007
     41          6           0       -0.420335    1.596369   -0.595978
     42          6           0        0.382142    0.478377   -0.548038
     43          1           0      -11.137499    1.296052    0.161287
     44          1           0      -12.566543   -1.846668    2.353520
     45          1           0      -10.922495   -2.267868    1.489959
     46          1           0      -12.326533   -3.299882    0.254907
     47          1           0       -9.967991   -0.377303    2.732464
     48          1           0      -10.636323    1.259614    2.566835
     49          1           0      -11.245144    0.200537    3.644202
     50          1           0      -13.976396    0.597634    0.767950
     51          1           0      -13.683114    0.086532    2.340775
     52          1           0      -12.998749    1.802340    1.734845
     53          1           0       12.467893    2.063346    0.098014
     54          1           0       12.740903    1.904163    1.929529
     55          1           0      -12.454047   -1.744950   -1.935881
     56          1           0       13.529797   -0.676672    1.340118
     57          1           0       -9.336772   -0.982389    0.404981
     58          1           0       13.472799   -1.171982   -1.142944
     59          1           0       13.472115    0.630744   -1.455282
     60          1           0        9.135764    1.788136    1.491803
     61          1           0       10.433921    2.592514    0.280330
     62          1           0       10.536379    2.634281    1.990967
     63          1           0       11.481233   -0.764570    2.375325
     64          1           0        9.798398   -0.032725    2.645862
     65          1           0       11.550440    0.791611    3.335921
     66          1           0      -10.374936    0.872401   -2.691680
     67          1           0      -11.934180    1.516221   -2.476918
     68          1           0      -11.910176   -0.095949   -3.396372
     69          1           0      -14.534735   -2.331658   -0.389147
     70          1           0        8.700765    0.188543    0.317100
     71          1           0       -8.899302    1.833315   -0.311593
     72          1           0       11.616601   -2.082765   -1.943321
     73          1           0       10.131394   -1.149110   -2.266977
     74          1           0       11.593130   -0.776418   -2.909889
     75          1           0       15.408138    0.970750    1.241773
     76          1           0        9.386697   -2.654576   -0.438328
     77          1           0       -5.502997   -1.190778   -0.209104
     78          1           0       -6.897531   -1.475424    0.788918
     79          1           0       -7.027654   -1.510969   -1.162833
     80          1           0       -6.748168    2.560537   -0.146805
     81          1           0        7.247081   -3.884849    1.110937
     82          1           0        5.942600   -3.788594   -0.536378
     83          1           0        7.776153   -4.102102   -1.186920
     84          1           0        6.538581   -0.046818   -0.302346
     85          1           0       -4.416700    0.548310   -0.352682
     86          1           0        4.500129   -2.377951   -0.122636
     87          1           0       -4.653243    3.655524   -0.548892
     88          1           0        4.496235    0.657226   -0.188462
     89          1           0       -1.453274    4.267264   -1.806295
     90          1           0       -1.430042    4.207464    0.085051
     91          1           0       -2.701533    4.947308   -0.939712
     92          1           0       -2.207819    0.587490   -0.806589
     93          1           0        2.200325    1.404895   -0.494623
     94          1           0        2.120386   -2.648232    0.635388
     95          1           0        1.036215   -2.099396   -0.724108
     96          1           0        2.576569   -2.805954   -1.107507
     97          1           0        0.004393    2.654635   -0.725512
     98          1           0       -0.048664   -0.403382   -0.585708
 ---------------------------------------------------------------------

 SCF Done:  E(RCAM-B3LYP) =  -1706.87935073     A.U. after   15 cycles

 Excitation energies and oscillator strengths:

 Excited State   1:      Singlet-A      2.0304 eV  610.62 nm  f=2.8121  <S**2>=0.000
     155 ->158        -0.12453
     156 ->157         0.70106
     156 <-157        -0.11360
 This state for optimization and/or second-order correction.
 Total Energy, E(TD-HF/TD-DFT) =  -1706.80473311
 Copying the excited state density for this state as the 1-particle RhoCI density.

 The electronic state is 1-A.
 Alpha  occ. eigenvalues --  -19.20818 -19.20592 -10.31373 -10.31086 -10.30981
 Alpha  occ. eigenvalues --  -10.28726 -10.28310 -10.28205 -10.27790 -10.27508
 Alpha  occ. eigenvalues --  -10.27415 -10.27302 -10.27186 -10.26883 -10.26877
 Alpha  occ. eigenvalues --  -10.26776 -10.26591 -10.26554 -10.26420 -10.26356
 Alpha  occ. eigenvalues --  -10.26337 -10.25885 -10.25854 -10.25772 -10.25697
 Alpha  occ. eigenvalues --  -10.25549 -10.25536 -10.25364 -10.25333 -10.25295
 Alpha  occ. eigenvalues --  -10.25272 -10.25218 -10.24999 -10.24949 -10.24838
 Alpha  occ. eigenvalues --  -10.24391 -10.24323 -10.24128 -10.23931 -10.23563
 Alpha  occ. eigenvalues --  -10.23544 -10.21416  -1.09508  -1.05228  -0.94214
 Alpha  occ. eigenvalues --   -0.93474  -0.91667  -0.90796  -0.90040  -0.89043
 Alpha  occ. eigenvalues --   -0.87605  -0.87559  -0.87038  -0.85635  -0.84699
 Alpha  occ. eigenvalues --   -0.82881  -0.81929  -0.80581  -0.80238  -0.79032
 Alpha  occ. eigenvalues --   -0.76296  -0.75961  -0.75834  -0.75618  -0.75511
 Alpha  occ. eigenvalues --   -0.75392  -0.74516  -0.74109  -0.72259  -0.70226
 Alpha  occ. eigenvalues --   -0.69126  -0.68830  -0.65778  -0.65096  -0.63875
 Alpha  occ. eigenvalues --   -0.63124  -0.62961  -0.62250  -0.60556  -0.59442
 Alpha  occ. eigenvalues --   -0.59328  -0.58455  -0.58365  -0.57865  -0.56447
 Alpha  occ. eigenvalues --   -0.55875  -0.55340  -0.54753  -0.54100  -0.53256
 Alpha  occ. eigenvalues --   -0.53088  -0.52477  -0.52136  -0.51621  -0.50985
 Alpha  occ. eigenvalues --   -0.50641  -0.50525  -0.50158  -0.50056  -0.49635
 Alpha  occ. eigenvalues --   -0.49199  -0.48767  -0.48629  -0.48170  -0.48018
 Alpha  occ. eigenvalues --   -0.47517  -0.47179  -0.47085  -0.46820  -0.46638
 Alpha  occ. eigenvalues --   -0.46260  -0.45938  -0.45137  -0.44814  -0.44459
 Alpha  occ. eigenvalues --   -0.44404  -0.43924  -0.43766  -0.43665  -0.42994
 Alpha  occ. eigenvalues --   -0.42581  -0.42158  -0.41999  -0.41794  -0.41624
 Alpha  occ. eigenvalues --   -0.41454  -0.41256  -0.40978  -0.40774  -0.40594
 Alpha  occ. eigenvalues --   -0.40532  -0.40405  -0.39992  -0.39225  -0.38739
 Alpha  occ. eigenvalues --   -0.38717  -0.38425  -0.37916  -0.37731  -0.37475
 Alpha  occ. eigenvalues --   -0.37357  -0.36818  -0.36243  -0.35927  -0.35527
 Alpha  occ. eigenvalues --   -0.34335  -0.33881  -0.33263  -0.32320  -0.31907
 Alpha  occ. eigenvalues --   -0.31318  -0.29579  -0.29094  -0.26454  -0.23457
 Alpha  occ. eigenvalues --   -0.18740
 Alpha virt. eigenvalues --   -0.06073  -0.00704   0.02653   0.05573   0.07384
 Alpha virt. eigenvalues --    0.09159   0.09883   0.10990   0.11765   0.12092
 Alpha virt. eigenvalues --    0.12512   0.12660   0.13141   0.13377   0.13593

 Mulliken charges:
               1
     1  O   -0.550115
     2  O   -0.596084
     3  C    0.033967
     4  C   -0.135738
     5  C   -0.179606
     6  C    0.172608
     7  C    0.157960
     8  C   -0.071194
     9  C   -0.303970
    10  C   -0.320227
    11  C   -0.180093
    12  C   -0.137569
    13  C    0.179394
    14  C    0.144504
    15  C   -0.035699
    16  C   -0.199922
    17  C   -0.038353
    18  C   -0.277920
    19  C   -0.260378
    20  C   -0.378899
    21  C   -0.108040
    22  C   -0.091893
    23  C   -0.337010
    24  C    0.077394
    25  C   -0.105189
    26  C   -0.367824
    27  C    0.094469
    28  C   -0.116727
    29  C   -0.323265
    30  C   -0.128275
    31  C   -0.053246
    32  C   -0.065554
    33  C   -0.131257
    34  C    0.058554
    35  C   -0.109533
    36  C    0.070188
    37  C   -0.382631
    38  C   -0.107616
    39  C   -0.086202
    40  C   -0.374116
    41  C   -0.069712
    42  C   -0.081897
    43  H    0.078974
    44  H    0.108893
    45  H    0.067108
    46  H    0.085634
    47  H    0.105879
    48  H    0.095635
    49  H    0.107613
    50  H    0.117358
    51  H    0.095634
    52  H    0.084860
    53  H    0.097741
    54  H    0.084858
    55  H    0.053054
    56  H    0.071646
    57  H    0.064382
    58  H    0.105873
    59  H    0.136975
    60  H    0.083902
    61  H    0.089647
    62  H    0.105928
    63  H    0.109999
    64  H    0.110550
    65  H    0.051514
    66  H    0.112477
    67  H    0.128688
    68  H    0.093871
    69  H    0.299725
    70  H    0.065130
    71  H    0.067565
    72  H    0.118785
    73  H    0.108873
    74  H    0.112256
    75  H    0.299792
    76  H    0.060913
    77  H    0.101320
    78  H    0.130362
    79  H    0.121028
    80  H    0.076391
    81  H    0.104924
    82  H    0.108220
    83  H    0.066367
    84  H    0.087455
    85  H    0.079314
    86  H    0.071728
    87  H    0.085859
    88  H    0.060728
    89  H    0.129317
    90  H    0.138234
    91  H    0.104304
    92  H    0.074477
    93  H    0.085624
    94  H    0.115844
    95  H    0.107523
    96  H    0.143755
    97  H    0.078446
    98  H    0.063767
 Sum of Mulliken charges =  -0.00000

 Dipole moment (field-independent basis, Debye):
    X=             -1.5918    Y=             -0.1410    Z=             -0.4480  Tot=              1.6597
 Quadrupole moment (field-independent basis, Debye-Ang):
   XX=           -271.2790   YY=           -245.5954   ZZ=           -260.1991
   XY=             -0.8804   XZ=             32.8847   YZ=              2.9179

 Normal termination of Gaussian 16 at Sun Jul 14 14:18:30 2019.
