 Gaussian 16, Revision A.03,
 Gaussian 16:  ES64L-G16RevA.03 25-Dec-2016

 -------------------------------------
 # td=(NStates=1) CAM-B3LYP/6-31G(d,p)
 -------------------------------------

 --
 TD
 --
 Symbolic Z-matrix:
 Charge =  0 Multiplicity = 1

                         Standard orientation:
 ---------------------------------------------------------------------
 Center     Atomic      Atomic             Coordinates (Angstroms)
 Number     Number       Type             X           Y           Z
 ---------------------------------------------------------------------
      1          8           0      -14.150704   -1.926213    0.269838
      2          8           0       14.648697    1.016891   -0.082234
      3          6           0      -11.688961   -0.124525    1.326824
      4          6           0      -10.907194    0.414784    0.065047
      5          6           0      -12.009659   -1.570757    1.286989
      6          6           0      -12.799733   -2.022462    0.013437
      7          6           0      -11.573824   -0.127568   -1.235108
      8          6           0       11.104076    0.959155    1.156113
      9          6           0      -10.898525    0.215061    2.636696
     10          6           0      -13.016289    0.655348    1.494626
     11          6           0       12.471643    1.612395    0.874574
     12          6           0      -12.242731   -1.243903   -1.164392
     13          6           0       13.461405    0.537329    0.337234
     14          6           0       10.574106    0.065914    0.012875
     15          6           0       -9.514227   -0.026638    0.087887
     16          6           0       12.889384    0.025446   -0.979915
     17          6           0       11.475287   -0.392001   -0.973956
     18          6           0       10.100238    2.151456    1.524969
     19          6           0       11.051772    0.202435    2.414525
     20          6           0      -11.124635    0.417577   -2.549011
     21          6           0       -8.533932    0.832135   -0.103865
     22          6           0        9.235178   -0.435525    0.133033
     23          6           0       11.105512   -1.292321   -2.124450
     24          6           0       -7.075507    0.541715   -0.179659
     25          6           0        8.819021   -1.737590   -0.111668
     26          6           0       -6.649886   -0.863438    0.289466
     27          6           0        7.432102   -2.198825   -0.029535
     28          6           0       -6.147189    1.487702   -0.388229
     29          6           0        7.059999   -3.762094   -0.023397
     30          6           0        6.340428   -1.412960   -0.152150
     31          6           0       -4.741385    1.445984   -0.490260
     32          6           0        4.970270   -1.655417   -0.202898
     33          6           0       -3.898326    2.570142   -0.753629
     34          6           0       -2.476070    2.720461   -0.689663
     35          6           0        3.940817   -0.756690   -0.329144
     36          6           0        2.595056   -0.951157   -0.085248
     37          6           0       -1.867697    4.003790   -0.800000
     38          6           0       -1.709837    1.585798   -0.585487
     39          6           0        1.722619    0.223042   -0.368390
     40          6           0        2.075370   -2.296183    0.124026
     41          6           0       -0.337175    1.403547   -0.591707
     42          6           0        0.274762    0.245259   -0.299703
     43          1           0      -10.847478    1.442472    0.022960
     44          1           0      -12.446716   -1.659076    2.370182
     45          1           0      -11.183628   -2.231686    1.506101
     46          1           0      -12.285244   -3.041534    0.079275
     47          1           0       -9.939301   -0.243682    2.650230
     48          1           0      -10.779449    1.261699    2.682262
     49          1           0      -11.433519   -0.063226    3.537207
     50          1           0      -13.577832    0.784503    0.511029
     51          1           0      -13.584553    0.331568    2.287420
     52          1           0      -12.883296    1.810060    1.778626
     53          1           0       12.396482    2.321415    0.079067
     54          1           0       12.814290    2.201341    1.767164
     55          1           0      -12.590625   -1.690390   -2.151499
     56          1           0       13.415486   -0.383106    0.962646
     57          1           0       -9.254217   -1.237255    0.094890
     58          1           0       13.573107   -0.900493   -1.289646
     59          1           0       13.189374    0.838028   -1.686031
     60          1           0        9.250857    1.890260    2.027845
     61          1           0        9.765842    2.719307    0.533936
     62          1           0       10.653336    2.790804    2.108538
     63          1           0       11.738288   -0.559180    2.331810
     64          1           0       10.130518   -0.415472    2.702236
     65          1           0       11.222290    0.768077    3.399900
     66          1           0      -10.123423    0.648082   -2.538210
     67          1           0      -11.696631    1.453863   -2.840093
     68          1           0      -11.501215   -0.471169   -3.291396
     69          1           0      -14.812193   -1.914689   -0.557192
     70          1           0        8.483082    0.281900    0.439634
     71          1           0       -8.705936    1.974753   -0.241852
     72          1           0       11.377819   -2.374433   -1.982373
     73          1           0       10.146293   -1.028367   -2.435427
     74          1           0       11.900198   -0.871007   -2.975760
     75          1           0       15.218944    1.164436    0.747064
     76          1           0        9.619208   -2.326845   -0.137519
     77          1           0       -5.627637   -1.047551    0.030886
     78          1           0       -6.876740   -0.855906    1.455962
     79          1           0       -7.502759   -1.840101   -0.148203
     80          1           0       -6.581894    2.527977   -0.379466
     81          1           0        6.635612   -3.973671    0.944871
     82          1           0        6.445296   -4.125361   -0.885481
     83          1           0        8.075583   -4.486894   -0.005426
     84          1           0        6.713347   -0.495809   -0.316067
     85          1           0       -4.315074    0.367883   -0.317755
     86          1           0        4.704134   -2.676404   -0.018498
     87          1           0       -4.469035    3.591773   -0.755056
     88          1           0        4.174412    0.316448   -0.547682
     89          1           0       -1.357704    3.871747   -1.833144
     90          1           0       -1.067521    4.364924    0.105690
     91          1           0       -2.730025    4.813134   -1.010489
     92          1           0       -2.168291    0.636785   -0.496101
     93          1           0        2.077322    1.072891   -0.402190
     94          1           0        2.395052   -2.821438    0.987659
     95          1           0        0.838061   -2.606222   -0.139339
     96          1           0        2.451873   -2.968946   -0.779314
     97          1           0        0.214784    2.375314   -0.663648
     98          1           0       -0.180472   -0.715476   -0.222213
 ---------------------------------------------------------------------

 SCF Done:  E(RCAM-B3LYP) =  -1706.92498630     A.U. after   15 cycles

 Excitation energies and oscillator strengths:

 Excited State   1:      Singlet-A      2.0433 eV  606.78 nm  f=2.9959  <S**2>=0.000
     155 ->158         0.14800
     156 ->157         0.69273
 This state for optimization and/or second-order correction.
 Total Energy, E(TD-HF/TD-DFT) =  -1706.84989601
 Copying the excited state density for this state as the 1-particle RhoCI density.

 The electronic state is 1-A.
 Alpha  occ. eigenvalues --  -19.22755 -19.22491 -10.31400 -10.30034 -10.28552
 Alpha  occ. eigenvalues --  -10.28461 -10.28098 -10.28072 -10.28012 -10.27852
 Alpha  occ. eigenvalues --  -10.27593 -10.27361 -10.27154 -10.27139 -10.26862
 Alpha  occ. eigenvalues --  -10.26848 -10.26754 -10.26654 -10.26596 -10.26595
 Alpha  occ. eigenvalues --  -10.26258 -10.26246 -10.26140 -10.26128 -10.26125
 Alpha  occ. eigenvalues --  -10.26116 -10.25842 -10.25796 -10.25788 -10.25712
 Alpha  occ. eigenvalues --  -10.25655 -10.25494 -10.25206 -10.25192 -10.24965
 Alpha  occ. eigenvalues --  -10.24682 -10.24566 -10.23956 -10.23842 -10.23759
 Alpha  occ. eigenvalues --  -10.23686 -10.22888  -1.12131  -1.09217  -0.93808
 Alpha  occ. eigenvalues --   -0.93274  -0.92705  -0.91686  -0.90542  -0.89757
 Alpha  occ. eigenvalues --   -0.87724  -0.87235  -0.86992  -0.85915  -0.85051
 Alpha  occ. eigenvalues --   -0.82345  -0.81700  -0.80205  -0.79695  -0.78737
 Alpha  occ. eigenvalues --   -0.76029  -0.75863  -0.75582  -0.75301  -0.75164
 Alpha  occ. eigenvalues --   -0.75096  -0.74855  -0.74577  -0.72827  -0.70268
 Alpha  occ. eigenvalues --   -0.69058  -0.68355  -0.67029  -0.64585  -0.63979
 Alpha  occ. eigenvalues --   -0.63365  -0.62221  -0.61964  -0.60834  -0.60459
 Alpha  occ. eigenvalues --   -0.59462  -0.59251  -0.58297  -0.57911  -0.57041
 Alpha  occ. eigenvalues --   -0.55593  -0.55300  -0.54851  -0.54147  -0.53736
 Alpha  occ. eigenvalues --   -0.52971  -0.52714  -0.52532  -0.51739  -0.50996
 Alpha  occ. eigenvalues --   -0.50537  -0.50399  -0.49627  -0.49006  -0.48804
 Alpha  occ. eigenvalues --   -0.48747  -0.48663  -0.48406  -0.48139  -0.47978
 Alpha  occ. eigenvalues --   -0.47930  -0.47399  -0.46967  -0.46526  -0.46422
 Alpha  occ. eigenvalues --   -0.46260  -0.45690  -0.45238  -0.44880  -0.44795
 Alpha  occ. eigenvalues --   -0.44145  -0.43925  -0.43652  -0.43552  -0.43027
 Alpha  occ. eigenvalues --   -0.42539  -0.42456  -0.42192  -0.41897  -0.41681
 Alpha  occ. eigenvalues --   -0.41557  -0.41353  -0.40980  -0.40890  -0.40220
 Alpha  occ. eigenvalues --   -0.39852  -0.39763  -0.39579  -0.39458  -0.38707
 Alpha  occ. eigenvalues --   -0.38657  -0.38439  -0.38210  -0.37857  -0.37665
 Alpha  occ. eigenvalues --   -0.37294  -0.37205  -0.36765  -0.36482  -0.35488
 Alpha  occ. eigenvalues --   -0.35000  -0.34760  -0.33474  -0.32222  -0.31507
 Alpha  occ. eigenvalues --   -0.31263  -0.29976  -0.29157  -0.26559  -0.23506
 Alpha  occ. eigenvalues --   -0.19210
 Alpha virt. eigenvalues --   -0.06287  -0.01225   0.02466   0.05418   0.07034
 Alpha virt. eigenvalues --    0.08792   0.09585   0.10840   0.11568   0.11715
 Alpha virt. eigenvalues --    0.12137   0.12649   0.12781   0.12893   0.13537

 Mulliken charges:
               1
     1  O   -0.543185
     2  O   -0.538928
     3  C    0.011172
     4  C   -0.134567
     5  C   -0.182060
     6  C    0.186920
     7  C    0.147936
     8  C   -0.022083
     9  C   -0.312195
    10  C   -0.276613
    11  C   -0.183885
    12  C   -0.166519
    13  C    0.157562
    14  C    0.062014
    15  C   -0.056269
    16  C   -0.235912
    17  C    0.052217
    18  C   -0.303389
    19  C   -0.293978
    20  C   -0.344383
    21  C   -0.098136
    22  C   -0.130488
    23  C   -0.351009
    24  C    0.104370
    25  C   -0.091068
    26  C   -0.333310
    27  C    0.058335
    28  C   -0.118284
    29  C   -0.371027
    30  C   -0.073355
    31  C   -0.069406
    32  C   -0.095212
    33  C   -0.143222
    34  C    0.131249
    35  C   -0.097398
    36  C    0.121461
    37  C   -0.382219
    38  C   -0.098597
    39  C   -0.096511
    40  C   -0.384798
    41  C   -0.079832
    42  C   -0.071708
    43  H    0.088785
    44  H    0.089194
    45  H    0.092924
    46  H    0.074356
    47  H    0.100862
    48  H    0.104451
    49  H    0.095265
    50  H    0.094392
    51  H    0.113016
    52  H    0.056251
    53  H    0.107919
    54  H    0.077504
    55  H    0.057390
    56  H    0.077361
    57  H    0.080409
    58  H    0.090411
    59  H    0.124119
    60  H    0.111150
    61  H    0.073878
    62  H    0.105773
    63  H    0.098327
    64  H    0.105833
    65  H    0.085592
    66  H    0.135900
    67  H    0.089911
    68  H    0.093578
    69  H    0.314521
    70  H    0.090972
    71  H    0.075360
    72  H    0.121687
    73  H    0.137827
    74  H    0.076080
    75  H    0.308513
    76  H    0.083012
    77  H    0.113503
    78  H    0.123766
    79  H    0.055201
    80  H    0.070987
    81  H    0.129682
    82  H    0.125077
    83  H    0.068435
    84  H    0.057732
    85  H    0.080243
    86  H    0.074456
    87  H    0.072482
    88  H    0.080483
    89  H    0.130392
    90  H    0.111885
    91  H    0.098291
    92  H    0.068215
    93  H    0.058943
    94  H    0.138389
    95  H    0.080597
    96  H    0.112262
    97  H    0.078133
    98  H    0.084636
 Sum of Mulliken charges =  -0.00000

 Dipole moment (field-independent basis, Debye):
    X=              0.6815    Y=              0.0110    Z=              0.6211  Tot=              0.9221
 Quadrupole moment (field-independent basis, Debye-Ang):
   XX=           -242.3963   YY=           -248.6385   ZZ=           -263.4983
   XY=             -2.1832   XZ=             38.2856   YZ=              2.2011

 Normal termination of Gaussian 16 at Fri Jul 12 15:59:34 2019.
