 Gaussian 16, Revision A.03,
 Gaussian 16:  ES64L-G16RevA.03 25-Dec-2016

 -------------------------------------
 # td=(NStates=1) CAM-B3LYP/6-31G(d,p)
 -------------------------------------

 --
 TD
 --
 Symbolic Z-matrix:
 Charge =  0 Multiplicity = 1

                         Standard orientation:
 ---------------------------------------------------------------------
 Center     Atomic      Atomic             Coordinates (Angstroms)
 Number     Number       Type             X           Y           Z
 ---------------------------------------------------------------------
      1          8           0      -14.154835   -1.760504    0.678473
      2          8           0       14.813114    0.930706    0.265307
      3          6           0      -11.745420    0.224257    1.414099
      4          6           0      -11.047633    0.396717   -0.017601
      5          6           0      -12.007650   -1.255616    1.424950
      6          6           0      -12.803478   -1.939817    0.358864
      7          6           0      -11.701981   -0.401353   -1.171155
      8          6           0       11.104333    1.111097    1.138993
      9          6           0      -10.956008    0.727542    2.566464
     10          6           0      -13.187609    0.997525    1.432003
     11          6           0       12.480595    1.557783    0.892699
     12          6           0      -12.431201   -1.513260   -1.005232
     13          6           0       13.493884    0.474041    0.448268
     14          6           0       10.689559    0.068797    0.021771
     15          6           0       -9.571780   -0.001594    0.131246
     16          6           0       13.022532   -0.073500   -0.873023
     17          6           0       11.554166   -0.430506   -0.905905
     18          6           0       10.087003    2.297270    0.934197
     19          6           0       10.924304    0.568615    2.517237
     20          6           0      -11.369051    0.089135   -2.520267
     21          6           0       -8.487465    0.697985   -0.339753
     22          6           0        9.221580   -0.466000    0.087335
     23          6           0       11.292038   -1.375326   -2.093023
     24          6           0       -7.089510    0.382232   -0.241347
     25          6           0        8.903757   -1.781069   -0.068494
     26          6           0       -6.834040   -1.013934    0.174382
     27          6           0        7.454225   -2.158843   -0.090034
     28          6           0       -6.117824    1.344752   -0.635722
     29          6           0        7.127681   -3.609376    0.021292
     30          6           0        6.517191   -1.223280   -0.141630
     31          6           0       -4.770904    1.302547   -0.611095
     32          6           0        5.081277   -1.586226   -0.119941
     33          6           0       -3.971771    2.364225   -0.810425
     34          6           0       -2.669222    2.415035   -0.933074
     35          6           0        4.139423   -0.587524   -0.181583
     36          6           0        2.703442   -0.963685   -0.061604
     37          6           0       -1.913194    3.773509   -1.231231
     38          6           0       -1.774878    1.310188   -0.635311
     39          6           0        1.856665    0.180724   -0.266858
     40          6           0        2.179703   -2.340651    0.130901
     41          6           0       -0.342518    1.332033   -0.555480
     42          6           0        0.447318    0.176178   -0.287856
     43          1           0      -10.762527    1.554048   -0.305374
     44          1           0      -12.479056   -1.587859    2.235283
     45          1           0      -11.010935   -1.914352    1.404710
     46          1           0      -12.521680   -2.950060    0.396971
     47          1           0       -9.998859    0.238473    2.567572
     48          1           0      -10.705270    1.664839    2.594454
     49          1           0      -11.598659    0.470179    3.381511
     50          1           0      -13.884727    0.853981    0.629334
     51          1           0      -13.668126    0.806506    2.335188
     52          1           0      -12.887607    1.958874    1.264384
     53          1           0       12.447106    2.193201    0.057459
     54          1           0       12.941292    2.071242    1.574295
     55          1           0      -12.894446   -1.845570   -1.875747
     56          1           0       13.529647   -0.302993    1.334863
     57          1           0       -9.249805   -1.153047    0.520358
     58          1           0       13.572384   -0.970166   -1.257037
     59          1           0       13.401954    0.570533   -1.575313
     60          1           0        9.038090    2.111181    1.235775
     61          1           0       10.223074    2.670470   -0.064750
     62          1           0       10.561495    3.193438    1.490809
     63          1           0       11.762285   -0.164279    2.851751
     64          1           0        9.838736    0.090215    2.548930
     65          1           0       10.919552    1.453579    3.452873
     66          1           0      -10.367617    0.061837   -2.640499
     67          1           0      -12.013799    1.185242   -2.882024
     68          1           0      -11.794119   -0.883788   -3.072524
     69          1           0      -14.683114   -2.245914    0.014455
     70          1           0        8.601029    0.219851    0.344189
     71          1           0       -8.818837    1.678025   -0.875018
     72          1           0       11.383557   -2.408884   -1.766033
     73          1           0       10.131589   -1.095437   -2.206828
     74          1           0       11.748914   -1.149448   -2.832033
     75          1           0       15.125610    1.409260    0.879598
     76          1           0        9.700839   -2.574471    0.081894
     77          1           0       -5.739789   -1.053935    0.239016
     78          1           0       -7.297979   -1.307756    1.274238
     79          1           0       -7.251767   -1.884599   -0.533031
     80          1           0       -6.531160    2.338306   -0.943227
     81          1           0        7.195484   -4.056916    1.043164
     82          1           0        6.167804   -3.920310   -0.578822
     83          1           0        8.157958   -4.378950   -0.613870
     84          1           0        6.677814   -0.103163   -0.429630
     85          1           0       -4.347995    0.393562   -0.354436
     86          1           0        4.738910   -2.491596    0.439351
     87          1           0       -4.441113    3.339734   -1.208518
     88          1           0        4.205904    0.566045   -0.252291
     89          1           0       -1.493132    3.763123   -2.274731
     90          1           0       -1.166232    4.157804   -0.368224
     91          1           0       -2.631291    4.663203   -1.082863
     92          1           0       -2.541278    0.432711   -0.438614
     93          1           0        2.222563    1.193178   -0.225004
     94          1           0        2.522704   -2.601547    0.997724
     95          1           0        1.089684   -2.374324    0.047576
     96          1           0        2.530789   -2.943242   -0.740599
     97          1           0        0.160520    2.216011   -0.720042
     98          1           0       -0.007832   -0.941421   -0.053242
 ---------------------------------------------------------------------

 SCF Done:  E(RCAM-B3LYP) =  -1706.81893787     A.U. after   15 cycles

 Excitation energies and oscillator strengths:

 Excited State   1:      Singlet-A      1.9674 eV  630.18 nm  f=2.8703  <S**2>=0.000
     155 ->158         0.12114
     156 ->157         0.70313
     156 <-157        -0.11921
 This state for optimization and/or second-order correction.
 Total Energy, E(TD-HF/TD-DFT) =  -1706.74663563
 Copying the excited state density for this state as the 1-particle RhoCI density.

 The electronic state is 1-A.
 Alpha  occ. eigenvalues --  -19.21087 -19.20048 -10.30968 -10.29243 -10.29175
 Alpha  occ. eigenvalues --  -10.28629 -10.28280 -10.27854 -10.27847 -10.27641
 Alpha  occ. eigenvalues --  -10.27621 -10.27607 -10.27392 -10.27384 -10.27357
 Alpha  occ. eigenvalues --  -10.27234 -10.27210 -10.27143 -10.26931 -10.26899
 Alpha  occ. eigenvalues --  -10.26895 -10.26793 -10.26565 -10.26561 -10.26535
 Alpha  occ. eigenvalues --  -10.26498 -10.26454 -10.26405 -10.26272 -10.26124
 Alpha  occ. eigenvalues --  -10.25720 -10.25538 -10.25535 -10.25319 -10.25079
 Alpha  occ. eigenvalues --  -10.24009 -10.23867 -10.23704 -10.23465 -10.22942
 Alpha  occ. eigenvalues --  -10.21962 -10.21786  -1.12278  -1.09958  -0.93570
 Alpha  occ. eigenvalues --   -0.93037  -0.92664  -0.91827  -0.90480  -0.89701
 Alpha  occ. eigenvalues --   -0.87466  -0.87353  -0.86956  -0.85333  -0.84563
 Alpha  occ. eigenvalues --   -0.83161  -0.82469  -0.80534  -0.80387  -0.78916
 Alpha  occ. eigenvalues --   -0.76904  -0.76328  -0.75730  -0.75532  -0.75501
 Alpha  occ. eigenvalues --   -0.75393  -0.75066  -0.74759  -0.72191  -0.70421
 Alpha  occ. eigenvalues --   -0.69333  -0.67795  -0.66992  -0.66012  -0.63496
 Alpha  occ. eigenvalues --   -0.62745  -0.62645  -0.61443  -0.60326  -0.59494
 Alpha  occ. eigenvalues --   -0.59105  -0.58953  -0.58375  -0.57267  -0.56497
 Alpha  occ. eigenvalues --   -0.56216  -0.55364  -0.54766  -0.54196  -0.54092
 Alpha  occ. eigenvalues --   -0.53510  -0.53173  -0.52494  -0.51701  -0.51534
 Alpha  occ. eigenvalues --   -0.51179  -0.50831  -0.50157  -0.49842  -0.49270
 Alpha  occ. eigenvalues --   -0.49163  -0.48800  -0.48400  -0.48195  -0.48018
 Alpha  occ. eigenvalues --   -0.47687  -0.47420  -0.47158  -0.46733  -0.46322
 Alpha  occ. eigenvalues --   -0.46017  -0.45598  -0.45139  -0.45086  -0.44893
 Alpha  occ. eigenvalues --   -0.44274  -0.44025  -0.43774  -0.43675  -0.43311
 Alpha  occ. eigenvalues --   -0.42976  -0.42789  -0.42544  -0.42127  -0.41371
 Alpha  occ. eigenvalues --   -0.41134  -0.40863  -0.40715  -0.40645  -0.40569
 Alpha  occ. eigenvalues --   -0.40397  -0.40319  -0.39673  -0.39317  -0.38977
 Alpha  occ. eigenvalues --   -0.38891  -0.38704  -0.38409  -0.37674  -0.37480
 Alpha  occ. eigenvalues --   -0.37397  -0.36715  -0.36616  -0.35855  -0.35518
 Alpha  occ. eigenvalues --   -0.34446  -0.34088  -0.33153  -0.32024  -0.31830
 Alpha  occ. eigenvalues --   -0.31165  -0.29472  -0.29076  -0.27040  -0.24115
 Alpha  occ. eigenvalues --   -0.18931
 Alpha virt. eigenvalues --   -0.06727  -0.00865   0.02614   0.05439   0.06928
 Alpha virt. eigenvalues --    0.08546   0.09842   0.10437   0.11004   0.11875
 Alpha virt. eigenvalues --    0.12609   0.12802   0.13280   0.13831   0.13946

 Mulliken charges:
               1
     1  O   -0.538841
     2  O   -0.530653
     3  C    0.019650
     4  C   -0.157235
     5  C   -0.169562
     6  C    0.143121
     7  C    0.140762
     8  C    0.014205
     9  C   -0.285472
    10  C   -0.305273
    11  C   -0.186655
    12  C   -0.133017
    13  C    0.166280
    14  C    0.031755
    15  C   -0.080851
    16  C   -0.221136
    17  C    0.017201
    18  C   -0.311432
    19  C   -0.271213
    20  C   -0.329548
    21  C   -0.106318
    22  C   -0.087572
    23  C   -0.320986
    24  C    0.110006
    25  C   -0.106390
    26  C   -0.367873
    27  C    0.117389
    28  C   -0.122000
    29  C   -0.352127
    30  C   -0.117312
    31  C   -0.048473
    32  C   -0.139833
    33  C   -0.118384
    34  C    0.087163
    35  C   -0.084534
    36  C    0.068677
    37  C   -0.371708
    38  C   -0.097006
    39  C   -0.127060
    40  C   -0.357159
    41  C   -0.111913
    42  C   -0.069059
    43  H    0.070083
    44  H    0.104541
    45  H    0.065185
    46  H    0.081206
    47  H    0.104053
    48  H    0.111600
    49  H    0.100320
    50  H    0.112979
    51  H    0.104382
    52  H    0.096478
    53  H    0.098258
    54  H    0.079874
    55  H    0.071491
    56  H    0.053584
    57  H    0.063763
    58  H    0.096923
    59  H    0.127436
    60  H    0.109501
    61  H    0.113873
    62  H    0.087033
    63  H    0.097414
    64  H    0.093146
    65  H    0.059829
    66  H    0.137738
    67  H    0.082757
    68  H    0.078253
    69  H    0.301667
    70  H    0.069810
    71  H    0.065116
    72  H    0.120205
    73  H    0.103723
    74  H    0.109641
    75  H    0.276472
    76  H    0.100814
    77  H    0.101172
    78  H    0.102408
    79  H    0.115598
    80  H    0.078481
    81  H    0.133474
    82  H    0.120667
    83  H    0.033479
    84  H    0.091866
    85  H    0.082380
    86  H    0.103257
    87  H    0.077773
    88  H    0.094583
    89  H    0.127567
    90  H    0.104095
    91  H    0.095569
    92  H    0.067102
    93  H    0.081748
    94  H    0.141765
    95  H    0.113304
    96  H    0.129359
    97  H    0.095926
    98  H    0.069663
 Sum of Mulliken charges =  -0.00000

 Dipole moment (field-independent basis, Debye):
    X=              0.8739    Y=             -0.5665    Z=              0.2644  Tot=              1.0745
 Quadrupole moment (field-independent basis, Debye-Ang):
   XX=           -275.2958   YY=           -242.7971   ZZ=           -264.7527
   XY=             21.0025   XZ=             29.4142   YZ=              0.1718

 Normal termination of Gaussian 16 at Tue Jul 16 02:29:11 2019.
