 Gaussian 16, Revision A.03,
 Gaussian 16:  ES64L-G16RevA.03 25-Dec-2016

 -------------------------------------
 # td=(NStates=1) CAM-B3LYP/6-31G(d,p)
 -------------------------------------

 --
 TD
 --
 Symbolic Z-matrix:
 Charge =  0 Multiplicity = 1

                         Standard orientation:
 ---------------------------------------------------------------------
 Center     Atomic      Atomic             Coordinates (Angstroms)
 Number     Number       Type             X           Y           Z
 ---------------------------------------------------------------------
      1          8           0      -14.103653   -1.784080    0.493996
      2          8           0       14.640082    1.294269    0.059235
      3          6           0      -11.710416    0.108822    1.388174
      4          6           0      -10.894227    0.330651    0.016194
      5          6           0      -11.933516   -1.421214    1.497210
      6          6           0      -12.687535   -1.926067    0.295784
      7          6           0      -11.579954   -0.299523   -1.113933
      8          6           0       10.989030    1.076807    1.106897
      9          6           0      -10.968988    0.530917    2.558693
     10          6           0      -13.042052    0.863482    1.266627
     11          6           0       12.333834    1.727176    0.819661
     12          6           0      -12.362951   -1.375863   -1.032581
     13          6           0       13.315418    0.694776    0.372388
     14          6           0       10.577355    0.037017    0.068045
     15          6           0       -9.417567   -0.125528    0.017690
     16          6           0       12.800027    0.010129   -0.928423
     17          6           0       11.412605   -0.525937   -0.854968
     18          6           0        9.976364    2.154553    1.258361
     19          6           0       11.033470    0.295948    2.531297
     20          6           0      -11.162821    0.364919   -2.398685
     21          6           0       -8.380213    0.693770   -0.200728
     22          6           0        9.223078   -0.536538    0.207563
     23          6           0       11.070539   -1.360644   -2.006274
     24          6           0       -6.966826    0.422501   -0.264230
     25          6           0        8.789055   -1.753223    0.091533
     26          6           0       -6.544585   -0.956914    0.029002
     27          6           0        7.387129   -2.239797   -0.075695
     28          6           0       -6.176512    1.420722   -0.412527
     29          6           0        7.267006   -3.833488   -0.022995
     30          6           0        6.448468   -1.392144   -0.262868
     31          6           0       -4.742965    1.425830   -0.415789
     32          6           0        5.016926   -1.684259   -0.179532
     33          6           0       -3.938416    2.550336   -0.682949
     34          6           0       -2.496819    2.548910   -0.742104
     35          6           0        4.009325   -0.700048   -0.300132
     36          6           0        2.688377   -0.921560   -0.258898
     37          6           0       -1.885981    3.913591   -1.007553
     38          6           0       -1.774484    1.438485   -0.496502
     39          6           0        1.723907    0.123353   -0.469988
     40          6           0        2.132202   -2.297108    0.044614
     41          6           0       -0.368787    1.317106   -0.700149
     42          6           0        0.355052    0.256648   -0.406646
     43          1           0      -10.728429    1.351405   -0.196136
     44          1           0      -12.678467   -1.695958    2.410677
     45          1           0      -11.075612   -1.849289    1.703939
     46          1           0      -12.628570   -3.020730    0.198539
     47          1           0      -10.008935   -0.125786    2.608384
     48          1           0      -10.685659    1.644931    2.536627
     49          1           0      -11.688686    0.328724    3.448859
     50          1           0      -13.407656    0.387204    0.229935
     51          1           0      -13.800107    0.582477    2.033715
     52          1           0      -12.898728    1.910746    1.348472
     53          1           0       12.259454    2.586014   -0.058102
     54          1           0       12.813805    2.148919    1.684569
     55          1           0      -12.845887   -1.737154   -2.060574
     56          1           0       13.335431   -0.282670    1.154377
     57          1           0       -9.275568   -1.192367    0.116145
     58          1           0       13.386930   -0.810827   -1.241701
     59          1           0       12.961492    0.696024   -1.772246
     60          1           0        8.853618    2.016784    1.538527
     61          1           0        9.918020    2.555399    0.248858
     62          1           0       10.208959    2.852036    2.119806
     63          1           0       11.648018   -0.759967    2.556646
     64          1           0       10.236256   -0.146177    2.670306
     65          1           0       11.338347    1.015099    3.364866
     66          1           0      -10.133011    0.706760   -2.443525
     67          1           0      -11.533683    1.261476   -2.558312
     68          1           0      -11.322182   -0.333533   -3.273095
     69          1           0      -14.448619   -2.445647   -0.154721
     70          1           0        8.400057    0.429753    0.439468
     71          1           0       -8.489113    1.808057   -0.399229
     72          1           0       11.262360   -2.340993   -1.692164
     73          1           0        9.859591   -1.353091   -2.321884
     74          1           0       11.572745   -0.897061   -3.008908
     75          1           0       15.010469    1.378757    0.948979
     76          1           0        9.614145   -2.614201   -0.121350
     77          1           0       -5.431011   -0.990767    0.234690
     78          1           0       -7.065423   -1.413828    1.020451
     79          1           0       -6.809432   -1.726036   -0.856435
     80          1           0       -6.363966    2.575015   -0.224024
     81          1           0        7.104238   -4.426261    1.129177
     82          1           0        6.598682   -4.254752   -0.630285
     83          1           0        8.310534   -4.323031   -0.317964
     84          1           0        6.765542   -0.271132    0.080611
     85          1           0       -4.184619    0.625805   -0.471810
     86          1           0        4.623386   -2.754670   -0.063659
     87          1           0       -4.601060    3.334712   -0.943975
     88          1           0        4.196999    0.345203   -0.360652
     89          1           0       -1.240098    4.043793   -2.095174
     90          1           0       -1.222398    4.134986   -0.199728
     91          1           0       -2.565265    4.490127   -0.973855
     92          1           0       -2.271028    0.477134   -0.488235
     93          1           0        2.079965    1.015013   -0.456903
     94          1           0        2.120877   -2.595166    1.043582
     95          1           0        0.880055   -2.421818   -0.407897
     96          1           0        2.868879   -3.118642   -0.477400
     97          1           0        0.152595    2.239076   -0.908578
     98          1           0       -0.350988   -0.860961   -0.131039
 ---------------------------------------------------------------------

 SCF Done:  E(RCAM-B3LYP) =  -1706.80219605     A.U. after   15 cycles

 Excitation energies and oscillator strengths:

 Excited State   1:      Singlet-A      2.3490 eV  527.81 nm  f=2.8871  <S**2>=0.000
     155 ->158         0.14354
     156 ->157         0.69136
 This state for optimization and/or second-order correction.
 Total Energy, E(TD-HF/TD-DFT) =  -1706.71587116
 Copying the excited state density for this state as the 1-particle RhoCI density.

 The electronic state is 1-A.
 Alpha  occ. eigenvalues --  -19.21810 -19.20605 -10.31940 -10.30302 -10.28402
 Alpha  occ. eigenvalues --  -10.28099 -10.27986 -10.27835 -10.27833 -10.27763
 Alpha  occ. eigenvalues --  -10.27694 -10.27575 -10.27568 -10.27102 -10.27091
 Alpha  occ. eigenvalues --  -10.26848 -10.26652 -10.26578 -10.26491 -10.26442
 Alpha  occ. eigenvalues --  -10.26348 -10.26334 -10.26306 -10.26221 -10.26084
 Alpha  occ. eigenvalues --  -10.26032 -10.25994 -10.25912 -10.25826 -10.25737
 Alpha  occ. eigenvalues --  -10.25701 -10.25608 -10.25456 -10.25209 -10.25135
 Alpha  occ. eigenvalues --  -10.25079 -10.24925 -10.24876 -10.24805 -10.24521
 Alpha  occ. eigenvalues --  -10.23639 -10.23025  -1.09045  -1.08172  -0.94268
 Alpha  occ. eigenvalues --   -0.94076  -0.93050  -0.92446  -0.91544  -0.90604
 Alpha  occ. eigenvalues --   -0.88204  -0.87929  -0.87371  -0.85547  -0.85068
 Alpha  occ. eigenvalues --   -0.83273  -0.81955  -0.80789  -0.80489  -0.78778
 Alpha  occ. eigenvalues --   -0.76877  -0.76730  -0.76495  -0.76181  -0.75939
 Alpha  occ. eigenvalues --   -0.75557  -0.75345  -0.74300  -0.73973  -0.71026
 Alpha  occ. eigenvalues --   -0.69097  -0.67604  -0.66569  -0.64452  -0.63839
 Alpha  occ. eigenvalues --   -0.63641  -0.62172  -0.61578  -0.60871  -0.59752
 Alpha  occ. eigenvalues --   -0.59116  -0.59055  -0.58387  -0.57163  -0.56796
 Alpha  occ. eigenvalues --   -0.55814  -0.55315  -0.54689  -0.54340  -0.53663
 Alpha  occ. eigenvalues --   -0.53315  -0.52630  -0.52177  -0.51995  -0.51459
 Alpha  occ. eigenvalues --   -0.50998  -0.50489  -0.49987  -0.49753  -0.49003
 Alpha  occ. eigenvalues --   -0.48877  -0.48286  -0.47842  -0.47713  -0.47485
 Alpha  occ. eigenvalues --   -0.47292  -0.47105  -0.47065  -0.46689  -0.46569
 Alpha  occ. eigenvalues --   -0.46057  -0.45767  -0.45357  -0.45112  -0.44824
 Alpha  occ. eigenvalues --   -0.44479  -0.44312  -0.43875  -0.43612  -0.43405
 Alpha  occ. eigenvalues --   -0.42788  -0.42513  -0.42504  -0.42194  -0.42053
 Alpha  occ. eigenvalues --   -0.41630  -0.41480  -0.41244  -0.40954  -0.40535
 Alpha  occ. eigenvalues --   -0.40495  -0.40290  -0.39987  -0.39760  -0.39106
 Alpha  occ. eigenvalues --   -0.38666  -0.38580  -0.38250  -0.37992  -0.37388
 Alpha  occ. eigenvalues --   -0.37189  -0.36416  -0.36119  -0.35839  -0.35656
 Alpha  occ. eigenvalues --   -0.35487  -0.34897  -0.34108  -0.32968  -0.32119
 Alpha  occ. eigenvalues --   -0.31743  -0.30085  -0.28870  -0.27081  -0.24898
 Alpha  occ. eigenvalues --   -0.20374
 Alpha virt. eigenvalues --   -0.05862  -0.00857   0.02723   0.05393   0.07207
 Alpha virt. eigenvalues --    0.08378   0.09283   0.10196   0.11201   0.11763
 Alpha virt. eigenvalues --    0.12058   0.12587   0.12888   0.13057   0.13429

 Mulliken charges:
               1
     1  O   -0.539832
     2  O   -0.556007
     3  C    0.011004
     4  C   -0.137363
     5  C   -0.155136
     6  C    0.086182
     7  C    0.134888
     8  C   -0.005140
     9  C   -0.281680
    10  C   -0.286317
    11  C   -0.140600
    12  C   -0.116775
    13  C    0.120917
    14  C    0.048867
    15  C   -0.104148
    16  C   -0.218082
    17  C    0.052421
    18  C   -0.305825
    19  C   -0.284321
    20  C   -0.371634
    21  C   -0.085349
    22  C   -0.085223
    23  C   -0.356528
    24  C    0.174331
    25  C   -0.114198
    26  C   -0.372159
    27  C    0.130231
    28  C   -0.153749
    29  C   -0.345248
    30  C   -0.131524
    31  C   -0.047467
    32  C   -0.121838
    33  C   -0.147658
    34  C    0.084686
    35  C   -0.086867
    36  C    0.142693
    37  C   -0.321230
    38  C   -0.116090
    39  C   -0.134829
    40  C   -0.355834
    41  C   -0.085705
    42  C   -0.041381
    43  H    0.089280
    44  H    0.098028
    45  H    0.101746
    46  H    0.075441
    47  H    0.081995
    48  H    0.085758
    49  H    0.088070
    50  H    0.112598
    51  H    0.100351
    52  H    0.090131
    53  H    0.088841
    54  H    0.087155
    55  H    0.074690
    56  H    0.067207
    57  H    0.085743
    58  H    0.107415
    59  H    0.116523
    60  H    0.094266
    61  H    0.111247
    62  H    0.098780
    63  H    0.066795
    64  H    0.124684
    65  H    0.091796
    66  H    0.116053
    67  H    0.128490
    68  H    0.096075
    69  H    0.304141
    70  H    0.055167
    71  H    0.072501
    72  H    0.133807
    73  H    0.102940
    74  H    0.102693
    75  H    0.309181
    76  H    0.067797
    77  H    0.110673
    78  H    0.108212
    79  H    0.106202
    80  H    0.083072
    81  H    0.082492
    82  H    0.134053
    83  H    0.094929
    84  H    0.079250
    85  H    0.061157
    86  H    0.088650
    87  H    0.079218
    88  H    0.080321
    89  H    0.088169
    90  H    0.127198
    91  H    0.108786
    92  H    0.085385
    93  H    0.062777
    94  H    0.141620
    95  H    0.072992
    96  H    0.083159
    97  H    0.083936
    98  H    0.029877
 Sum of Mulliken charges =  -0.00000

 Dipole moment (field-independent basis, Debye):
    X=              1.4551    Y=             -1.0117    Z=              0.3826  Tot=              1.8131
 Quadrupole moment (field-independent basis, Debye-Ang):
   XX=           -290.7764   YY=           -241.3691   ZZ=           -262.8409
   XY=              5.9150   XZ=             35.2612   YZ=              2.3329

 Normal termination of Gaussian 16 at Sat Jul 13 17:50:40 2019.
