 Gaussian 16, Revision A.03,
 Gaussian 16:  ES64L-G16RevA.03 25-Dec-2016

 -------------------------------------
 # td=(NStates=1) CAM-B3LYP/6-31G(d,p)
 -------------------------------------

 --
 TD
 --
 Symbolic Z-matrix:
 Charge =  0 Multiplicity = 1

                         Standard orientation:
 ---------------------------------------------------------------------
 Center     Atomic      Atomic             Coordinates (Angstroms)
 Number     Number       Type             X           Y           Z
 ---------------------------------------------------------------------
      1          8           0      -14.213275   -2.004488    0.651790
      2          8           0       14.896654    0.706937    0.235694
      3          6           0      -11.813648    0.168077    1.238043
      4          6           0      -11.016710    0.249420   -0.131196
      5          6           0      -12.138968   -1.407531    1.637069
      6          6           0      -12.740950   -2.229866    0.530848
      7          6           0      -11.699660   -0.613751   -1.185389
      8          6           0       11.228404    0.861776    1.065894
      9          6           0      -10.888032    0.718052    2.432206
     10          6           0      -13.119481    0.919287    1.187068
     11          6           0       12.691515    1.385555    0.742719
     12          6           0      -12.379930   -1.646656   -0.869336
     13          6           0       13.549380    0.290539    0.400656
     14          6           0       10.784384   -0.109545    0.065560
     15          6           0       -9.564807   -0.080108    0.027988
     16          6           0       13.015433   -0.273589   -0.905599
     17          6           0       11.611115   -0.588157   -0.873115
     18          6           0       10.397049    2.179733    1.210841
     19          6           0       11.291433    0.150674    2.561218
     20          6           0      -11.579455   -0.091849   -2.590819
     21          6           0       -8.513958    0.715243   -0.309219
     22          6           0        9.230135   -0.372398    0.012980
     23          6           0       11.063868   -1.363010   -2.130900
     24          6           0       -7.017483    0.427061   -0.285258
     25          6           0        8.716114   -1.637005   -0.012582
     26          6           0       -6.667805   -0.940873    0.162367
     27          6           0        7.381086   -1.942474    0.052116
     28          6           0       -6.257920    1.584640   -0.373802
     29          6           0        7.050868   -3.400690    0.139592
     30          6           0        6.342355   -1.079466   -0.136663
     31          6           0       -4.834563    1.525499   -0.520062
     32          6           0        4.995034   -1.461976   -0.050880
     33          6           0       -3.993671    2.647979   -0.552144
     34          6           0       -2.545106    2.664493   -0.733024
     35          6           0        3.998080   -0.502687   -0.253046
     36          6           0        2.564853   -0.628813   -0.269820
     37          6           0       -1.945426    3.984475   -0.865842
     38          6           0       -1.783934    1.549161   -0.580347
     39          6           0        1.761015    0.441825   -0.397850
     40          6           0        2.213293   -2.037008   -0.187934
     41          6           0       -0.393282    1.510437   -0.583765
     42          6           0        0.422515    0.275535   -0.539715
     43          1           0      -11.115745    1.210084   -0.430424
     44          1           0      -12.971529   -1.239067    2.525436
     45          1           0      -11.255148   -1.904095    1.964640
     46          1           0      -12.506311   -3.220758    0.723569
     47          1           0       -9.949422    0.173025    2.441338
     48          1           0      -10.471354    1.719858    2.334470
     49          1           0      -11.468955    0.654516    3.553968
     50          1           0      -13.737514    0.334512    0.371717
     51          1           0      -13.676006    0.985945    2.289422
     52          1           0      -12.945163    2.083209    0.883025
     53          1           0       12.592352    2.104237   -0.191818
     54          1           0       12.991820    1.980028    1.610138
     55          1           0      -12.680721   -2.547083   -1.676590
     56          1           0       13.467839   -0.583687    1.078905
     57          1           0       -9.377233   -1.109275    0.248577
     58          1           0       13.494359   -1.287858   -1.318571
     59          1           0       13.142870    0.178319   -2.025768
     60          1           0        9.318083    2.026869    1.382709
     61          1           0       10.341677    2.863280    0.322838
     62          1           0       10.482614    2.790875    2.119712
     63          1           0       11.826790   -0.891471    2.559641
     64          1           0       10.305242   -0.189701    2.500280
     65          1           0       11.483922    0.766833    3.366653
     66          1           0      -10.431247   -0.154817   -2.897840
     67          1           0      -11.924311    0.838153   -2.599856
     68          1           0      -11.983370   -0.620666   -3.472136
     69          1           0      -14.456488   -2.613072   -0.032444
     70          1           0        8.657179    0.571693    0.354656
     71          1           0       -8.819523    1.680439   -0.662919
     72          1           0       11.344580   -2.446248   -2.084914
     73          1           0        9.995740   -1.259198   -2.386693
     74          1           0       11.547923   -1.152335   -3.101381
     75          1           0       15.427813    1.128456    0.958577
     76          1           0        9.404630   -2.656556   -0.172790
     77          1           0       -5.676156   -1.177662    0.330014
     78          1           0       -7.194590   -1.374807    1.018411
     79          1           0       -6.933489   -1.557907   -0.658273
     80          1           0       -6.705443    2.505239   -0.380747
     81          1           0        6.186687   -3.558700    1.058993
     82          1           0        6.530067   -3.933375   -0.835973
     83          1           0        8.042972   -4.031025    0.495521
     84          1           0        6.510017   -0.116057   -0.367807
     85          1           0       -4.572563    0.436279   -0.364748
     86          1           0        4.771371   -2.482758    0.120352
     87          1           0       -4.537902    3.551853   -0.738572
     88          1           0        4.413469    0.476954   -0.556679
     89          1           0       -1.353258    4.219734   -1.766992
     90          1           0       -1.184109    4.576513   -0.107862
     91          1           0       -2.462455    4.800451   -1.188130
     92          1           0       -2.441516    0.709920   -0.336684
     93          1           0        2.261009    1.414412   -0.521298
     94          1           0        2.866408   -2.667350    0.612306
     95          1           0        1.169192   -2.127818    0.159663
     96          1           0        2.270698   -2.533288   -1.302601
     97          1           0        0.068011    2.573845   -0.851743
     98          1           0       -0.029722   -0.590541   -0.226305
 ---------------------------------------------------------------------

 SCF Done:  E(RCAM-B3LYP) =  -1706.91442016     A.U. after   15 cycles

 Excitation energies and oscillator strengths:

 Excited State   1:      Singlet-A      2.0618 eV  601.35 nm  f=3.0024  <S**2>=0.000
     155 ->158         0.14458
     156 ->157         0.69401
 This state for optimization and/or second-order correction.
 Total Energy, E(TD-HF/TD-DFT) =  -1706.83865196
 Copying the excited state density for this state as the 1-particle RhoCI density.

 The electronic state is 1-A.
 Alpha  occ. eigenvalues --  -19.20876 -19.20084 -10.30590 -10.30453 -10.28825
 Alpha  occ. eigenvalues --  -10.28574 -10.28145 -10.27963 -10.27682 -10.27481
 Alpha  occ. eigenvalues --  -10.27286 -10.27173 -10.27038 -10.26941 -10.26772
 Alpha  occ. eigenvalues --  -10.26732 -10.26651 -10.26609 -10.26479 -10.26426
 Alpha  occ. eigenvalues --  -10.26332 -10.26318 -10.26176 -10.26139 -10.26115
 Alpha  occ. eigenvalues --  -10.26009 -10.26008 -10.25806 -10.25657 -10.25652
 Alpha  occ. eigenvalues --  -10.25526 -10.25511 -10.25503 -10.25471 -10.25441
 Alpha  occ. eigenvalues --  -10.25407 -10.25384 -10.25357 -10.25193 -10.24761
 Alpha  occ. eigenvalues --  -10.24286 -10.24212  -1.08509  -1.07733  -0.93800
 Alpha  occ. eigenvalues --   -0.93327  -0.92866  -0.91932  -0.91299  -0.90396
 Alpha  occ. eigenvalues --   -0.86759  -0.86107  -0.85979  -0.85469  -0.84380
 Alpha  occ. eigenvalues --   -0.83393  -0.82371  -0.80887  -0.79732  -0.78609
 Alpha  occ. eigenvalues --   -0.78099  -0.76449  -0.76180  -0.75555  -0.74960
 Alpha  occ. eigenvalues --   -0.74871  -0.74573  -0.73812  -0.72914  -0.70267
 Alpha  occ. eigenvalues --   -0.68924  -0.67607  -0.66750  -0.65241  -0.64561
 Alpha  occ. eigenvalues --   -0.63244  -0.62751  -0.61518  -0.61213  -0.60603
 Alpha  occ. eigenvalues --   -0.60009  -0.58352  -0.58048  -0.57541  -0.56492
 Alpha  occ. eigenvalues --   -0.55925  -0.54958  -0.54389  -0.53874  -0.53642
 Alpha  occ. eigenvalues --   -0.53031  -0.52887  -0.52348  -0.51757  -0.51156
 Alpha  occ. eigenvalues --   -0.50825  -0.50013  -0.49466  -0.49203  -0.48936
 Alpha  occ. eigenvalues --   -0.48570  -0.48062  -0.47847  -0.47670  -0.47520
 Alpha  occ. eigenvalues --   -0.47071  -0.46779  -0.46514  -0.46378  -0.45977
 Alpha  occ. eigenvalues --   -0.45937  -0.45377  -0.45104  -0.44898  -0.44713
 Alpha  occ. eigenvalues --   -0.44343  -0.43802  -0.43672  -0.42932  -0.42787
 Alpha  occ. eigenvalues --   -0.42416  -0.42401  -0.41806  -0.41764  -0.41643
 Alpha  occ. eigenvalues --   -0.41611  -0.41213  -0.41090  -0.40458  -0.40312
 Alpha  occ. eigenvalues --   -0.40009  -0.39796  -0.39770  -0.39634  -0.39110
 Alpha  occ. eigenvalues --   -0.39011  -0.38657  -0.38606  -0.38036  -0.37664
 Alpha  occ. eigenvalues --   -0.37448  -0.37004  -0.36063  -0.35859  -0.35222
 Alpha  occ. eigenvalues --   -0.34779  -0.34355  -0.33895  -0.32755  -0.31755
 Alpha  occ. eigenvalues --   -0.31548  -0.30657  -0.28518  -0.26715  -0.23661
 Alpha  occ. eigenvalues --   -0.19238
 Alpha virt. eigenvalues --   -0.06314  -0.01186   0.02321   0.06205   0.07277
 Alpha virt. eigenvalues --    0.08829   0.10479   0.11601   0.11813   0.12185
 Alpha virt. eigenvalues --    0.12482   0.13143   0.13193   0.13457   0.13507

 Mulliken charges:
               1
     1  O   -0.530720
     2  O   -0.598833
     3  C    0.025193
     4  C   -0.120499
     5  C   -0.180912
     6  C    0.103070
     7  C    0.114527
     8  C   -0.040656
     9  C   -0.297246
    10  C   -0.275626
    11  C   -0.168600
    12  C   -0.128136
    13  C    0.219078
    14  C    0.046244
    15  C   -0.075030
    16  C   -0.242278
    17  C    0.099376
    18  C   -0.330502
    19  C   -0.319077
    20  C   -0.350236
    21  C   -0.107700
    22  C   -0.147391
    23  C   -0.373156
    24  C    0.083975
    25  C   -0.095203
    26  C   -0.382858
    27  C    0.128711
    28  C   -0.098282
    29  C   -0.360349
    30  C   -0.083496
    31  C   -0.069641
    32  C   -0.064890
    33  C   -0.140993
    34  C    0.122593
    35  C   -0.142206
    36  C    0.127175
    37  C   -0.404517
    38  C   -0.086770
    39  C   -0.075683
    40  C   -0.369167
    41  C   -0.108932
    42  C   -0.103006
    43  H    0.086936
    44  H    0.102065
    45  H    0.090798
    46  H    0.100978
    47  H    0.103839
    48  H    0.098191
    49  H    0.065322
    50  H    0.124102
    51  H    0.082707
    52  H    0.066206
    53  H    0.089028
    54  H    0.081755
    55  H    0.052555
    56  H    0.088977
    57  H    0.075154
    58  H    0.091274
    59  H    0.106847
    60  H    0.091165
    61  H    0.109203
    62  H    0.107001
    63  H    0.092091
    64  H    0.119901
    65  H    0.109439
    66  H    0.099357
    67  H    0.131297
    68  H    0.113080
    69  H    0.297034
    70  H    0.096320
    71  H    0.076304
    72  H    0.106877
    73  H    0.128652
    74  H    0.101541
    75  H    0.309758
    76  H    0.083649
    77  H    0.118033
    78  H    0.132929
    79  H    0.132671
    80  H    0.084005
    81  H    0.084099
    82  H    0.109239
    83  H    0.085055
    84  H    0.069261
    85  H    0.078817
    86  H    0.081049
    87  H    0.088825
    88  H    0.067421
    89  H    0.112996
    90  H    0.102222
    91  H    0.114176
    92  H    0.074223
    93  H    0.088781
    94  H    0.105735
    95  H    0.098133
    96  H    0.112610
    97  H    0.087944
    98  H    0.095021
 Sum of Mulliken charges =  -0.00000

 Dipole moment (field-independent basis, Debye):
    X=              0.5443    Y=             -0.6417    Z=             -0.6902  Tot=              1.0883
 Quadrupole moment (field-independent basis, Debye-Ang):
   XX=           -303.8106   YY=           -238.9863   ZZ=           -261.5636
   XY=             18.6024   XZ=             35.7184   YZ=              1.6280

 Normal termination of Gaussian 16 at Mon Jul 15 09:09:28 2019.
