 Gaussian 16, Revision A.03,
 Gaussian 16:  ES64L-G16RevA.03 25-Dec-2016

 -------------------------------------
 # td=(NStates=1) CAM-B3LYP/6-31G(d,p)
 -------------------------------------

 --
 TD
 --
 Symbolic Z-matrix:
 Charge =  0 Multiplicity = 1

                         Standard orientation:
 ---------------------------------------------------------------------
 Center     Atomic      Atomic             Coordinates (Angstroms)
 Number     Number       Type             X           Y           Z
 ---------------------------------------------------------------------
      1          8           0      -14.162024   -1.973191    0.528775
      2          8           0       14.820863    0.707750    0.202176
      3          6           0      -11.734525   -0.083879    1.444176
      4          6           0      -11.036108    0.319607    0.002758
      5          6           0      -12.096535   -1.617233    1.432467
      6          6           0      -12.719746   -2.136505    0.256874
      7          6           0      -11.619225   -0.389668   -1.238926
      8          6           0       11.132466    0.997417    1.057624
      9          6           0      -10.919892    0.406773    2.624716
     10          6           0      -13.055276    0.780120    1.399596
     11          6           0       12.578762    1.373216    0.783078
     12          6           0      -12.384143   -1.499628   -1.077463
     13          6           0       13.463112    0.305085    0.393337
     14          6           0       10.747263   -0.023150   -0.003170
     15          6           0       -9.614227   -0.033754   -0.021572
     16          6           0       13.067759   -0.259251   -0.963589
     17          6           0       11.567176   -0.495088   -0.936324
     18          6           0       10.230602    2.200745    1.160076
     19          6           0       11.081394    0.247800    2.525779
     20          6           0      -11.307455    0.136137   -2.577257
     21          6           0       -8.591530    0.876811   -0.227597
     22          6           0        9.297909   -0.439122    0.110078
     23          6           0       11.018449   -1.287401   -2.233745
     24          6           0       -7.140750    0.567646   -0.318694
     25          6           0        8.800908   -1.675121   -0.163970
     26          6           0       -6.758133   -0.864603   -0.063895
     27          6           0        7.418089   -2.087872   -0.137499
     28          6           0       -6.231237    1.558451   -0.379301
     29          6           0        7.115904   -3.512859   -0.066545
     30          6           0        6.367178   -1.167377   -0.210200
     31          6           0       -4.819227    1.516148   -0.512104
     32          6           0        5.003535   -1.445391   -0.036905
     33          6           0       -4.047163    2.573592   -0.697367
     34          6           0       -2.580701    2.661883   -0.682269
     35          6           0        4.059370   -0.441938   -0.186317
     36          6           0        2.656038   -0.719478   -0.046456
     37          6           0       -1.875366    4.049760   -0.846338
     38          6           0       -1.750152    1.443577   -0.533108
     39          6           0        1.789862    0.443082   -0.316761
     40          6           0        2.213364   -2.114004    0.341708
     41          6           0       -0.436150    1.520111   -0.525158
     42          6           0        0.386940    0.324290   -0.313640
     43          1           0      -11.067503    1.485741   -0.161267
     44          1           0      -12.483352   -2.249803    2.258770
     45          1           0      -11.182541   -2.095801    1.537831
     46          1           0      -12.467383   -3.253928    0.141555
     47          1           0       -9.997180   -0.104251    2.509249
     48          1           0      -10.884562    1.452619    2.656380
     49          1           0      -11.431107    0.069808    3.580186
     50          1           0      -13.609835    0.334186    0.653982
     51          1           0      -13.547000    0.706645    2.406438
     52          1           0      -12.940796    1.926332    0.876702
     53          1           0       12.566689    2.068406    0.095248
     54          1           0       13.025869    2.022424    1.619722
     55          1           0      -12.757294   -1.795482   -2.173027
     56          1           0       13.342957   -0.504842    1.160919
     57          1           0       -9.314952   -1.077569    0.246914
     58          1           0       13.694526   -1.197862   -1.294590
     59          1           0       13.375435    0.445955   -1.505873
     60          1           0        9.416826    1.859272    1.430050
     61          1           0        9.904688    2.661611    0.120622
     62          1           0       10.692317    2.928335    1.735236
     63          1           0       11.899959   -0.574160    2.430722
     64          1           0       10.079272   -0.263399    2.592261
     65          1           0       11.232810    0.920337    3.421785
     66          1           0      -10.378241    0.327313   -2.627934
     67          1           0      -11.583631    1.024693   -2.888715
     68          1           0      -11.543646   -0.527945   -3.511983
     69          1           0      -14.590140   -2.120704   -0.403895
     70          1           0        8.776052    0.383537    0.572280
     71          1           0       -8.739859    1.835450   -0.361959
     72          1           0       11.422971   -2.360243   -2.306423
     73          1           0        9.820528   -1.314579   -2.215732
     74          1           0       11.534828   -0.765643   -3.026835
     75          1           0       15.194564    0.741469    1.175167
     76          1           0        9.463368   -2.617946   -0.597836
     77          1           0       -5.577226   -1.120510   -0.154663
     78          1           0       -6.971306   -1.405855    1.004513
     79          1           0       -7.382681   -1.538496   -0.800384
     80          1           0       -6.746057    2.571497   -0.497883
     81          1           0        6.551289   -3.912001    0.787585
     82          1           0        6.309779   -3.715331   -1.021428
     83          1           0        7.944590   -4.323749   -0.117080
     84          1           0        6.486670   -0.095032   -0.104011
     85          1           0       -4.248566    0.401673   -0.644534
     86          1           0        4.842231   -2.481666    0.022632
     87          1           0       -4.549608    3.679264   -0.530353
     88          1           0        4.635061    0.451051   -0.499346
     89          1           0       -1.167615    3.971987   -1.692723
     90          1           0       -1.211312    4.281051    0.179136
     91          1           0       -2.746461    4.819094   -0.938594
     92          1           0       -2.234261    0.456911   -0.177706
     93          1           0        2.117107    1.383268   -0.599333
     94          1           0        2.456777   -2.402076    1.300316
     95          1           0        1.175387   -2.310214    0.223852
     96          1           0        2.581934   -2.998120   -0.319266
     97          1           0       -0.004903    2.617050   -0.676048
     98          1           0       -0.127408   -0.629821   -0.034830
 ---------------------------------------------------------------------

 SCF Done:  E(RCAM-B3LYP) =  -1706.87427990     A.U. after   16 cycles

 Excitation energies and oscillator strengths:

 Excited State   1:      Singlet-A      1.8159 eV  682.78 nm  f=2.8976  <S**2>=0.000
     155 ->158         0.12337
     156 ->157         0.70532
     156 <-157        -0.13237
 This state for optimization and/or second-order correction.
 Total Energy, E(TD-HF/TD-DFT) =  -1706.80754756
 Copying the excited state density for this state as the 1-particle RhoCI density.

 The electronic state is 1-A.
 Alpha  occ. eigenvalues --  -19.21852 -19.21246 -10.31395 -10.29526 -10.29074
 Alpha  occ. eigenvalues --  -10.28973 -10.28687 -10.28118 -10.28115 -10.27913
 Alpha  occ. eigenvalues --  -10.27729 -10.27595 -10.27540 -10.27483 -10.27429
 Alpha  occ. eigenvalues --  -10.27382 -10.27335 -10.27318 -10.27183 -10.27123
 Alpha  occ. eigenvalues --  -10.26858 -10.26698 -10.26667 -10.26615 -10.26560
 Alpha  occ. eigenvalues --  -10.26553 -10.26213 -10.26211 -10.26083 -10.26052
 Alpha  occ. eigenvalues --  -10.25913 -10.25454 -10.25424 -10.25025 -10.24840
 Alpha  occ. eigenvalues --  -10.24792 -10.24089 -10.23887 -10.23768 -10.23440
 Alpha  occ. eigenvalues --  -10.23430 -10.23084  -1.08442  -1.07015  -0.93849
 Alpha  occ. eigenvalues --   -0.93257  -0.91729  -0.91372  -0.90354  -0.89222
 Alpha  occ. eigenvalues --   -0.87591  -0.86999  -0.86546  -0.85644  -0.84746
 Alpha  occ. eigenvalues --   -0.83605  -0.82327  -0.81083  -0.79766  -0.78968
 Alpha  occ. eigenvalues --   -0.78155  -0.77343  -0.75802  -0.75578  -0.75383
 Alpha  occ. eigenvalues --   -0.75305  -0.74562  -0.74457  -0.71411  -0.69739
 Alpha  occ. eigenvalues --   -0.68392  -0.67425  -0.66092  -0.64914  -0.63770
 Alpha  occ. eigenvalues --   -0.63189  -0.62851  -0.62078  -0.61723  -0.59866
 Alpha  occ. eigenvalues --   -0.59130  -0.58887  -0.57849  -0.57172  -0.56287
 Alpha  occ. eigenvalues --   -0.55780  -0.54927  -0.54299  -0.53944  -0.53480
 Alpha  occ. eigenvalues --   -0.52852  -0.52776  -0.51802  -0.51230  -0.50501
 Alpha  occ. eigenvalues --   -0.50102  -0.49861  -0.49496  -0.49372  -0.49190
 Alpha  occ. eigenvalues --   -0.48681  -0.48574  -0.48087  -0.47914  -0.47619
 Alpha  occ. eigenvalues --   -0.47360  -0.47047  -0.46895  -0.46242  -0.45981
 Alpha  occ. eigenvalues --   -0.45681  -0.45618  -0.45261  -0.45140  -0.44909
 Alpha  occ. eigenvalues --   -0.44513  -0.44193  -0.44128  -0.43683  -0.42949
 Alpha  occ. eigenvalues --   -0.42800  -0.42611  -0.42481  -0.42433  -0.42303
 Alpha  occ. eigenvalues --   -0.41838  -0.41452  -0.41267  -0.41075  -0.40935
 Alpha  occ. eigenvalues --   -0.40784  -0.40321  -0.40062  -0.39867  -0.39654
 Alpha  occ. eigenvalues --   -0.39082  -0.38850  -0.38744  -0.38343  -0.37653
 Alpha  occ. eigenvalues --   -0.37403  -0.37292  -0.37058  -0.36089  -0.35250
 Alpha  occ. eigenvalues --   -0.34714  -0.33913  -0.33558  -0.32712  -0.32048
 Alpha  occ. eigenvalues --   -0.31757  -0.29432  -0.28850  -0.26751  -0.23952
 Alpha  occ. eigenvalues --   -0.18219
 Alpha virt. eigenvalues --   -0.07054  -0.00798   0.02262   0.05565   0.06940
 Alpha virt. eigenvalues --    0.09096   0.09737   0.10962   0.11144   0.12410
 Alpha virt. eigenvalues --    0.12621   0.12753   0.12980   0.13385   0.13805

 Mulliken charges:
               1
     1  O   -0.545832
     2  O   -0.565795
     3  C    0.014630
     4  C   -0.171022
     5  C   -0.179402
     6  C    0.129933
     7  C    0.142026
     8  C   -0.041569
     9  C   -0.291996
    10  C   -0.276540
    11  C   -0.159511
    12  C   -0.164753
    13  C    0.132750
    14  C    0.084054
    15  C   -0.075086
    16  C   -0.193482
    17  C    0.013853
    18  C   -0.283884
    19  C   -0.305312
    20  C   -0.359774
    21  C   -0.077290
    22  C   -0.107803
    23  C   -0.353091
    24  C    0.135927
    25  C   -0.127170
    26  C   -0.366148
    27  C    0.115297
    28  C   -0.142144
    29  C   -0.391231
    30  C   -0.128955
    31  C   -0.056697
    32  C   -0.058910
    33  C   -0.108017
    34  C    0.046404
    35  C   -0.113008
    36  C    0.068269
    37  C   -0.362390
    38  C   -0.086064
    39  C   -0.092669
    40  C   -0.375367
    41  C   -0.084518
    42  C   -0.105828
    43  H    0.090493
    44  H    0.121462
    45  H    0.098072
    46  H    0.079870
    47  H    0.103803
    48  H    0.115606
    49  H    0.095090
    50  H    0.129147
    51  H    0.092677
    52  H    0.048024
    53  H    0.106396
    54  H    0.062896
    55  H    0.070273
    56  H    0.071298
    57  H    0.092822
    58  H    0.096685
    59  H    0.128733
    60  H    0.114166
    61  H    0.081225
    62  H    0.111982
    63  H    0.091857
    64  H    0.104753
    65  H    0.096892
    66  H    0.128860
    67  H    0.123497
    68  H    0.094890
    69  H    0.302402
    70  H    0.083574
    71  H    0.059987
    72  H    0.097578
    73  H    0.117162
    74  H    0.113129
    75  H    0.307298
    76  H    0.090287
    77  H    0.088132
    78  H    0.102951
    79  H    0.104349
    80  H    0.076281
    81  H    0.130518
    82  H    0.090358
    83  H    0.106294
    84  H    0.072495
    85  H    0.078490
    86  H    0.072864
    87  H    0.064570
    88  H    0.091561
    89  H    0.138476
    90  H    0.105904
    91  H    0.108691
    92  H    0.083769
    93  H    0.090885
    94  H    0.142276
    95  H    0.113909
    96  H    0.111329
    97  H    0.081956
    98  H    0.089177
 Sum of Mulliken charges =  -0.00000

 Dipole moment (field-independent basis, Debye):
    X=              0.1276    Y=             -0.6438    Z=              0.2347  Tot=              0.6970
 Quadrupole moment (field-independent basis, Debye-Ang):
   XX=           -299.6472   YY=           -242.8350   ZZ=           -261.5385
   XY=              1.3824   XZ=             39.9485   YZ=              0.1122

 Normal termination of Gaussian 16 at Sat Jul 13 08:49:22 2019.
