 Gaussian 16, Revision A.03,
 Gaussian 16:  ES64L-G16RevA.03 25-Dec-2016

 -------------------------------------
 # td=(NStates=1) CAM-B3LYP/6-31G(d,p)
 -------------------------------------

 --
 TD
 --
 Symbolic Z-matrix:
 Charge =  0 Multiplicity = 1

                         Standard orientation:
 ---------------------------------------------------------------------
 Center     Atomic      Atomic             Coordinates (Angstroms)
 Number     Number       Type             X           Y           Z
 ---------------------------------------------------------------------
      1          8           0      -13.978155   -2.157788    0.953669
      2          8           0       14.701543    0.949504    0.539046
      3          6           0      -11.615576    0.194834    1.235165
      4          6           0      -10.902012    0.384111   -0.099552
      5          6           0      -11.788702   -1.409797    1.561030
      6          6           0      -12.703113   -2.150940    0.574216
      7          6           0      -11.675821   -0.440575   -1.097104
      8          6           0       10.881505    0.958925    1.163683
      9          6           0      -10.725642    0.591408    2.408390
     10          6           0      -12.994345    0.832301    1.282990
     11          6           0       12.317782    1.407173    0.964441
     12          6           0      -12.333919   -1.526839   -0.775974
     13          6           0       13.435322    0.395727    0.666240
     14          6           0       10.562274   -0.063969    0.083409
     15          6           0       -9.356227   -0.053940   -0.031091
     16          6           0       13.055880   -0.281463   -0.700002
     17          6           0       11.532463   -0.470020   -0.876853
     18          6           0        9.985180    2.260310    1.068988
     19          6           0       10.706617    0.290589    2.484803
     20          6           0      -11.425338   -0.123266   -2.563800
     21          6           0       -8.384985    0.819601   -0.269513
     22          6           0        9.286507   -0.542008   -0.082567
     23          6           0       11.183882   -1.405149   -2.032755
     24          6           0       -6.940245    0.499098   -0.222943
     25          6           0        8.749863   -1.747217   -0.285409
     26          6           0       -6.513624   -0.940106    0.185529
     27          6           0        7.315920   -2.131941   -0.224297
     28          6           0       -6.113117    1.454551   -0.434966
     29          6           0        7.035097   -3.685220   -0.193198
     30          6           0        6.300909   -1.192807   -0.238340
     31          6           0       -4.645477    1.493621   -0.506853
     32          6           0        4.906395   -1.623768   -0.272864
     33          6           0       -3.966580    2.596814   -0.791065
     34          6           0       -2.471123    2.869429   -0.815040
     35          6           0        3.955394   -0.624666   -0.304315
     36          6           0        2.533990   -0.783660   -0.148924
     37          6           0       -1.880864    4.097128   -1.136194
     38          6           0       -1.746308    1.723400   -0.650182
     39          6           0        1.743157    0.334221   -0.360376
     40          6           0        2.060005   -2.226963   -0.079287
     41          6           0       -0.311026    1.572030   -0.656756
     42          6           0        0.342456    0.466176   -0.501811
     43          1           0      -10.908493    1.472866   -0.372324
     44          1           0      -12.157372   -1.543608    2.683279
     45          1           0      -10.841331   -1.914955    1.311667
     46          1           0      -12.293889   -3.190777    0.406345
     47          1           0       -9.722413   -0.153107    2.291399
     48          1           0      -10.356976    1.713813    2.190531
     49          1           0      -11.315548    0.584033    3.217142
     50          1           0      -13.572892    0.544659    0.629824
     51          1           0      -13.479877    0.668314    2.279278
     52          1           0      -13.118550    1.927345    1.283808
     53          1           0       12.456404    1.986677    0.146393
     54          1           0       12.620320    1.906637    1.976082
     55          1           0      -12.930289   -2.172512   -1.610573
     56          1           0       13.541257   -0.289670    1.398740
     57          1           0       -9.144217   -1.065882    0.004102
     58          1           0       13.642037   -1.093206   -0.760506
     59          1           0       13.316891    0.299400   -1.585058
     60          1           0        9.001542    2.098195    1.150418
     61          1           0       10.134586    2.792272   -0.002193
     62          1           0       10.390561    2.946611    2.087485
     63          1           0       11.432883   -0.490492    2.595999
     64          1           0        9.723680    0.000119    2.579175
     65          1           0       10.949296    0.982821    3.397144
     66          1           0      -10.395747   -0.307588   -2.974700
     67          1           0      -11.634745    1.049686   -2.950857
     68          1           0      -12.058204   -0.866442   -3.129826
     69          1           0      -14.813161   -2.407127    0.278569
     70          1           0        8.496549    0.191267    0.225853
     71          1           0       -8.666328    1.888474   -0.382797
     72          1           0       11.328644   -2.507722   -1.850112
     73          1           0       10.149589   -1.218691   -2.224959
     74          1           0       11.680168   -1.202010   -2.901149
     75          1           0       14.719635    1.612647    1.229619
     76          1           0        9.469238   -2.717261   -0.062448
     77          1           0       -5.506289   -1.229459   -0.094367
     78          1           0       -6.643272   -0.979453    1.280783
     79          1           0       -7.339339   -1.835008   -0.105689
     80          1           0       -6.555021    2.474597   -0.764457
     81          1           0        6.610957   -4.134658    0.755942
     82          1           0        6.526266   -3.700589   -1.122234
     83          1           0        7.915127   -4.273929   -0.512035
     84          1           0        6.624271   -0.171535   -0.406233
     85          1           0       -4.242760    0.569221   -0.209008
     86          1           0        4.472123   -2.734169   -0.397274
     87          1           0       -4.656423    3.334568   -1.152493
     88          1           0        4.471854    0.395112   -0.318909
     89          1           0       -1.521560    4.470695   -2.118197
     90          1           0       -1.077722    4.262687   -0.325732
     91          1           0       -2.832072    4.765229   -0.672284
     92          1           0       -2.206197    0.715432   -0.468895
     93          1           0        2.345313    1.267565   -0.508214
     94          1           0        2.375296   -2.673030    0.910639
     95          1           0        0.959233   -2.472049   -0.105030
     96          1           0        2.535031   -2.699206   -0.901535
     97          1           0        0.184828    2.436743   -0.946460
     98          1           0       -0.249345   -0.550057   -0.276478
 ---------------------------------------------------------------------

 SCF Done:  E(RCAM-B3LYP) =  -1706.93558603     A.U. after   14 cycles

 Excitation energies and oscillator strengths:

 Excited State   1:      Singlet-A      2.6700 eV  464.35 nm  f=2.7725  <S**2>=0.000
     155 ->158        -0.18591
     156 ->157         0.67653
 This state for optimization and/or second-order correction.
 Total Energy, E(TD-HF/TD-DFT) =  -1706.83746416
 Copying the excited state density for this state as the 1-particle RhoCI density.

 The electronic state is 1-A.
 Alpha  occ. eigenvalues --  -19.22384 -19.20979 -10.30581 -10.29080 -10.27848
 Alpha  occ. eigenvalues --  -10.27727 -10.27715 -10.27605 -10.27551 -10.27501
 Alpha  occ. eigenvalues --  -10.27425 -10.27403 -10.27220 -10.27075 -10.26782
 Alpha  occ. eigenvalues --  -10.26709 -10.26669 -10.26645 -10.26501 -10.26415
 Alpha  occ. eigenvalues --  -10.26395 -10.26300 -10.26253 -10.26243 -10.26175
 Alpha  occ. eigenvalues --  -10.25959 -10.25920 -10.25878 -10.25773 -10.25624
 Alpha  occ. eigenvalues --  -10.25574 -10.25491 -10.25433 -10.25417 -10.25406
 Alpha  occ. eigenvalues --  -10.25062 -10.24682 -10.24614 -10.24348 -10.24275
 Alpha  occ. eigenvalues --  -10.23672 -10.21841  -1.10916  -1.10216  -0.93984
 Alpha  occ. eigenvalues --   -0.93084  -0.92455  -0.91450  -0.90670  -0.89654
 Alpha  occ. eigenvalues --   -0.87717  -0.86733  -0.85902  -0.85562  -0.85095
 Alpha  occ. eigenvalues --   -0.82565  -0.82055  -0.80448  -0.80074  -0.78551
 Alpha  occ. eigenvalues --   -0.76722  -0.76449  -0.76322  -0.76265  -0.75824
 Alpha  occ. eigenvalues --   -0.75404  -0.74969  -0.73594  -0.72839  -0.70002
 Alpha  occ. eigenvalues --   -0.69005  -0.67219  -0.66628  -0.64970  -0.64212
 Alpha  occ. eigenvalues --   -0.63066  -0.61882  -0.61736  -0.60386  -0.59791
 Alpha  occ. eigenvalues --   -0.59697  -0.59099  -0.58535  -0.57642  -0.56249
 Alpha  occ. eigenvalues --   -0.56004  -0.55455  -0.54277  -0.53893  -0.53339
 Alpha  occ. eigenvalues --   -0.53104  -0.52707  -0.52258  -0.52033  -0.51213
 Alpha  occ. eigenvalues --   -0.50765  -0.50403  -0.50174  -0.49764  -0.49623
 Alpha  occ. eigenvalues --   -0.49400  -0.49009  -0.48725  -0.48494  -0.48276
 Alpha  occ. eigenvalues --   -0.47813  -0.47326  -0.46928  -0.46608  -0.46086
 Alpha  occ. eigenvalues --   -0.45728  -0.45225  -0.45088  -0.44703  -0.44342
 Alpha  occ. eigenvalues --   -0.43986  -0.43608  -0.43549  -0.43480  -0.43388
 Alpha  occ. eigenvalues --   -0.42708  -0.42656  -0.42331  -0.42291  -0.42177
 Alpha  occ. eigenvalues --   -0.41335  -0.41065  -0.40765  -0.40614  -0.40536
 Alpha  occ. eigenvalues --   -0.40393  -0.39883  -0.39708  -0.39401  -0.39095
 Alpha  occ. eigenvalues --   -0.38865  -0.38739  -0.38397  -0.37989  -0.37899
 Alpha  occ. eigenvalues --   -0.37401  -0.37073  -0.36868  -0.36184  -0.35973
 Alpha  occ. eigenvalues --   -0.34783  -0.34141  -0.33150  -0.32403  -0.31959
 Alpha  occ. eigenvalues --   -0.31245  -0.29617  -0.29122  -0.26711  -0.24087
 Alpha  occ. eigenvalues --   -0.20828
 Alpha virt. eigenvalues --   -0.04288  -0.00444   0.02749   0.05825   0.06871
 Alpha virt. eigenvalues --    0.08653   0.09674   0.10876   0.11294   0.12128
 Alpha virt. eigenvalues --    0.12241   0.13122   0.13404   0.13553   0.13583

 Mulliken charges:
               1
     1  O   -0.546249
     2  O   -0.547368
     3  C    0.006638
     4  C   -0.119864
     5  C   -0.187113
     6  C    0.204084
     7  C    0.146920
     8  C   -0.024692
     9  C   -0.256847
    10  C   -0.281113
    11  C   -0.196786
    12  C   -0.167250
    13  C    0.170764
    14  C    0.094423
    15  C   -0.092034
    16  C   -0.223658
    17  C    0.011425
    18  C   -0.272837
    19  C   -0.287282
    20  C   -0.352262
    21  C   -0.085256
    22  C   -0.136462
    23  C   -0.354662
    24  C    0.128642
    25  C   -0.098496
    26  C   -0.375670
    27  C    0.041922
    28  C   -0.150896
    29  C   -0.367176
    30  C   -0.122264
    31  C   -0.036103
    32  C   -0.093055
    33  C   -0.128437
    34  C    0.109056
    35  C   -0.120405
    36  C    0.105152
    37  C   -0.385389
    38  C   -0.098302
    39  C   -0.129823
    40  C   -0.382009
    41  C   -0.065261
    42  C   -0.074095
    43  H    0.087038
    44  H    0.088424
    45  H    0.093542
    46  H    0.060118
    47  H    0.080022
    48  H    0.064102
    49  H    0.104543
    50  H    0.113834
    51  H    0.091026
    52  H    0.081838
    53  H    0.112425
    54  H    0.053381
    55  H    0.044316
    56  H    0.078969
    57  H    0.079924
    58  H    0.122011
    59  H    0.114346
    60  H    0.116330
    61  H    0.092125
    62  H    0.068963
    63  H    0.112287
    64  H    0.117930
    65  H    0.077273
    66  H    0.121890
    67  H    0.077929
    68  H    0.101244
    69  H    0.318566
    70  H    0.063887
    71  H    0.082955
    72  H    0.109677
    73  H    0.123261
    74  H    0.106621
    75  H    0.300784
    76  H    0.073648
    77  H    0.120018
    78  H    0.135686
    79  H    0.088890
    80  H    0.064576
    81  H    0.126546
    82  H    0.138822
    83  H    0.105401
    84  H    0.096546
    85  H    0.071230
    86  H    0.095452
    87  H    0.074826
    88  H    0.080130
    89  H    0.140080
    90  H    0.123997
    91  H    0.085532
    92  H    0.073949
    93  H    0.076666
    94  H    0.121319
    95  H    0.108260
    96  H    0.133818
    97  H    0.075584
    98  H    0.067534
 Sum of Mulliken charges =  -0.00000

 Dipole moment (field-independent basis, Debye):
    X=             -0.6310    Y=             -0.7258    Z=             -0.5476  Tot=              1.1067
 Quadrupole moment (field-independent basis, Debye-Ang):
   XX=           -271.0592   YY=           -243.9724   ZZ=           -263.8058
   XY=              7.7724   XZ=             27.5753   YZ=              1.6983

 Normal termination of Gaussian 16 at Mon Jul 15 08:50:22 2019.
