 Gaussian 16, Revision A.03,
 Gaussian 16:  ES64L-G16RevA.03 25-Dec-2016

 -------------------------------------
 # td=(NStates=1) CAM-B3LYP/6-31G(d,p)
 -------------------------------------

 --
 TD
 --
 Symbolic Z-matrix:
 Charge =  0 Multiplicity = 1

                         Standard orientation:
 ---------------------------------------------------------------------
 Center     Atomic      Atomic             Coordinates (Angstroms)
 Number     Number       Type             X           Y           Z
 ---------------------------------------------------------------------
      1          8           0      -14.130021   -2.064957    0.541985
      2          8           0       14.762666    1.076110    0.350190
      3          6           0      -11.653696    0.056689    1.309115
      4          6           0      -10.899171    0.323316   -0.051970
      5          6           0      -11.921924   -1.475340    1.381322
      6          6           0      -12.659289   -2.107782    0.222771
      7          6           0      -11.608697   -0.342011   -1.224249
      8          6           0       11.027964    1.109251    1.005166
      9          6           0      -10.785396    0.417309    2.504948
     10          6           0      -12.951764    0.780739    1.269988
     11          6           0       12.302326    1.598299    0.632225
     12          6           0      -12.401811   -1.392631   -1.065952
     13          6           0       13.420756    0.548326    0.441710
     14          6           0       10.683337   -0.022621   -0.096350
     15          6           0       -9.499152    0.004360   -0.025693
     16          6           0       13.051255   -0.136949   -0.796360
     17          6           0       11.653252   -0.490063   -0.808956
     18          6           0       10.024902    2.241393    0.901633
     19          6           0       10.947769    0.393883    2.446759
     20          6           0      -11.400748    0.433216   -2.576634
     21          6           0       -8.496306    0.844097   -0.103954
     22          6           0        9.291935   -0.586280    0.007556
     23          6           0       11.315441   -1.379509   -2.030884
     24          6           0       -7.123170    0.548894   -0.111883
     25          6           0        8.791873   -1.741620   -0.200898
     26          6           0       -6.685804   -0.879759    0.050256
     27          6           0        7.364361   -2.217674   -0.204850
     28          6           0       -6.137322    1.539009   -0.374779
     29          6           0        7.198773   -3.723682    0.024354
     30          6           0        6.349327   -1.293749   -0.237228
     31          6           0       -4.807658    1.453231   -0.308782
     32          6           0        4.930606   -1.523377   -0.001252
     33          6           0       -3.913850    2.528484   -0.659750
     34          6           0       -2.505258    2.562132   -0.618607
     35          6           0        3.975393   -0.631373   -0.197771
     36          6           0        2.614172   -0.954779   -0.059086
     37          6           0       -1.889661    3.945293   -0.919043
     38          6           0       -1.830486    1.411446   -0.479785
     39          6           0        1.695092    0.143521   -0.364019
     40          6           0        2.098678   -2.339747    0.106064
     41          6           0       -0.399923    1.309288   -0.336491
     42          6           0        0.325190    0.155942   -0.211399
     43          1           0      -10.904797    1.324853    0.083173
     44          1           0      -12.367542   -1.770859    2.388738
     45          1           0      -10.935080   -1.814402    1.437533
     46          1           0      -12.481686   -3.208277    0.266164
     47          1           0       -9.902453    0.161024    2.243397
     48          1           0      -10.608384    1.489155    2.711901
     49          1           0      -11.364585    0.172538    3.353739
     50          1           0      -13.675424    0.462346    0.298700
     51          1           0      -13.606164    0.479431    2.099528
     52          1           0      -12.804102    1.880796    1.277569
     53          1           0       12.249697    2.195103   -0.230132
     54          1           0       12.617499    2.246835    1.594388
     55          1           0      -12.965375   -1.688443   -1.922581
     56          1           0       13.380785   -0.160378    1.338523
     57          1           0       -9.147857   -1.075377   -0.164826
     58          1           0       13.592416   -1.129871   -1.021221
     59          1           0       13.285242    0.284006   -1.701683
     60          1           0        8.937689    1.988833    0.851117
     61          1           0        9.942327    2.748510   -0.056749
     62          1           0       10.124999    3.198146    1.617013
     63          1           0       11.572591   -0.450743    2.230893
     64          1           0        9.940763   -0.192854    2.356749
     65          1           0       11.042802    1.086805    3.097293
     66          1           0      -10.371617    0.635585   -2.712901
     67          1           0      -11.877158    1.452309   -2.714506
     68          1           0      -11.771968   -0.185673   -3.328925
     69          1           0      -14.706299   -2.108867   -0.348543
     70          1           0        8.647650    0.226640    0.555155
     71          1           0       -8.719449    1.903669   -0.499422
     72          1           0       11.618825   -2.401433   -1.574996
     73          1           0       10.358815   -1.291219   -2.126763
     74          1           0       11.977193   -1.325208   -2.991823
     75          1           0       14.900228    1.567817    1.201367
     76          1           0        9.367063   -2.535403   -0.591038
     77          1           0       -5.654196   -0.853894    0.153166
     78          1           0       -7.182342   -1.292472    1.078156
     79          1           0       -6.987876   -1.506354   -0.789451
     80          1           0       -6.458629    2.568968   -0.618726
     81          1           0        7.154633   -3.878000    1.162168
     82          1           0        6.173471   -4.016246   -0.344344
     83          1           0        8.085700   -4.425092   -0.428690
     84          1           0        6.555986   -0.202889   -0.479015
     85          1           0       -4.139207    0.418542   -0.143916
     86          1           0        4.527029   -2.503174    0.113235
     87          1           0       -4.366200    3.558525   -1.027403
     88          1           0        4.465981    0.354815   -0.486124
     89          1           0       -1.003519    4.137841   -1.725528
     90          1           0       -1.343915    4.610730   -0.050504
     91          1           0       -2.559133    4.594658   -1.116440
     92          1           0       -2.305000    0.385071   -0.599661
     93          1           0        1.956110    1.226448   -0.501960
     94          1           0        2.171363   -2.422151    1.313079
     95          1           0        1.015177   -2.275769   -0.271446
     96          1           0        2.694088   -2.925234   -0.300642
     97          1           0        0.075362    2.201756   -0.525946
     98          1           0       -0.230579   -0.665714    0.012305
 ---------------------------------------------------------------------

 SCF Done:  E(RCAM-B3LYP) =  -1706.88970431     A.U. after   15 cycles

 Excitation energies and oscillator strengths:

 Excited State   1:      Singlet-A      2.0819 eV  595.53 nm  f=2.9628  <S**2>=0.000
     155 ->158        -0.13352
     156 ->157         0.69708
 This state for optimization and/or second-order correction.
 Total Energy, E(TD-HF/TD-DFT) =  -1706.81319483
 Copying the excited state density for this state as the 1-particle RhoCI density.

 The electronic state is 1-A.
 Alpha  occ. eigenvalues --  -19.21440 -19.20753 -10.31134 -10.30699 -10.28377
 Alpha  occ. eigenvalues --  -10.28005 -10.27812 -10.27788 -10.27749 -10.27704
 Alpha  occ. eigenvalues --  -10.27704 -10.27314 -10.27240 -10.26967 -10.26621
 Alpha  occ. eigenvalues --  -10.26543 -10.26541 -10.26508 -10.26283 -10.26168
 Alpha  occ. eigenvalues --  -10.25897 -10.25873 -10.25848 -10.25679 -10.25610
 Alpha  occ. eigenvalues --  -10.25573 -10.25543 -10.25504 -10.25480 -10.25389
 Alpha  occ. eigenvalues --  -10.25307 -10.25269 -10.25251 -10.25008 -10.25006
 Alpha  occ. eigenvalues --  -10.24969 -10.24838 -10.24696 -10.24134 -10.24053
 Alpha  occ. eigenvalues --  -10.23938 -10.22132  -1.08351  -1.04924  -0.95224
 Alpha  occ. eigenvalues --   -0.94441  -0.92746  -0.92065  -0.90940  -0.90025
 Alpha  occ. eigenvalues --   -0.88447  -0.88123  -0.87014  -0.86413  -0.85454
 Alpha  occ. eigenvalues --   -0.83355  -0.82804  -0.80617  -0.80441  -0.79338
 Alpha  occ. eigenvalues --   -0.77305  -0.77101  -0.76599  -0.76431  -0.76181
 Alpha  occ. eigenvalues --   -0.75979  -0.75812  -0.75532  -0.73073  -0.70470
 Alpha  occ. eigenvalues --   -0.69108  -0.68217  -0.67150  -0.65812  -0.63866
 Alpha  occ. eigenvalues --   -0.63082  -0.62799  -0.62432  -0.60677  -0.60059
 Alpha  occ. eigenvalues --   -0.59175  -0.58990  -0.58169  -0.57545  -0.56874
 Alpha  occ. eigenvalues --   -0.55795  -0.55439  -0.55214  -0.54611  -0.54302
 Alpha  occ. eigenvalues --   -0.53423  -0.52909  -0.52783  -0.52611  -0.51919
 Alpha  occ. eigenvalues --   -0.51326  -0.50711  -0.50603  -0.49795  -0.49425
 Alpha  occ. eigenvalues --   -0.49059  -0.48803  -0.48456  -0.48251  -0.47848
 Alpha  occ. eigenvalues --   -0.47477  -0.47281  -0.47231  -0.46833  -0.46500
 Alpha  occ. eigenvalues --   -0.46125  -0.45855  -0.45679  -0.45435  -0.45358
 Alpha  occ. eigenvalues --   -0.44591  -0.44387  -0.44271  -0.43872  -0.43445
 Alpha  occ. eigenvalues --   -0.43317  -0.43032  -0.42638  -0.42521  -0.42489
 Alpha  occ. eigenvalues --   -0.41547  -0.41083  -0.40948  -0.40881  -0.40738
 Alpha  occ. eigenvalues --   -0.40713  -0.40596  -0.40225  -0.40100  -0.39183
 Alpha  occ. eigenvalues --   -0.39047  -0.38877  -0.38445  -0.38191  -0.37979
 Alpha  occ. eigenvalues --   -0.37585  -0.37417  -0.36721  -0.36489  -0.35886
 Alpha  occ. eigenvalues --   -0.35705  -0.33899  -0.33632  -0.32028  -0.31859
 Alpha  occ. eigenvalues --   -0.31388  -0.30243  -0.29736  -0.26923  -0.23770
 Alpha  occ. eigenvalues --   -0.19285
 Alpha virt. eigenvalues --   -0.06256  -0.01118   0.02819   0.05364   0.06921
 Alpha virt. eigenvalues --    0.09054   0.11005   0.11541   0.11742   0.12683
 Alpha virt. eigenvalues --    0.12877   0.13310   0.13510   0.14051   0.14201

 Mulliken charges:
               1
     1  O   -0.579205
     2  O   -0.572165
     3  C   -0.018061
     4  C   -0.118822
     5  C   -0.172220
     6  C    0.156495
     7  C    0.111255
     8  C   -0.000082
     9  C   -0.295137
    10  C   -0.276687
    11  C   -0.182990
    12  C   -0.137605
    13  C    0.174016
    14  C    0.043107
    15  C   -0.103204
    16  C   -0.207712
    17  C    0.022636
    18  C   -0.326154
    19  C   -0.279950
    20  C   -0.356020
    21  C   -0.083277
    22  C   -0.102051
    23  C   -0.343808
    24  C    0.094046
    25  C   -0.098835
    26  C   -0.360617
    27  C    0.071211
    28  C   -0.119362
    29  C   -0.360866
    30  C   -0.131110
    31  C   -0.056388
    32  C   -0.085788
    33  C   -0.156872
    34  C    0.136123
    35  C   -0.056347
    36  C    0.031556
    37  C   -0.358933
    38  C   -0.137023
    39  C   -0.124110
    40  C   -0.324164
    41  C   -0.097390
    42  C   -0.051159
    43  H    0.092455
    44  H    0.098910
    45  H    0.099135
    46  H    0.097046
    47  H    0.114367
    48  H    0.086300
    49  H    0.110646
    50  H    0.081201
    51  H    0.105020
    52  H    0.082083
    53  H    0.114530
    54  H    0.045984
    55  H    0.072601
    56  H    0.077459
    57  H    0.082591
    58  H    0.095320
    59  H    0.135994
    60  H    0.100567
    61  H    0.107017
    62  H    0.085705
    63  H    0.112955
    64  H    0.100464
    65  H    0.107226
    66  H    0.125777
    67  H    0.114402
    68  H    0.111619
    69  H    0.300096
    70  H    0.072751
    71  H    0.070881
    72  H    0.101509
    73  H    0.125976
    74  H    0.101919
    75  H    0.305887
    76  H    0.073286
    77  H    0.111586
    78  H    0.095561
    79  H    0.127397
    80  H    0.084004
    81  H    0.127236
    82  H    0.113992
    83  H    0.102682
    84  H    0.081911
    85  H    0.074211
    86  H    0.058614
    87  H    0.072410
    88  H    0.080155
    89  H    0.104942
    90  H    0.091793
    91  H    0.123946
    92  H    0.086910
    93  H    0.080735
    94  H    0.113850
    95  H    0.118769
    96  H    0.128809
    97  H    0.075698
    98  H    0.068779
 Sum of Mulliken charges =  -0.00000

 Dipole moment (field-independent basis, Debye):
    X=              0.6167    Y=             -0.1411    Z=             -1.4317  Tot=              1.5652
 Quadrupole moment (field-independent basis, Debye-Ang):
   XX=           -297.0749   YY=           -244.1224   ZZ=           -260.8363
   XY=             -3.1336   XZ=             36.0328   YZ=              2.8001

 Normal termination of Gaussian 16 at Mon Jul 15 18:32:29 2019.
