 Gaussian 16, Revision A.03,
 Gaussian 16:  ES64L-G16RevA.03 25-Dec-2016

 -------------------------------------
 # td=(NStates=1) CAM-B3LYP/6-31G(d,p)
 -------------------------------------

 --
 TD
 --
 Symbolic Z-matrix:
 Charge =  0 Multiplicity = 1

                         Standard orientation:
 ---------------------------------------------------------------------
 Center     Atomic      Atomic             Coordinates (Angstroms)
 Number     Number       Type             X           Y           Z
 ---------------------------------------------------------------------
      1          8           0      -14.072671   -1.955808    0.560128
      2          8           0       14.778658    0.750560    0.398927
      3          6           0      -11.642835   -0.035426    1.377535
      4          6           0      -10.949140    0.243742    0.121638
      5          6           0      -11.859330   -1.584071    1.372584
      6          6           0      -12.698354   -2.147222    0.184128
      7          6           0      -11.619015   -0.277670   -1.151200
      8          6           0       11.068662    1.061968    1.016525
      9          6           0      -10.747201    0.239445    2.508908
     10          6           0      -13.062165    0.820792    1.438949
     11          6           0       12.565794    1.441598    0.880763
     12          6           0      -12.412149   -1.364427   -1.081566
     13          6           0       13.474155    0.346421    0.550613
     14          6           0       10.614765   -0.034563   -0.094171
     15          6           0       -9.474778   -0.083240    0.006871
     16          6           0       13.039330   -0.186139   -0.813631
     17          6           0       11.568551   -0.519280   -0.895139
     18          6           0       10.073804    2.271655    0.975196
     19          6           0       10.859514    0.396124    2.450591
     20          6           0      -11.224225    0.445820   -2.473702
     21          6           0       -8.470157    0.778447   -0.170224
     22          6           0        9.249033   -0.481301    0.046526
     23          6           0       11.289846   -1.461696   -2.008534
     24          6           0       -7.024768    0.506641   -0.149680
     25          6           0        8.719889   -1.791171   -0.125512
     26          6           0       -6.691611   -0.991008    0.042051
     27          6           0        7.327257   -2.149768   -0.087180
     28          6           0       -6.172853    1.433945   -0.390744
     29          6           0        6.962979   -3.540372    0.049057
     30          6           0        6.348136   -1.140607   -0.241908
     31          6           0       -4.730641    1.381699   -0.564992
     32          6           0        4.941245   -1.503477   -0.283411
     33          6           0       -4.046512    2.522642   -0.685513
     34          6           0       -2.602910    2.605784   -0.790362
     35          6           0        3.992165   -0.532853   -0.470135
     36          6           0        2.563819   -0.733299   -0.244274
     37          6           0       -2.056951    4.069265   -0.743258
     38          6           0       -1.779812    1.532286   -0.440112
     39          6           0        1.646625    0.257758   -0.456323
     40          6           0        2.159438   -2.181700    0.107568
     41          6           0       -0.323278    1.548699   -0.535349
     42          6           0        0.322573    0.286301   -0.483929
     43          1           0      -10.955072    1.258366    0.183608
     44          1           0      -12.574729   -1.931626    2.250877
     45          1           0      -10.859305   -2.122783    1.290019
     46          1           0      -12.431089   -3.089042    0.153336
     47          1           0       -9.790803   -0.375764    2.563503
     48          1           0      -10.668482    1.254984    2.634208
     49          1           0      -11.459668    0.122664    3.506799
     50          1           0      -13.838808    0.335692    0.685569
     51          1           0      -13.529974    0.779775    2.321729
     52          1           0      -12.763092    1.779799    1.072649
     53          1           0       12.536047    2.262833    0.199068
     54          1           0       12.733986    2.162457    1.916818
     55          1           0      -12.535657   -1.818699   -1.954795
     56          1           0       13.501161   -0.477452    1.225837
     57          1           0       -9.052872   -1.201754   -0.046662
     58          1           0       13.842873   -0.959301   -0.928158
     59          1           0       13.463064    0.783318   -1.376246
     60          1           0        9.009134    2.225181    1.281706
     61          1           0        9.897004    2.506869   -0.093629
     62          1           0       10.405841    2.952021    1.573644
     63          1           0       11.538717   -0.592971    2.601525
     64          1           0        9.866522    0.004761    2.571647
     65          1           0       11.060160    1.252538    3.165688
     66          1           0      -10.160564    0.418589   -2.644849
     67          1           0      -11.716662    1.479660   -2.246820
     68          1           0      -11.751486    0.041435   -3.388087
     69          1           0      -14.464627   -1.740172   -0.424540
     70          1           0        8.611528    0.397295    0.179255
     71          1           0       -8.631709    1.849603   -0.056394
     72          1           0       11.989372   -2.220956   -1.935094
     73          1           0       10.209934   -1.579319   -2.270519
     74          1           0       11.745177   -0.900729   -2.893188
     75          1           0       15.061343    1.325943    1.094823
     76          1           0        9.519821   -2.493910   -0.031075
     77          1           0       -5.584340   -1.255754   -0.256897
     78          1           0       -6.876953   -1.285765    1.120941
     79          1           0       -7.283246   -1.552269   -0.575151
     80          1           0       -6.619370    2.577018   -0.309709
     81          1           0        6.429678   -3.829167    1.004063
     82          1           0        6.403412   -4.097536   -0.901274
     83          1           0        7.900987   -4.170058    0.164441
     84          1           0        6.615700   -0.143130   -0.448704
     85          1           0       -4.243086    0.439487   -0.706802
     86          1           0        4.667530   -2.397261    0.054606
     87          1           0       -4.618755    3.401720   -0.801330
     88          1           0        4.261542    0.522375   -0.800873
     89          1           0       -1.443765    4.136712   -1.649549
     90          1           0       -1.513524    4.108785    0.021582
     91          1           0       -2.799860    4.743664   -0.874203
     92          1           0       -2.377391    0.604763   -0.272712
     93          1           0        2.221631    1.122010   -0.421953
     94          1           0        2.987062   -2.574745    0.788274
     95          1           0        1.012525   -2.138754    0.477414
     96          1           0        2.097620   -2.735339   -0.946384
     97          1           0        0.257911    2.426151   -0.747011
     98          1           0       -0.143677   -0.660675   -0.265403
 ---------------------------------------------------------------------

 SCF Done:  E(RCAM-B3LYP) =  -1706.94281712     A.U. after   15 cycles

 Excitation energies and oscillator strengths:

 Excited State   1:      Singlet-A      2.2182 eV  558.94 nm  f=2.8622  <S**2>=0.000
     155 ->158         0.16393
     156 ->157         0.68738
 This state for optimization and/or second-order correction.
 Total Energy, E(TD-HF/TD-DFT) =  -1706.86129989
 Copying the excited state density for this state as the 1-particle RhoCI density.

 The electronic state is 1-A.
 Alpha  occ. eigenvalues --  -19.21344 -19.20956 -10.29615 -10.28687 -10.28085
 Alpha  occ. eigenvalues --  -10.27813 -10.27789 -10.27705 -10.27343 -10.27220
 Alpha  occ. eigenvalues --  -10.27082 -10.27038 -10.26965 -10.26831 -10.26818
 Alpha  occ. eigenvalues --  -10.26710 -10.26707 -10.26553 -10.26442 -10.26417
 Alpha  occ. eigenvalues --  -10.26362 -10.26300 -10.26284 -10.26212 -10.26207
 Alpha  occ. eigenvalues --  -10.26177 -10.26019 -10.25908 -10.25906 -10.25799
 Alpha  occ. eigenvalues --  -10.25583 -10.25375 -10.25371 -10.25228 -10.24871
 Alpha  occ. eigenvalues --  -10.24425 -10.24259 -10.24186 -10.24004 -10.23944
 Alpha  occ. eigenvalues --  -10.23823 -10.23511  -1.11557  -1.07253  -0.94236
 Alpha  occ. eigenvalues --   -0.92961  -0.92423  -0.91916  -0.90711  -0.89970
 Alpha  occ. eigenvalues --   -0.87378  -0.86655  -0.86508  -0.85485  -0.84832
 Alpha  occ. eigenvalues --   -0.83065  -0.82176  -0.80412  -0.80232  -0.78581
 Alpha  occ. eigenvalues --   -0.77193  -0.76451  -0.76169  -0.75723  -0.75558
 Alpha  occ. eigenvalues --   -0.74964  -0.74793  -0.74534  -0.73550  -0.70742
 Alpha  occ. eigenvalues --   -0.69369  -0.67937  -0.67018  -0.65633  -0.63769
 Alpha  occ. eigenvalues --   -0.63719  -0.62783  -0.62557  -0.60782  -0.60480
 Alpha  occ. eigenvalues --   -0.59549  -0.58801  -0.57573  -0.56805  -0.56339
 Alpha  occ. eigenvalues --   -0.55792  -0.55535  -0.54930  -0.54429  -0.53542
 Alpha  occ. eigenvalues --   -0.53431  -0.52657  -0.52462  -0.52126  -0.51488
 Alpha  occ. eigenvalues --   -0.51106  -0.50993  -0.50662  -0.50089  -0.49653
 Alpha  occ. eigenvalues --   -0.49340  -0.49036  -0.48210  -0.47981  -0.47691
 Alpha  occ. eigenvalues --   -0.47592  -0.47466  -0.47246  -0.46781  -0.46486
 Alpha  occ. eigenvalues --   -0.46324  -0.45910  -0.45864  -0.45556  -0.45259
 Alpha  occ. eigenvalues --   -0.44809  -0.44550  -0.44021  -0.43937  -0.43583
 Alpha  occ. eigenvalues --   -0.43334  -0.43128  -0.42789  -0.42354  -0.41777
 Alpha  occ. eigenvalues --   -0.41538  -0.41380  -0.40973  -0.40871  -0.40664
 Alpha  occ. eigenvalues --   -0.40376  -0.40308  -0.39999  -0.39575  -0.39170
 Alpha  occ. eigenvalues --   -0.39081  -0.38826  -0.38068  -0.37988  -0.37679
 Alpha  occ. eigenvalues --   -0.37072  -0.36565  -0.36308  -0.36122  -0.35363
 Alpha  occ. eigenvalues --   -0.34749  -0.34049  -0.33644  -0.32607  -0.31745
 Alpha  occ. eigenvalues --   -0.31232  -0.30111  -0.29287  -0.26999  -0.23801
 Alpha  occ. eigenvalues --   -0.19682
 Alpha virt. eigenvalues --   -0.05667  -0.01094   0.02367   0.04987   0.06985
 Alpha virt. eigenvalues --    0.08658   0.11251   0.11793   0.11893   0.12733
 Alpha virt. eigenvalues --    0.12917   0.13660   0.13779   0.13876   0.14112

 Mulliken charges:
               1
     1  O   -0.553724
     2  O   -0.559214
     3  C    0.017021
     4  C   -0.102362
     5  C   -0.188755
     6  C    0.181813
     7  C    0.105531
     8  C   -0.016658
     9  C   -0.281996
    10  C   -0.306355
    11  C   -0.188079
    12  C   -0.194657
    13  C    0.189328
    14  C    0.051027
    15  C   -0.106234
    16  C   -0.242049
    17  C    0.048150
    18  C   -0.321836
    19  C   -0.281785
    20  C   -0.343448
    21  C   -0.081148
    22  C   -0.103851
    23  C   -0.361724
    24  C    0.125874
    25  C   -0.131176
    26  C   -0.374597
    27  C    0.113923
    28  C   -0.149541
    29  C   -0.390547
    30  C   -0.103801
    31  C   -0.057904
    32  C   -0.074850
    33  C   -0.102999
    34  C    0.033707
    35  C   -0.102275
    36  C    0.062071
    37  C   -0.350283
    38  C   -0.114192
    39  C   -0.088453
    40  C   -0.355369
    41  C   -0.100803
    42  C   -0.063899
    43  H    0.085418
    44  H    0.093217
    45  H    0.075377
    46  H    0.090956
    47  H    0.109815
    48  H    0.101181
    49  H    0.065304
    50  H    0.106267
    51  H    0.116132
    52  H    0.092516
    53  H    0.110256
    54  H    0.037777
    55  H    0.077213
    56  H    0.086288
    57  H    0.068885
    58  H    0.114550
    59  H    0.107563
    60  H    0.105576
    61  H    0.106137
    62  H    0.105801
    63  H    0.077286
    64  H    0.113193
    65  H    0.085581
    66  H    0.137036
    67  H    0.110416
    68  H    0.105225
    69  H    0.304348
    70  H    0.080000
    71  H    0.072223
    72  H    0.120537
    73  H    0.123385
    74  H    0.101271
    75  H    0.304803
    76  H    0.096013
    77  H    0.089420
    78  H    0.123503
    79  H    0.133226
    80  H    0.060857
    81  H    0.122789
    82  H    0.103424
    83  H    0.106223
    84  H    0.084008
    85  H    0.092436
    86  H    0.077663
    87  H    0.084615
    88  H    0.077729
    89  H    0.113781
    90  H    0.139402
    91  H    0.113781
    92  H    0.080131
    93  H    0.065814
    94  H    0.118362
    95  H    0.090375
    96  H    0.114979
    97  H    0.103586
    98  H    0.082468
 Sum of Mulliken charges =  -0.00000

 Dipole moment (field-independent basis, Debye):
    X=              0.7925    Y=              1.1772    Z=             -0.7094  Tot=              1.5866
 Quadrupole moment (field-independent basis, Debye-Ang):
   XX=           -296.3059   YY=           -244.4657   ZZ=           -264.8635
   XY=             -2.2404   XZ=             38.1885   YZ=              3.8750

 Normal termination of Gaussian 16 at Mon Jul 15 02:54:50 2019.
