 Gaussian 16, Revision A.03,
 Gaussian 16:  ES64L-G16RevA.03 25-Dec-2016

 -------------------------------------
 # td=(NStates=1) CAM-B3LYP/6-31G(d,p)
 -------------------------------------

 --
 TD
 --
 Symbolic Z-matrix:
 Charge =  0 Multiplicity = 1

                         Standard orientation:
 ---------------------------------------------------------------------
 Center     Atomic      Atomic             Coordinates (Angstroms)
 Number     Number       Type             X           Y           Z
 ---------------------------------------------------------------------
      1          8           0      -14.179090   -1.900350    0.385648
      2          8           0       14.830822    0.929792   -0.171750
      3          6           0      -11.759354    0.110476    1.257708
      4          6           0      -11.098012    0.311390    0.000958
      5          6           0      -12.014462   -1.384933    1.487226
      6          6           0      -12.736222   -2.105224    0.295800
      7          6           0      -11.599315   -0.395135   -1.243812
      8          6           0       11.252597    0.940345    1.120476
      9          6           0      -10.957220    0.761433    2.534937
     10          6           0      -13.128470    0.917827    1.161435
     11          6           0       12.619899    1.396963    0.815464
     12          6           0      -12.324944   -1.540267   -1.082373
     13          6           0       13.586406    0.334425    0.245446
     14          6           0       10.661196    0.024797   -0.014556
     15          6           0       -9.591913   -0.087074    0.055894
     16          6           0       13.000806   -0.304731   -1.019097
     17          6           0       11.561214   -0.401844   -0.989222
     18          6           0       10.325357    2.188274    1.232593
     19          6           0       11.281904    0.097115    2.496186
     20          6           0      -11.163887    0.012013   -2.634984
     21          6           0       -8.529664    0.716494   -0.193762
     22          6           0        9.359893   -0.434305    0.107207
     23          6           0       11.051979   -1.159372   -2.226014
     24          6           0       -7.142908    0.409925   -0.151725
     25          6           0        8.768884   -1.700952   -0.076154
     26          6           0       -6.720954   -1.014221    0.143590
     27          6           0        7.461383   -2.002949    0.012361
     28          6           0       -6.247154    1.475737   -0.261146
     29          6           0        7.172075   -3.477894    0.168122
     30          6           0        6.331198   -1.153017    0.017344
     31          6           0       -4.784390    1.367771   -0.314891
     32          6           0        4.947379   -1.517415   -0.020597
     33          6           0       -3.965376    2.480772   -0.497972
     34          6           0       -2.607172    2.581761   -0.699613
     35          6           0        3.897896   -0.558661   -0.205411
     36          6           0        2.515500   -0.862928   -0.180502
     37          6           0       -2.025502    3.888610   -1.028953
     38          6           0       -1.805875    1.498492   -0.503489
     39          6           0        1.672899    0.365792   -0.282586
     40          6           0        2.061220   -2.238332    0.135366
     41          6           0       -0.393162    1.545834   -0.523876
     42          6           0        0.266053    0.363366   -0.350659
     43          1           0      -11.095637    1.337283   -0.473090
     44          1           0      -12.428358   -1.397212    2.483521
     45          1           0      -11.093276   -1.831048    1.646245
     46          1           0      -12.283376   -3.138579    0.417344
     47          1           0      -10.005980    0.210042    2.600530
     48          1           0      -10.714154    1.853355    2.352595
     49          1           0      -11.489947    0.650777    3.456004
     50          1           0      -13.590210    0.454863    0.354227
     51          1           0      -13.741968    0.695998    2.123915
     52          1           0      -13.062270    1.937915    0.814410
     53          1           0       12.397915    2.136326    0.035235
     54          1           0       12.921256    1.789988    1.895951
     55          1           0      -12.627139   -2.041981   -1.858262
     56          1           0       13.733818   -0.487891    1.031908
     57          1           0       -9.234607   -1.257443    0.158410
     58          1           0       13.531551   -1.238300   -1.195169
     59          1           0       13.279276    0.410527   -1.735245
     60          1           0        9.132931    2.015143    1.748005
     61          1           0       10.145822    2.694937    0.326110
     62          1           0       10.792165    2.864216    1.849742
     63          1           0       11.733371   -1.108404    2.532108
     64          1           0       10.080824   -0.141833    2.785639
     65          1           0       11.906477    0.579378    3.347197
     66          1           0      -10.117350   -0.168283   -2.741451
     67          1           0      -11.227731    1.104648   -2.620632
     68          1           0      -11.823553   -0.465246   -3.539406
     69          1           0      -14.739283   -2.598563   -0.305987
     70          1           0        8.772245    0.254566    0.813930
     71          1           0       -8.443410    1.647988   -0.246228
     72          1           0       11.196274   -2.253353   -1.792766
     73          1           0       10.175354   -0.871290   -2.523521
     74          1           0       11.444918   -0.994591   -3.149360
     75          1           0       15.177176    1.756516    0.511004
     76          1           0        9.539301   -2.486535   -0.287368
     77          1           0       -5.694353   -1.083140    0.038436
     78          1           0       -7.125213   -1.204668    1.054361
     79          1           0       -7.177458   -1.870933   -0.604340
     80          1           0       -6.651187    2.376607   -0.246997
     81          1           0        6.800208   -3.599763    1.080305
     82          1           0        6.336777   -3.843467   -0.522355
     83          1           0        8.031799   -4.050248    0.156655
     84          1           0        6.452354    0.002951   -0.350357
     85          1           0       -4.273867    0.524426   -0.134816
     86          1           0        4.872525   -2.380883    0.265981
     87          1           0       -4.615225    3.365894   -0.836831
     88          1           0        4.227011    0.417614   -0.485062
     89          1           0       -1.569451    3.899045   -1.971049
     90          1           0       -1.416217    4.152135   -0.248069
     91          1           0       -2.691580    4.688064   -1.262671
     92          1           0       -2.225847    0.466321   -0.273378
     93          1           0        2.104859    1.377286   -0.247154
     94          1           0        2.631381   -2.803349    0.816639
     95          1           0        1.007062   -2.272604    0.446919
     96          1           0        2.266673   -2.838503   -0.760912
     97          1           0        0.185416    2.466093   -0.653884
     98          1           0       -0.130657   -0.640488   -0.508462
 ---------------------------------------------------------------------

 SCF Done:  E(RCAM-B3LYP) =  -1706.85736446     A.U. after   16 cycles

 Excitation energies and oscillator strengths:

 Excited State   1:      Singlet-A      1.7744 eV  698.73 nm  f=3.1719  <S**2>=0.000
     155 ->158         0.14969
     156 ->157         0.69665
     156 <-157        -0.11361
 This state for optimization and/or second-order correction.
 Total Energy, E(TD-HF/TD-DFT) =  -1706.79215575
 Copying the excited state density for this state as the 1-particle RhoCI density.

 The electronic state is 1-A.
 Alpha  occ. eigenvalues --  -19.22355 -19.22231 -10.31644 -10.31094 -10.28631
 Alpha  occ. eigenvalues --  -10.28389 -10.28186 -10.27275 -10.27189 -10.26831
 Alpha  occ. eigenvalues --  -10.26610 -10.26508 -10.26429 -10.26313 -10.26299
 Alpha  occ. eigenvalues --  -10.26224 -10.26221 -10.26175 -10.26078 -10.26055
 Alpha  occ. eigenvalues --  -10.26013 -10.25999 -10.25816 -10.25814 -10.25772
 Alpha  occ. eigenvalues --  -10.25745 -10.25742 -10.25652 -10.25615 -10.25596
 Alpha  occ. eigenvalues --  -10.25537 -10.24866 -10.24724 -10.24505 -10.24351
 Alpha  occ. eigenvalues --  -10.24334 -10.23694 -10.23641 -10.23528 -10.23518
 Alpha  occ. eigenvalues --  -10.23399 -10.22547  -1.06489  -1.05693  -0.93784
 Alpha  occ. eigenvalues --   -0.93504  -0.92568  -0.91253  -0.90927  -0.89951
 Alpha  occ. eigenvalues --   -0.87707  -0.87327  -0.85884  -0.85088  -0.84364
 Alpha  occ. eigenvalues --   -0.82601  -0.82131  -0.79940  -0.79652  -0.79044
 Alpha  occ. eigenvalues --   -0.77670  -0.76930  -0.76352  -0.76187  -0.75959
 Alpha  occ. eigenvalues --   -0.75186  -0.74492  -0.73901  -0.72316  -0.70770
 Alpha  occ. eigenvalues --   -0.69112  -0.67367  -0.66609  -0.64957  -0.64369
 Alpha  occ. eigenvalues --   -0.63470  -0.63317  -0.62730  -0.61723  -0.60050
 Alpha  occ. eigenvalues --   -0.58810  -0.58129  -0.57647  -0.57305  -0.56253
 Alpha  occ. eigenvalues --   -0.55906  -0.55248  -0.54683  -0.53733  -0.53633
 Alpha  occ. eigenvalues --   -0.52965  -0.52475  -0.52420  -0.51633  -0.51474
 Alpha  occ. eigenvalues --   -0.51407  -0.51173  -0.50502  -0.49236  -0.48557
 Alpha  occ. eigenvalues --   -0.48461  -0.48176  -0.47956  -0.47908  -0.47725
 Alpha  occ. eigenvalues --   -0.47468  -0.47240  -0.46840  -0.46720  -0.46386
 Alpha  occ. eigenvalues --   -0.45927  -0.45464  -0.45360  -0.44935  -0.44795
 Alpha  occ. eigenvalues --   -0.44436  -0.44004  -0.43807  -0.43456  -0.43396
 Alpha  occ. eigenvalues --   -0.43244  -0.43083  -0.42722  -0.42334  -0.42117
 Alpha  occ. eigenvalues --   -0.41946  -0.41673  -0.41630  -0.41294  -0.40694
 Alpha  occ. eigenvalues --   -0.40419  -0.39645  -0.39558  -0.39263  -0.38918
 Alpha  occ. eigenvalues --   -0.38821  -0.38711  -0.38289  -0.38056  -0.37896
 Alpha  occ. eigenvalues --   -0.37545  -0.37174  -0.36880  -0.35728  -0.35227
 Alpha  occ. eigenvalues --   -0.34535  -0.33967  -0.33587  -0.32212  -0.32130
 Alpha  occ. eigenvalues --   -0.31337  -0.29203  -0.27958  -0.25932  -0.22340
 Alpha  occ. eigenvalues --   -0.17773
 Alpha virt. eigenvalues --   -0.06526  -0.01634   0.02246   0.05843   0.07439
 Alpha virt. eigenvalues --    0.08980   0.09259   0.10048   0.11081   0.11640
 Alpha virt. eigenvalues --    0.12469   0.13011   0.13311   0.13494   0.14007

 Mulliken charges:
               1
     1  O   -0.544729
     2  O   -0.580229
     3  C    0.006263
     4  C   -0.107460
     5  C   -0.181217
     6  C    0.123311
     7  C    0.092836
     8  C   -0.015068
     9  C   -0.309374
    10  C   -0.300941
    11  C   -0.200619
    12  C   -0.095049
    13  C    0.194120
    14  C    0.095910
    15  C   -0.121810
    16  C   -0.222030
    17  C   -0.004978
    18  C   -0.297033
    19  C   -0.281558
    20  C   -0.348555
    21  C   -0.006990
    22  C   -0.123840
    23  C   -0.326418
    24  C    0.077806
    25  C   -0.128323
    26  C   -0.360590
    27  C    0.117476
    28  C   -0.132893
    29  C   -0.381350
    30  C   -0.146751
    31  C   -0.050522
    32  C   -0.043198
    33  C   -0.142559
    34  C    0.104534
    35  C   -0.107783
    36  C    0.088547
    37  C   -0.377963
    38  C   -0.126689
    39  C   -0.137097
    40  C   -0.380727
    41  C   -0.089228
    42  C   -0.071987
    43  H    0.086734
    44  H    0.107717
    45  H    0.103146
    46  H    0.083610
    47  H    0.098449
    48  H    0.097656
    49  H    0.103266
    50  H    0.130371
    51  H    0.084060
    52  H    0.090684
    53  H    0.100492
    54  H    0.076993
    55  H    0.056890
    56  H    0.073159
    57  H    0.071362
    58  H    0.125423
    59  H    0.138994
    60  H    0.070387
    61  H    0.122460
    62  H    0.109524
    63  H    0.074081
    64  H    0.084879
    65  H    0.093663
    66  H    0.137534
    67  H    0.104309
    68  H    0.099413
    69  H    0.302413
    70  H    0.073962
    71  H    0.035532
    72  H    0.104992
    73  H    0.124591
    74  H    0.105815
    75  H    0.307072
    76  H    0.081928
    77  H    0.111361
    78  H    0.138433
    79  H    0.085698
    80  H    0.077868
    81  H    0.139066
    82  H    0.105860
    83  H    0.107532
    84  H    0.055062
    85  H    0.070401
    86  H    0.041150
    87  H    0.063045
    88  H    0.083979
    89  H    0.127674
    90  H    0.134611
    91  H    0.109377
    92  H    0.084468
    93  H    0.084115
    94  H    0.136173
    95  H    0.113926
    96  H    0.127346
    97  H    0.096483
    98  H    0.089571
 Sum of Mulliken charges =  -0.00000

 Dipole moment (field-independent basis, Debye):
    X=              1.3440    Y=             -0.7390    Z=             -0.4126  Tot=              1.5882
 Quadrupole moment (field-independent basis, Debye-Ang):
   XX=           -270.7626   YY=           -236.5179   ZZ=           -260.9610
   XY=             25.0420   XZ=             28.9757   YZ=             -0.1563

 Normal termination of Gaussian 16 at Sat Jul 13 21:15:06 2019.
