 Gaussian 16, Revision A.03,
 Gaussian 16:  ES64L-G16RevA.03 25-Dec-2016

 -------------------------------------
 # td=(NStates=1) CAM-B3LYP/6-31G(d,p)
 -------------------------------------

 --
 TD
 --
 Symbolic Z-matrix:
 Charge =  0 Multiplicity = 1

                         Standard orientation:
 ---------------------------------------------------------------------
 Center     Atomic      Atomic             Coordinates (Angstroms)
 Number     Number       Type             X           Y           Z
 ---------------------------------------------------------------------
      1          8           0      -14.025526   -2.072754    0.103156
      2          8           0       14.802563    0.751479   -0.090851
      3          6           0      -11.733808   -0.192543    1.261714
      4          6           0      -10.932417    0.410048   -0.007195
      5          6           0      -11.792279   -1.720776    1.122647
      6          6           0      -12.636312   -2.174183   -0.201753
      7          6           0      -11.520444   -0.236317   -1.308112
      8          6           0       11.217482    0.913588    1.021165
      9          6           0      -11.036176    0.092955    2.656975
     10          6           0      -13.180406    0.377913    1.328664
     11          6           0       12.672057    1.262630    0.735602
     12          6           0      -12.280813   -1.395513   -1.403672
     13          6           0       13.543668    0.123489    0.257811
     14          6           0       10.727260   -0.070438    0.000116
     15          6           0       -9.524521   -0.011724   -0.004663
     16          6           0       12.982954   -0.351780   -1.062198
     17          6           0       11.479039   -0.541635   -1.022862
     18          6           0       10.412860    2.212558    0.907488
     19          6           0       11.033531    0.208691    2.446086
     20          6           0      -11.282421    0.639752   -2.562042
     21          6           0       -8.524015    0.900235    0.167612
     22          6           0        9.227744   -0.410191    0.031148
     23          6           0       11.001157   -1.340537   -2.192077
     24          6           0       -7.069031    0.572102   -0.016205
     25          6           0        8.771319   -1.671050   -0.042607
     26          6           0       -6.755126   -0.821854    0.227522
     27          6           0        7.374566   -2.005747   -0.050442
     28          6           0       -6.205463    1.546908   -0.156234
     29          6           0        6.956037   -3.477531    0.170896
     30          6           0        6.359648   -1.180869   -0.161410
     31          6           0       -4.815019    1.578004   -0.233771
     32          6           0        4.919362   -1.447913   -0.056349
     33          6           0       -4.127715    2.695763   -0.421394
     34          6           0       -2.729656    2.730342   -0.504743
     35          6           0        3.991324   -0.441024   -0.085161
     36          6           0        2.587267   -0.664530   -0.058519
     37          6           0       -2.056274    4.072637   -0.650166
     38          6           0       -1.895637    1.541201   -0.349285
     39          6           0        1.716362    0.360779   -0.234495
     40          6           0        2.177496   -2.141921    0.232545
     41          6           0       -0.469525    1.550495   -0.399905
     42          6           0        0.317447    0.391116   -0.218006
     43          1           0      -10.900001    1.378866   -0.039604
     44          1           0      -12.486053   -1.980984    1.737681
     45          1           0      -10.884401   -2.512768    1.279509
     46          1           0      -12.146583   -3.154332   -0.324174
     47          1           0      -10.098544   -0.546559    2.799307
     48          1           0      -10.832450    1.269577    2.923055
     49          1           0      -11.760385   -0.467188    3.436935
     50          1           0      -13.892842    0.301577    0.434076
     51          1           0      -13.666715    0.027702    2.216970
     52          1           0      -12.926810    1.443991    1.524087
     53          1           0       12.965621    2.000388   -0.233167
     54          1           0       13.225130    1.671098    1.589133
     55          1           0      -12.504430   -1.727306   -2.501121
     56          1           0       13.804189   -0.681503    0.930683
     57          1           0       -9.471449   -1.137822   -0.048742
     58          1           0       13.470654   -1.193728   -1.309779
     59          1           0       13.224305    0.443639   -1.639633
     60          1           0        9.617192    2.145043    1.294044
     61          1           0       10.388731    2.959957    0.069855
     62          1           0       11.117918    2.730190    1.605817
     63          1           0       11.730791   -0.640953    2.421921
     64          1           0        9.957750    0.056782    2.655184
     65          1           0       11.378832    0.957227    3.233547
     66          1           0      -10.201059    1.101689   -2.678724
     67          1           0      -12.081692    1.448127   -2.491223
     68          1           0      -11.503090    0.067498   -3.495961
     69          1           0      -14.564439   -2.510729   -0.841366
     70          1           0        8.699708    0.559892    0.381013
     71          1           0       -8.720351    1.970314    0.216763
     72          1           0       11.021757   -2.494491   -2.092840
     73          1           0       10.023055   -0.834267   -2.580722
     74          1           0       11.668723   -1.090429   -3.167374
     75          1           0       15.124042    1.518608    0.581869
     76          1           0        9.574149   -2.453775   -0.269911
     77          1           0       -5.690581   -0.865005    0.051554
     78          1           0       -6.842958   -1.179718    1.321805
     79          1           0       -7.537266   -1.699794   -0.302356
     80          1           0       -6.684694    2.392156   -0.562862
     81          1           0        6.628084   -3.675292    1.175108
     82          1           0        6.313290   -3.971318   -0.646717
     83          1           0        8.016961   -3.896283    0.246028
     84          1           0        6.766293   -0.039440   -0.160451
     85          1           0       -4.414087    0.635347   -0.463213
     86          1           0        4.644548   -2.490309    0.107353
     87          1           0       -4.616193    3.525594   -0.537868
     88          1           0        4.526320    0.399970   -0.379281
     89          1           0       -1.246922    3.956267   -1.521449
     90          1           0       -1.262059    4.088636    0.115665
     91          1           0       -2.681462    4.918217   -0.747738
     92          1           0       -2.301290    0.642324   -0.493704
     93          1           0        2.116243    1.230376   -0.337723
     94          1           0        2.657930   -2.422357    1.258240
     95          1           0        1.159168   -2.191145    0.318377
     96          1           0        2.678078   -2.658010   -0.620755
     97          1           0       -0.004411    2.531312   -0.259032
     98          1           0       -0.201667   -0.585441   -0.264869
 ---------------------------------------------------------------------

 SCF Done:  E(RCAM-B3LYP) =  -1706.87429619     A.U. after   14 cycles

 Excitation energies and oscillator strengths:

 Excited State   1:      Singlet-A      2.2189 eV  558.77 nm  f=2.6519  <S**2>=0.000
     155 ->158        -0.13347
     156 ->157         0.69512
 This state for optimization and/or second-order correction.
 Total Energy, E(TD-HF/TD-DFT) =  -1706.79275395
 Copying the excited state density for this state as the 1-particle RhoCI density.

 The electronic state is 1-A.
 Alpha  occ. eigenvalues --  -19.23603 -19.20652 -10.30905 -10.29334 -10.27956
 Alpha  occ. eigenvalues --  -10.27886 -10.27756 -10.27722 -10.27086 -10.26933
 Alpha  occ. eigenvalues --  -10.26724 -10.26702 -10.26681 -10.26657 -10.26646
 Alpha  occ. eigenvalues --  -10.26578 -10.26459 -10.26366 -10.26330 -10.26251
 Alpha  occ. eigenvalues --  -10.26167 -10.26152 -10.26051 -10.26027 -10.25926
 Alpha  occ. eigenvalues --  -10.25886 -10.25708 -10.25702 -10.25599 -10.25498
 Alpha  occ. eigenvalues --  -10.25330 -10.25326 -10.25131 -10.25124 -10.25080
 Alpha  occ. eigenvalues --  -10.25026 -10.24499 -10.24169 -10.24098 -10.23866
 Alpha  occ. eigenvalues --  -10.23230 -10.22492  -1.07428  -1.06629  -0.93557
 Alpha  occ. eigenvalues --   -0.93186  -0.92334  -0.91777  -0.90512  -0.89977
 Alpha  occ. eigenvalues --   -0.87274  -0.87074  -0.85961  -0.85146  -0.84355
 Alpha  occ. eigenvalues --   -0.83199  -0.81666  -0.79874  -0.79650  -0.78372
 Alpha  occ. eigenvalues --   -0.77562  -0.76709  -0.75725  -0.75289  -0.75205
 Alpha  occ. eigenvalues --   -0.74899  -0.74882  -0.73436  -0.73054  -0.70259
 Alpha  occ. eigenvalues --   -0.68631  -0.66993  -0.66623  -0.64943  -0.64167
 Alpha  occ. eigenvalues --   -0.63358  -0.62740  -0.61673  -0.61269  -0.60250
 Alpha  occ. eigenvalues --   -0.59373  -0.58443  -0.57676  -0.57500  -0.56522
 Alpha  occ. eigenvalues --   -0.56167  -0.55025  -0.54607  -0.54201  -0.53811
 Alpha  occ. eigenvalues --   -0.52807  -0.52262  -0.51881  -0.51798  -0.51578
 Alpha  occ. eigenvalues --   -0.50143  -0.50067  -0.49733  -0.49311  -0.48961
 Alpha  occ. eigenvalues --   -0.48646  -0.48200  -0.48105  -0.48050  -0.47888
 Alpha  occ. eigenvalues --   -0.47065  -0.46892  -0.46539  -0.46107  -0.46034
 Alpha  occ. eigenvalues --   -0.45638  -0.45572  -0.45463  -0.45327  -0.44982
 Alpha  occ. eigenvalues --   -0.44539  -0.44377  -0.43843  -0.43594  -0.43374
 Alpha  occ. eigenvalues --   -0.43231  -0.42973  -0.42763  -0.42545  -0.42031
 Alpha  occ. eigenvalues --   -0.41779  -0.41488  -0.41366  -0.40892  -0.40381
 Alpha  occ. eigenvalues --   -0.40314  -0.40112  -0.40016  -0.39452  -0.38781
 Alpha  occ. eigenvalues --   -0.38628  -0.38346  -0.37916  -0.37570  -0.37235
 Alpha  occ. eigenvalues --   -0.37196  -0.36704  -0.36340  -0.35946  -0.35435
 Alpha  occ. eigenvalues --   -0.34562  -0.34282  -0.33014  -0.32214  -0.32089
 Alpha  occ. eigenvalues --   -0.31130  -0.28885  -0.28591  -0.26965  -0.24244
 Alpha  occ. eigenvalues --   -0.19512
 Alpha virt. eigenvalues --   -0.05469  -0.00329   0.03009   0.05171   0.06702
 Alpha virt. eigenvalues --    0.08253   0.09531   0.10845   0.11141   0.11382
 Alpha virt. eigenvalues --    0.12599   0.12697   0.13221   0.13450   0.14023

 Mulliken charges:
               1
     1  O   -0.534799
     2  O   -0.589641
     3  C    0.025145
     4  C   -0.104699
     5  C   -0.197896
     6  C    0.125461
     7  C    0.090731
     8  C   -0.051067
     9  C   -0.294242
    10  C   -0.289206
    11  C   -0.206198
    12  C   -0.136890
    13  C    0.152768
    14  C    0.065613
    15  C   -0.038890
    16  C   -0.184015
    17  C    0.037392
    18  C   -0.275235
    19  C   -0.301293
    20  C   -0.352722
    21  C   -0.129464
    22  C   -0.122038
    23  C   -0.366046
    24  C    0.126590
    25  C   -0.094431
    26  C   -0.361842
    27  C    0.090076
    28  C   -0.139072
    29  C   -0.377980
    30  C   -0.116875
    31  C   -0.054445
    32  C   -0.098761
    33  C   -0.083886
    34  C    0.079644
    35  C   -0.087128
    36  C    0.064724
    37  C   -0.388196
    38  C   -0.104556
    39  C   -0.076903
    40  C   -0.351001
    41  C   -0.093814
    42  C   -0.100045
    43  H    0.072216
    44  H    0.126382
    45  H    0.080534
    46  H    0.082843
    47  H    0.103766
    48  H    0.085869
    49  H    0.082338
    50  H    0.123638
    51  H    0.106450
    52  H    0.082638
    53  H    0.089436
    54  H    0.076616
    55  H    0.072744
    56  H    0.086013
    57  H    0.090816
    58  H    0.111068
    59  H    0.127938
    60  H    0.098600
    61  H    0.111991
    62  H    0.092356
    63  H    0.117701
    64  H    0.120512
    65  H    0.089482
    66  H    0.105462
    67  H    0.118763
    68  H    0.103685
    69  H    0.300535
    70  H    0.086559
    71  H    0.080623
    72  H    0.113383
    73  H    0.118106
    74  H    0.084562
    75  H    0.302485
    76  H    0.098721
    77  H    0.100600
    78  H    0.117774
    79  H    0.089673
    80  H    0.075471
    81  H    0.129897
    82  H    0.117469
    83  H    0.086379
    84  H    0.051769
    85  H    0.094990
    86  H    0.088735
    87  H    0.066065
    88  H    0.084460
    89  H    0.111487
    90  H    0.136289
    91  H    0.116208
    92  H    0.072254
    93  H    0.059666
    94  H    0.115230
    95  H    0.110304
    96  H    0.126512
    97  H    0.073466
    98  H    0.075603
 Sum of Mulliken charges =  -0.00000

 Dipole moment (field-independent basis, Debye):
    X=             -1.3554    Y=              0.1134    Z=             -0.0219  Tot=              1.3603
 Quadrupole moment (field-independent basis, Debye-Ang):
   XX=           -263.0469   YY=           -241.2703   ZZ=           -262.7604
   XY=             16.4577   XZ=             39.6594   YZ=              2.4350

 Normal termination of Gaussian 16 at Mon Jul 15 01:36:36 2019.
