 Gaussian 16, Revision A.03,
 Gaussian 16:  ES64L-G16RevA.03 25-Dec-2016

 -------------------------------------
 # td=(NStates=1) CAM-B3LYP/6-31G(d,p)
 -------------------------------------

 --
 TD
 --
 Symbolic Z-matrix:
 Charge =  0 Multiplicity = 1

                         Standard orientation:
 ---------------------------------------------------------------------
 Center     Atomic      Atomic             Coordinates (Angstroms)
 Number     Number       Type             X           Y           Z
 ---------------------------------------------------------------------
      1          8           0      -14.205885   -2.024836    0.492710
      2          8           0       14.878544    0.933840    0.150476
      3          6           0      -11.802171   -0.133024    1.336319
      4          6           0      -10.982359    0.267860    0.083787
      5          6           0      -11.967172   -1.657845    1.307751
      6          6           0      -12.753040   -2.092755    0.084242
      7          6           0      -11.663203   -0.196358   -1.229874
      8          6           0       11.072749    1.017460    1.016199
      9          6           0      -11.038838    0.090578    2.648989
     10          6           0      -13.072978    0.646170    1.345504
     11          6           0       12.605026    1.553130    0.791080
     12          6           0      -12.496263   -1.322435   -1.156517
     13          6           0       13.520807    0.544912    0.368723
     14          6           0       10.678823   -0.110378   -0.015187
     15          6           0       -9.559192   -0.040743    0.012063
     16          6           0       13.003196   -0.134667   -0.868561
     17          6           0       11.608178   -0.541484   -0.904015
     18          6           0       10.194171    2.226861    0.963412
     19          6           0       11.030988    0.460054    2.475527
     20          6           0      -11.582910    0.727839   -2.399331
     21          6           0       -8.528313    0.841313   -0.116152
     22          6           0        9.338119   -0.534970    0.140880
     23          6           0       11.253205   -1.543692   -1.962485
     24          6           0       -7.165117    0.474647   -0.351913
     25          6           0        8.876542   -1.783378   -0.118274
     26          6           0       -6.722011   -0.973066   -0.181806
     27          6           0        7.464705   -2.134245   -0.047712
     28          6           0       -6.178846    1.530338   -0.482806
     29          6           0        7.114716   -3.664516    0.161653
     30          6           0        6.404752   -1.193303   -0.232508
     31          6           0       -4.787014    1.451495   -0.367601
     32          6           0        5.064532   -1.545373   -0.075066
     33          6           0       -3.997336    2.568565   -0.598886
     34          6           0       -2.530075    2.684287   -0.470868
     35          6           0        4.020101   -0.558855   -0.265366
     36          6           0        2.611866   -0.778649   -0.301478
     37          6           0       -1.940436    4.042607   -0.721598
     38          6           0       -1.786685    1.590723   -0.335896
     39          6           0        1.782689    0.254908   -0.404094
     40          6           0        2.214536   -2.260452   -0.128156
     41          6           0       -0.374375    1.473861   -0.389134
     42          6           0        0.447550    0.263819   -0.308445
     43          1           0      -10.961382    1.402753   -0.161389
     44          1           0      -12.294069   -1.922371    2.323374
     45          1           0      -10.848367   -1.966575    1.225607
     46          1           0      -12.428078   -3.251471    0.029191
     47          1           0       -9.986138   -0.295116    2.654860
     48          1           0      -11.174856    1.329014    2.815651
     49          1           0      -11.680376   -0.259182    3.377546
     50          1           0      -13.973211    0.509196    0.502437
     51          1           0      -13.367542    0.379944    2.482921
     52          1           0      -12.793467    1.674681    1.672365
     53          1           0       12.530334    2.222970    0.076839
     54          1           0       13.003020    1.886241    1.775388
     55          1           0      -13.010076   -1.905507   -2.042016
     56          1           0       13.416772   -0.358773    1.141473
     57          1           0       -9.256924   -1.065332   -0.018497
     58          1           0       13.595020   -1.047604   -1.081990
     59          1           0       13.387263    0.418708   -1.840108
     60          1           0        9.339737    2.075877    1.402587
     61          1           0        9.861818    2.648264   -0.052865
     62          1           0       10.649725    3.040610    1.403398
     63          1           0       11.818430   -0.337125    2.617084
     64          1           0       10.133165    0.059000    2.516655
     65          1           0       11.356157    1.114043    3.060905
     66          1           0      -10.526537    0.900092   -2.638316
     67          1           0      -11.923092    1.777478   -1.933020
     68          1           0      -12.149970    0.608247   -3.258093
     69          1           0      -14.739262   -1.843906   -0.405850
     70          1           0        8.612491    0.288366    0.253198
     71          1           0       -8.936389    1.773978   -0.201028
     72          1           0       11.596979   -2.585028   -1.549665
     73          1           0       10.253717   -1.534838   -2.286526
     74          1           0       11.722724   -1.387334   -2.991373
     75          1           0       15.017559    1.299150    1.129113
     76          1           0        9.612922   -2.510504   -0.338374
     77          1           0       -5.669395   -1.421508   -0.065894
     78          1           0       -7.067578   -1.555792    0.814360
     79          1           0       -7.093465   -1.424640   -1.097363
     80          1           0       -6.679306    2.512698   -0.660025
     81          1           0        6.689284   -3.979166    1.212280
     82          1           0        6.532628   -3.998698   -0.894421
     83          1           0        8.039177   -4.134661    0.244033
     84          1           0        6.795429   -0.152923   -0.525065
     85          1           0       -4.413672    0.509176   -0.100783
     86          1           0        4.714530   -2.665299    0.021966
     87          1           0       -4.350209    3.380585   -1.071128
     88          1           0        4.266937    0.520752   -0.648806
     89          1           0       -1.202480    4.014071   -1.573284
     90          1           0       -1.340015    4.177640    0.088932
     91          1           0       -2.749570    4.873086   -0.628244
     92          1           0       -2.462091    0.561977   -0.364309
     93          1           0        2.523310    1.151448   -0.382558
     94          1           0        2.141559   -2.429526    1.084239
     95          1           0        1.154053   -2.242613   -0.429365
     96          1           0        2.734936   -3.057872   -0.773123
     97          1           0        0.310931    2.366940   -0.660723
     98          1           0       -0.387878   -0.483071   -0.212086
 ---------------------------------------------------------------------

 SCF Done:  E(RCAM-B3LYP) =  -1706.88226364     A.U. after   15 cycles

 Excitation energies and oscillator strengths:

 Excited State   1:      Singlet-A      2.0085 eV  617.29 nm  f=3.2074  <S**2>=0.000
     155 ->158        -0.15438
     156 ->157         0.69077
 This state for optimization and/or second-order correction.
 Total Energy, E(TD-HF/TD-DFT) =  -1706.80845227
 Copying the excited state density for this state as the 1-particle RhoCI density.

 The electronic state is 1-A.
 Alpha  occ. eigenvalues --  -19.22800 -19.21386 -10.31437 -10.30202 -10.28886
 Alpha  occ. eigenvalues --  -10.28635 -10.28043 -10.27800 -10.27705 -10.27678
 Alpha  occ. eigenvalues --  -10.27509 -10.27401 -10.27286 -10.27210 -10.27191
 Alpha  occ. eigenvalues --  -10.27089 -10.27037 -10.26937 -10.26928 -10.26828
 Alpha  occ. eigenvalues --  -10.26820 -10.26766 -10.26713 -10.26553 -10.26366
 Alpha  occ. eigenvalues --  -10.26319 -10.26199 -10.26094 -10.25976 -10.25777
 Alpha  occ. eigenvalues --  -10.25772 -10.25708 -10.25699 -10.25611 -10.25558
 Alpha  occ. eigenvalues --  -10.25411 -10.25393 -10.25359 -10.25095 -10.23923
 Alpha  occ. eigenvalues --  -10.23220 -10.22183  -1.09080  -1.05162  -0.94091
 Alpha  occ. eigenvalues --   -0.93968  -0.92357  -0.91643  -0.90189  -0.89845
 Alpha  occ. eigenvalues --   -0.87885  -0.87515  -0.86718  -0.86034  -0.84670
 Alpha  occ. eigenvalues --   -0.82997  -0.82329  -0.80992  -0.80245  -0.78244
 Alpha  occ. eigenvalues --   -0.78174  -0.76649  -0.76578  -0.76239  -0.76003
 Alpha  occ. eigenvalues --   -0.75534  -0.75254  -0.74022  -0.72984  -0.70306
 Alpha  occ. eigenvalues --   -0.69020  -0.67064  -0.66339  -0.64760  -0.64191
 Alpha  occ. eigenvalues --   -0.63345  -0.62819  -0.62322  -0.61031  -0.59329
 Alpha  occ. eigenvalues --   -0.58686  -0.58396  -0.57661  -0.56661  -0.55959
 Alpha  occ. eigenvalues --   -0.55489  -0.54923  -0.54475  -0.53972  -0.53630
 Alpha  occ. eigenvalues --   -0.53425  -0.53107  -0.52432  -0.51992  -0.51110
 Alpha  occ. eigenvalues --   -0.50741  -0.50449  -0.49840  -0.49685  -0.49491
 Alpha  occ. eigenvalues --   -0.49254  -0.48944  -0.48676  -0.48409  -0.48073
 Alpha  occ. eigenvalues --   -0.47672  -0.47469  -0.47168  -0.47109  -0.46624
 Alpha  occ. eigenvalues --   -0.46258  -0.46080  -0.45962  -0.45228  -0.44908
 Alpha  occ. eigenvalues --   -0.44750  -0.44361  -0.43762  -0.43575  -0.43436
 Alpha  occ. eigenvalues --   -0.43181  -0.42739  -0.42650  -0.42371  -0.42102
 Alpha  occ. eigenvalues --   -0.41521  -0.41462  -0.40724  -0.40257  -0.40243
 Alpha  occ. eigenvalues --   -0.40168  -0.39789  -0.39572  -0.39475  -0.39209
 Alpha  occ. eigenvalues --   -0.39014  -0.38620  -0.38502  -0.37958  -0.37814
 Alpha  occ. eigenvalues --   -0.37519  -0.37406  -0.36942  -0.36356  -0.35478
 Alpha  occ. eigenvalues --   -0.35320  -0.35082  -0.33929  -0.32490  -0.32367
 Alpha  occ. eigenvalues --   -0.30991  -0.29017  -0.28845  -0.26436  -0.23183
 Alpha  occ. eigenvalues --   -0.19095
 Alpha virt. eigenvalues --   -0.06401  -0.01856   0.01936   0.04209   0.06386
 Alpha virt. eigenvalues --    0.08874   0.10255   0.10866   0.11476   0.11820
 Alpha virt. eigenvalues --    0.12494   0.12768   0.13033   0.13458   0.13658

 Mulliken charges:
               1
     1  O   -0.560581
     2  O   -0.547284
     3  C    0.016948
     4  C   -0.133789
     5  C   -0.153579
     6  C    0.159016
     7  C    0.111913
     8  C   -0.053632
     9  C   -0.301984
    10  C   -0.269332
    11  C   -0.165262
    12  C   -0.171524
    13  C    0.160695
    14  C    0.066789
    15  C   -0.075377
    16  C   -0.247721
    17  C    0.081906
    18  C   -0.308948
    19  C   -0.274739
    20  C   -0.354423
    21  C   -0.075372
    22  C   -0.108472
    23  C   -0.376971
    24  C    0.073752
    25  C   -0.108557
    26  C   -0.379270
    27  C    0.046516
    28  C   -0.125851
    29  C   -0.356332
    30  C   -0.096896
    31  C   -0.046310
    32  C   -0.104909
    33  C   -0.115136
    34  C    0.097915
    35  C   -0.140891
    36  C    0.138094
    37  C   -0.380392
    38  C   -0.114443
    39  C   -0.120298
    40  C   -0.367755
    41  C   -0.119388
    42  C   -0.091884
    43  H    0.069042
    44  H    0.107615
    45  H    0.079140
    46  H    0.070366
    47  H    0.116248
    48  H    0.058379
    49  H    0.118650
    50  H    0.109294
    51  H    0.069397
    52  H    0.091888
    53  H    0.108184
    54  H    0.065421
    55  H    0.083788
    56  H    0.050528
    57  H    0.083579
    58  H    0.113097
    59  H    0.099662
    60  H    0.113058
    61  H    0.091281
    62  H    0.110807
    63  H    0.085374
    64  H    0.113824
    65  H    0.105012
    66  H    0.127137
    67  H    0.102944
    68  H    0.127770
    69  H    0.298773
    70  H    0.089500
    71  H    0.072507
    72  H    0.106200
    73  H    0.133221
    74  H    0.098116
    75  H    0.306333
    76  H    0.093030
    77  H    0.110662
    78  H    0.100101
    79  H    0.133754
    80  H    0.078354
    81  H    0.115567
    82  H    0.104449
    83  H    0.115809
    84  H    0.086736
    85  H    0.087387
    86  H    0.104710
    87  H    0.082794
    88  H    0.071411
    89  H    0.128698
    90  H    0.143579
    91  H    0.103495
    92  H    0.066672
    93  H    0.085130
    94  H    0.111086
    95  H    0.110151
    96  H    0.118500
    97  H    0.071976
    98  H    0.093573
 Sum of Mulliken charges =  -0.00000

 Dipole moment (field-independent basis, Debye):
    X=              0.6242    Y=              0.4217    Z=             -0.9751  Tot=              1.2322
 Quadrupole moment (field-independent basis, Debye-Ang):
   XX=           -298.8178   YY=           -248.1406   ZZ=           -260.0302
   XY=             -9.8030   XZ=             42.2230   YZ=              2.4743

 Normal termination of Gaussian 16 at Tue Jul 16 13:09:28 2019.
