 Gaussian 16, Revision A.03,
 Gaussian 16:  ES64L-G16RevA.03 25-Dec-2016

 -------------------------------------
 # td=(NStates=1) CAM-B3LYP/6-31G(d,p)
 -------------------------------------

 --
 TD
 --
 Symbolic Z-matrix:
 Charge =  0 Multiplicity = 1

                         Standard orientation:
 ---------------------------------------------------------------------
 Center     Atomic      Atomic             Coordinates (Angstroms)
 Number     Number       Type             X           Y           Z
 ---------------------------------------------------------------------
      1          8           0      -14.057554   -2.103332    0.517329
      2          8           0       14.870345    0.738352    0.129039
      3          6           0      -11.806715   -0.144379    1.376103
      4          6           0      -11.067446    0.304120    0.114098
      5          6           0      -11.983456   -1.600877    1.269980
      6          6           0      -12.712796   -2.099371    0.119005
      7          6           0      -11.709037   -0.123441   -1.221692
      8          6           0       11.280698    0.743045    1.316421
      9          6           0      -10.870415    0.223065    2.580318
     10          6           0      -13.041549    0.689427    1.530229
     11          6           0       12.663619    1.174678    1.054616
     12          6           0      -12.461918   -1.325375   -1.184279
     13          6           0       13.643475    0.201859    0.309906
     14          6           0       10.796926    0.064263    0.088339
     15          6           0       -9.617428   -0.092599    0.108224
     16          6           0       13.014765   -0.070859   -1.020820
     17          6           0       11.573003   -0.269154   -0.975688
     18          6           0       10.412050    2.067854    1.493053
     19          6           0       11.177638   -0.153117    2.548132
     20          6           0      -11.421638    0.617412   -2.449079
     21          6           0       -8.499606    0.754508    0.150194
     22          6           0        9.397164   -0.263077    0.100200
     23          6           0       11.112847   -0.935311   -2.172716
     24          6           0       -7.116664    0.444359   -0.118447
     25          6           0        8.845603   -1.525217   -0.159254
     26          6           0       -6.713046   -1.017234   -0.188526
     27          6           0        7.454554   -1.876439   -0.120612
     28          6           0       -6.264166    1.507827   -0.204020
     29          6           0        7.242520   -3.428555   -0.098004
     30          6           0        6.324469   -1.069637   -0.207576
     31          6           0       -4.886972    1.435207   -0.418527
     32          6           0        5.025536   -1.352794   -0.362803
     33          6           0       -4.177536    2.596436   -0.493831
     34          6           0       -2.712057    2.615580   -0.540233
     35          6           0        4.002097   -0.460797   -0.305215
     36          6           0        2.571482   -0.764120   -0.353812
     37          6           0       -1.991138    3.958665   -0.858866
     38          6           0       -1.815352    1.511376   -0.526101
     39          6           0        1.656346    0.224047   -0.421166
     40          6           0        2.132912   -2.206217   -0.262261
     41          6           0       -0.434533    1.452989   -0.614777
     42          6           0        0.216834    0.281455   -0.505755
     43          1           0      -11.033657    1.274778    0.147696
     44          1           0      -12.546205   -1.890195    2.188049
     45          1           0      -11.091622   -2.320721    1.275810
     46          1           0      -12.510853   -3.229382   -0.185497
     47          1           0      -10.003909   -0.490898    2.694203
     48          1           0      -10.587516    1.126568    2.403649
     49          1           0      -11.692752    0.034780    3.485262
     50          1           0      -13.912531    0.730947    0.774082
     51          1           0      -13.657114    0.496437    2.447893
     52          1           0      -12.834413    1.686061    1.497961
     53          1           0       12.886781    2.122625    0.611923
     54          1           0       13.167752    1.501323    2.133255
     55          1           0      -12.840819   -1.709251   -1.974710
     56          1           0       13.842292   -0.665083    0.943742
     57          1           0       -9.202288   -1.053542    0.183091
     58          1           0       13.497043   -0.849631   -1.533469
     59          1           0       13.034938    0.925540   -1.590237
     60          1           0        9.545240    1.756395    2.093160
     61          1           0       10.204431    2.359453    0.413672
     62          1           0       10.872175    2.818099    2.139814
     63          1           0       11.677370   -1.025318    2.450799
     64          1           0       10.081364   -0.599345    2.524248
     65          1           0       11.616404    0.409872    3.476422
     66          1           0      -10.275562    0.517526   -2.629578
     67          1           0      -11.779405    1.664760   -2.507842
     68          1           0      -11.988748    0.323260   -3.361373
     69          1           0      -14.486250   -2.111065   -0.250122
     70          1           0        8.582965    0.540872    0.383027
     71          1           0       -8.842421    1.810288    0.116912
     72          1           0       10.858287   -2.139026   -2.343143
     73          1           0       10.011757   -0.604769   -2.694774
     74          1           0       11.726940   -0.478356   -2.979721
     75          1           0       15.335098    0.763522    1.179020
     76          1           0        9.699314   -2.293115   -0.359486
     77          1           0       -5.750212   -1.253806   -0.760319
     78          1           0       -6.806266   -1.703834    0.974253
     79          1           0       -7.694565   -1.512430   -0.911227
     80          1           0       -6.769295    2.480541   -0.061534
     81          1           0        7.513901   -3.935240    1.237425
     82          1           0        6.077873   -3.677032   -0.552609
     83          1           0        8.028713   -4.047146   -0.829191
     84          1           0        6.524016   -0.049600   -0.204098
     85          1           0       -4.401933    0.389427   -0.521803
     86          1           0        4.541977   -2.348303   -0.436901
     87          1           0       -4.583164    3.769949   -0.585563
     88          1           0        4.054799    0.681005   -0.062334
     89          1           0       -1.568805    3.823007   -1.675364
     90          1           0       -1.227722    4.203421   -0.203093
     91          1           0       -2.874290    4.697433   -1.170155
     92          1           0       -2.332780    0.650572   -0.563706
     93          1           0        2.098445    1.272440   -0.545522
     94          1           0        2.606520   -2.743741    0.682191
     95          1           0        0.972943   -2.277229   -0.007344
     96          1           0        2.604226   -3.105639   -1.189059
     97          1           0        0.016852    2.336680   -0.766485
     98          1           0       -0.334073   -0.671657   -0.420816
 ---------------------------------------------------------------------

 SCF Done:  E(RCAM-B3LYP) =  -1706.76769552     A.U. after   15 cycles

 Excitation energies and oscillator strengths:

 Excited State   1:      Singlet-A      2.2756 eV  544.84 nm  f=3.1408  <S**2>=0.000
     155 ->158        -0.17089
     156 ->157         0.68314
 This state for optimization and/or second-order correction.
 Total Energy, E(TD-HF/TD-DFT) =  -1706.68406921
 Copying the excited state density for this state as the 1-particle RhoCI density.

 The electronic state is 1-A.
 Alpha  occ. eigenvalues --  -19.22589 -19.19602 -10.30942 -10.30657 -10.30320
 Alpha  occ. eigenvalues --  -10.29884 -10.29583 -10.28701 -10.28175 -10.28120
 Alpha  occ. eigenvalues --  -10.27921 -10.27899 -10.27662 -10.27617 -10.27332
 Alpha  occ. eigenvalues --  -10.27094 -10.27028 -10.26972 -10.26845 -10.26786
 Alpha  occ. eigenvalues --  -10.26729 -10.26529 -10.26503 -10.26377 -10.26361
 Alpha  occ. eigenvalues --  -10.26260 -10.25913 -10.25788 -10.25761 -10.25461
 Alpha  occ. eigenvalues --  -10.25423 -10.25389 -10.25113 -10.25091 -10.25077
 Alpha  occ. eigenvalues --  -10.24917 -10.24837 -10.24601 -10.24455 -10.24255
 Alpha  occ. eigenvalues --  -10.23822 -10.23699  -1.11795  -1.10061  -0.94796
 Alpha  occ. eigenvalues --   -0.94443  -0.92491  -0.91888  -0.90987  -0.89463
 Alpha  occ. eigenvalues --   -0.88300  -0.87581  -0.86984  -0.85819  -0.84824
 Alpha  occ. eigenvalues --   -0.83455  -0.82439  -0.80792  -0.78996  -0.77914
 Alpha  occ. eigenvalues --   -0.76672  -0.76322  -0.76226  -0.75532  -0.75308
 Alpha  occ. eigenvalues --   -0.75211  -0.74868  -0.73856  -0.73027  -0.70495
 Alpha  occ. eigenvalues --   -0.68332  -0.67897  -0.66741  -0.64838  -0.64270
 Alpha  occ. eigenvalues --   -0.63874  -0.63237  -0.62921  -0.60391  -0.59510
 Alpha  occ. eigenvalues --   -0.59499  -0.58876  -0.58801  -0.57778  -0.56657
 Alpha  occ. eigenvalues --   -0.56044  -0.55522  -0.54687  -0.54486  -0.54467
 Alpha  occ. eigenvalues --   -0.53957  -0.53169  -0.52856  -0.52434  -0.51454
 Alpha  occ. eigenvalues --   -0.50831  -0.50568  -0.50256  -0.49745  -0.49380
 Alpha  occ. eigenvalues --   -0.49135  -0.49097  -0.48366  -0.47916  -0.47320
 Alpha  occ. eigenvalues --   -0.46861  -0.46427  -0.46352  -0.46078  -0.45759
 Alpha  occ. eigenvalues --   -0.45588  -0.45305  -0.45034  -0.44830  -0.44496
 Alpha  occ. eigenvalues --   -0.44413  -0.44062  -0.43934  -0.43387  -0.43271
 Alpha  occ. eigenvalues --   -0.42894  -0.42187  -0.42104  -0.42047  -0.41770
 Alpha  occ. eigenvalues --   -0.41575  -0.41106  -0.40897  -0.40811  -0.40612
 Alpha  occ. eigenvalues --   -0.40323  -0.39715  -0.39414  -0.39337  -0.39160
 Alpha  occ. eigenvalues --   -0.38806  -0.38795  -0.38276  -0.38020  -0.37970
 Alpha  occ. eigenvalues --   -0.37739  -0.37122  -0.37005  -0.36593  -0.35935
 Alpha  occ. eigenvalues --   -0.35175  -0.34324  -0.33431  -0.31797  -0.31451
 Alpha  occ. eigenvalues --   -0.30878  -0.28757  -0.28525  -0.27119  -0.23513
 Alpha  occ. eigenvalues --   -0.20136
 Alpha virt. eigenvalues --   -0.05761  -0.01805   0.02301   0.04646   0.05792
 Alpha virt. eigenvalues --    0.07487   0.07934   0.09184   0.09807   0.10168
 Alpha virt. eigenvalues --    0.10891   0.11627   0.12430   0.12707   0.12832

 Mulliken charges:
               1
     1  O   -0.508760
     2  O   -0.547391
     3  C    0.014112
     4  C   -0.111879
     5  C   -0.168545
     6  C    0.142377
     7  C    0.123218
     8  C    0.016963
     9  C   -0.263736
    10  C   -0.300514
    11  C   -0.205115
    12  C   -0.135777
    13  C    0.186841
    14  C    0.039569
    15  C   -0.095900
    16  C   -0.226359
    17  C    0.090231
    18  C   -0.309868
    19  C   -0.294990
    20  C   -0.372392
    21  C   -0.117391
    22  C   -0.125216
    23  C   -0.372686
    24  C    0.129786
    25  C   -0.104759
    26  C   -0.344626
    27  C    0.087673
    28  C   -0.102631
    29  C   -0.305246
    30  C   -0.093545
    31  C   -0.085608
    32  C   -0.067376
    33  C   -0.107083
    34  C    0.041030
    35  C   -0.117883
    36  C    0.149191
    37  C   -0.366996
    38  C   -0.103428
    39  C   -0.153159
    40  C   -0.364156
    41  C   -0.036409
    42  C   -0.075817
    43  H    0.075481
    44  H    0.105926
    45  H    0.087162
    46  H    0.051817
    47  H    0.104385
    48  H    0.107417
    49  H    0.072726
    50  H    0.097249
    51  H    0.101023
    52  H    0.102667
    53  H    0.109765
    54  H    0.024691
    55  H    0.063419
    56  H    0.067112
    57  H    0.079447
    58  H    0.122939
    59  H    0.122589
    60  H    0.105174
    61  H    0.109089
    62  H    0.102644
    63  H    0.115224
    64  H    0.097417
    65  H    0.091914
    66  H    0.122946
    67  H    0.116149
    68  H    0.111395
    69  H    0.280112
    70  H    0.088042
    71  H    0.065829
    72  H    0.110607
    73  H    0.086766
    74  H    0.106546
    75  H    0.303412
    76  H    0.090083
    77  H    0.115916
    78  H    0.089727
    79  H    0.081403
    80  H    0.089532
    81  H    0.053060
    82  H    0.087718
    83  H    0.093964
    84  H    0.078249
    85  H    0.104222
    86  H    0.079744
    87  H    0.088082
    88  H    0.074485
    89  H    0.147367
    90  H    0.128309
    91  H    0.078789
    92  H    0.053875
    93  H    0.071408
    94  H    0.113551
    95  H    0.101012
    96  H    0.074631
    97  H    0.074456
    98  H    0.085590
 Sum of Mulliken charges =  -0.00000

 Dipole moment (field-independent basis, Debye):
    X=              0.3140    Y=              0.6471    Z=             -1.0307  Tot=              1.2569
 Quadrupole moment (field-independent basis, Debye-Ang):
   XX=           -260.7544   YY=           -252.4266   ZZ=           -263.1436
   XY=            -15.0857   XZ=             43.1167   YZ=              2.7311

 Normal termination of Gaussian 16 at Sun Jul 14 03:18:49 2019.
