 Gaussian 16, Revision A.03,
 Gaussian 16:  ES64L-G16RevA.03 25-Dec-2016

 -------------------------------------
 # td=(NStates=1) CAM-B3LYP/6-31G(d,p)
 -------------------------------------

 --
 TD
 --
 Symbolic Z-matrix:
 Charge =  0 Multiplicity = 1

                         Standard orientation:
 ---------------------------------------------------------------------
 Center     Atomic      Atomic             Coordinates (Angstroms)
 Number     Number       Type             X           Y           Z
 ---------------------------------------------------------------------
      1          8           0       13.988536    1.931958    0.645685
      2          8           0      -14.773393   -1.017768    0.394347
      3          6           0       11.833467   -0.295765    1.311359
      4          6           0       11.005951   -0.412726   -0.014633
      5          6           0       12.003098    1.262582    1.555502
      6          6           0       12.664697    2.004179    0.449188
      7          6           0       11.660021    0.386685   -1.074253
      8          6           0      -10.964277   -1.030804    1.164912
      9          6           0       11.087914   -0.873244    2.550082
     10          6           0       13.132137   -0.888496    1.162379
     11          6           0      -12.406451   -1.670962    0.892674
     12          6           0       12.190737    1.602793   -0.917975
     13          6           0      -13.416450   -0.609805    0.463382
     14          6           0      -10.667426   -0.077288   -0.001250
     15          6           0        9.587835   -0.022310    0.099914
     16          6           0      -12.981016    0.019837   -0.895019
     17          6           0      -11.570243    0.404035   -0.929994
     18          6           0      -10.141072   -2.237205    1.100192
     19          6           0      -10.955630   -0.384025    2.482157
     20          6           0       11.283494   -0.001021   -2.575694
     21          6           0        8.548685   -0.808866   -0.263396
     22          6           0       -9.246637    0.373742    0.005770
     23          6           0      -11.210254    1.280412   -2.095977
     24          6           0        7.190493   -0.498307   -0.102447
     25          6           0       -8.819274    1.707168   -0.037046
     26          6           0        6.794281    0.946121    0.133695
     27          6           0       -7.380665    2.222833   -0.163641
     28          6           0        6.341021   -1.502682   -0.385773
     29          6           0       -7.311178    3.719262    0.166997
     30          6           0       -6.425496    1.281307   -0.261645
     31          6           0        4.839658   -1.431809   -0.454711
     32          6           0       -5.092647    1.573341   -0.061838
     33          6           0        4.006986   -2.427863   -0.888990
     34          6           0        2.564696   -2.369549   -0.931819
     35          6           0       -4.096504    0.697632   -0.358842
     36          6           0       -2.730248    0.954737   -0.265383
     37          6           0        1.885314   -3.686774   -1.310273
     38          6           0        1.766341   -1.235650   -0.601735
     39          6           0       -1.832909   -0.057280   -0.440899
     40          6           0       -2.250705    2.263559    0.091929
     41          6           0        0.334526   -1.191886   -0.546203
     42          6           0       -0.375556   -0.064945   -0.252487
     43          1           0       10.902452   -1.559680   -0.204297
     44          1           0       12.629653    1.386536    2.519534
     45          1           0       11.005157    1.642295    1.599667
     46          1           0       12.305680    3.072278    0.529008
     47          1           0       10.123530   -0.530655    2.663517
     48          1           0       10.948286   -1.925772    2.482408
     49          1           0       11.793038   -0.388489    3.454254
     50          1           0       13.849100   -0.570869    0.520678
     51          1           0       13.682708   -1.041549    1.994155
     52          1           0       12.938076   -1.909922    0.977502
     53          1           0      -12.371542   -2.573749    0.111562
     54          1           0      -12.711605   -2.006451    1.816356
     55          1           0       12.548577    2.156390   -1.895803
     56          1           0      -13.322703    0.347903    1.116400
     57          1           0        9.430329    0.992297    0.392927
     58          1           0      -13.562785    0.808382   -1.230150
     59          1           0      -13.014088   -0.719554   -1.688118
     60          1           0       -8.956564   -2.255104    1.581227
     61          1           0      -10.151316   -2.680136    0.219817
     62          1           0      -10.539675   -2.996060    1.877934
     63          1           0      -11.816398    0.395909    2.726091
     64          1           0       -9.907403   -0.008041    2.512427
     65          1           0      -11.219412   -0.993054    3.278764
     66          1           0       10.297103   -0.222611   -2.772010
     67          1           0       11.918552   -0.976548   -2.889756
     68          1           0       11.681523    0.764677   -3.304304
     69          1           0       14.480093    2.194386   -0.065063
     70          1           0       -8.527909   -0.410947    0.210041
     71          1           0        8.772166   -1.842064   -0.385806
     72          1           0      -11.841048    2.316504   -2.043324
     73          1           0      -10.148298    1.101574   -2.531774
     74          1           0      -11.619685    1.000065   -3.069532
     75          1           0      -15.090155   -1.327758    1.346835
     76          1           0       -9.545157    2.372573   -0.151015
     77          1           0        5.656147    1.087543   -0.428723
     78          1           0        6.832756    1.314274    1.380359
     79          1           0        7.524436    1.572615   -0.502108
     80          1           0        6.814812   -2.434807   -0.868779
     81          1           0       -6.979366    3.883600    1.247522
     82          1           0       -6.364266    4.057129   -0.353543
     83          1           0       -8.210259    4.277390   -0.098672
     84          1           0       -6.579463    0.207397   -0.492635
     85          1           0        4.281220   -0.582203    0.012924
     86          1           0       -4.826050    2.498950    0.481013
     87          1           0        4.338741   -3.554251   -0.922308
     88          1           0       -4.566672   -0.152984   -0.649181
     89          1           0        1.193350   -3.559732   -2.046303
     90          1           0        1.312017   -4.047402   -0.471849
     91          1           0        2.488571   -4.451716   -1.424579
     92          1           0        2.106637   -0.082753   -0.566195
     93          1           0       -2.226343   -1.027962   -0.731002
     94          1           0       -2.449076    2.459556    1.303421
     95          1           0       -1.192448    2.394201   -0.101376
     96          1           0       -2.861090    2.884702   -0.642278
     97          1           0       -0.316664   -2.053306   -1.016598
     98          1           0        0.261289    0.857704    0.081244
 ---------------------------------------------------------------------

 SCF Done:  E(RCAM-B3LYP) =  -1706.94658446     A.U. after   15 cycles

 Excitation energies and oscillator strengths:

 Excited State   1:      Singlet-A      2.4024 eV  516.09 nm  f=2.9056  <S**2>=0.000
     155 ->158        -0.16564
     156 ->157         0.68029
 This state for optimization and/or second-order correction.
 Total Energy, E(TD-HF/TD-DFT) =  -1706.85829904
 Copying the excited state density for this state as the 1-particle RhoCI density.

 The electronic state is 1-A.
 Alpha  occ. eigenvalues --  -19.21947 -19.20814 -10.30877 -10.29901 -10.29646
 Alpha  occ. eigenvalues --  -10.28299 -10.27591 -10.27397 -10.27371 -10.27228
 Alpha  occ. eigenvalues --  -10.27181 -10.27166 -10.27146 -10.27111 -10.27037
 Alpha  occ. eigenvalues --  -10.26972 -10.26733 -10.26665 -10.26600 -10.26549
 Alpha  occ. eigenvalues --  -10.26299 -10.26060 -10.26035 -10.25933 -10.25805
 Alpha  occ. eigenvalues --  -10.25734 -10.25732 -10.25654 -10.25498 -10.25456
 Alpha  occ. eigenvalues --  -10.25361 -10.25275 -10.24921 -10.24840 -10.24766
 Alpha  occ. eigenvalues --  -10.24637 -10.24502 -10.24364 -10.24124 -10.24059
 Alpha  occ. eigenvalues --  -10.23589 -10.20345  -1.13289  -1.07947  -0.94260
 Alpha  occ. eigenvalues --   -0.93844  -0.92687  -0.91627  -0.90458  -0.89630
 Alpha  occ. eigenvalues --   -0.88276  -0.86924  -0.86672  -0.85135  -0.84476
 Alpha  occ. eigenvalues --   -0.82774  -0.82292  -0.80764  -0.79449  -0.78092
 Alpha  occ. eigenvalues --   -0.77200  -0.76788  -0.76256  -0.75814  -0.75523
 Alpha  occ. eigenvalues --   -0.75451  -0.74952  -0.74597  -0.73034  -0.70104
 Alpha  occ. eigenvalues --   -0.68408  -0.67832  -0.66117  -0.64675  -0.64234
 Alpha  occ. eigenvalues --   -0.63567  -0.63231  -0.61694  -0.60755  -0.60622
 Alpha  occ. eigenvalues --   -0.59922  -0.59159  -0.57162  -0.56891  -0.56166
 Alpha  occ. eigenvalues --   -0.55632  -0.54720  -0.54492  -0.54175  -0.53852
 Alpha  occ. eigenvalues --   -0.53348  -0.53089  -0.52778  -0.52137  -0.51325
 Alpha  occ. eigenvalues --   -0.50709  -0.50157  -0.49824  -0.49216  -0.49137
 Alpha  occ. eigenvalues --   -0.48712  -0.48666  -0.48248  -0.48026  -0.47622
 Alpha  occ. eigenvalues --   -0.47323  -0.47080  -0.46865  -0.46684  -0.46614
 Alpha  occ. eigenvalues --   -0.46138  -0.45687  -0.45248  -0.44853  -0.44333
 Alpha  occ. eigenvalues --   -0.44161  -0.43904  -0.43791  -0.43550  -0.43143
 Alpha  occ. eigenvalues --   -0.43013  -0.42910  -0.42778  -0.42212  -0.42067
 Alpha  occ. eigenvalues --   -0.41908  -0.41611  -0.41332  -0.41029  -0.40561
 Alpha  occ. eigenvalues --   -0.40103  -0.40020  -0.39888  -0.39677  -0.39541
 Alpha  occ. eigenvalues --   -0.39150  -0.38746  -0.38574  -0.38489  -0.38033
 Alpha  occ. eigenvalues --   -0.37595  -0.37202  -0.35899  -0.35746  -0.35346
 Alpha  occ. eigenvalues --   -0.34468  -0.34184  -0.33256  -0.31724  -0.31328
 Alpha  occ. eigenvalues --   -0.30920  -0.29792  -0.28564  -0.26499  -0.23700
 Alpha  occ. eigenvalues --   -0.20121
 Alpha virt. eigenvalues --   -0.05016  -0.00871   0.02888   0.05382   0.07057
 Alpha virt. eigenvalues --    0.08661   0.10660   0.10820   0.11300   0.12029
 Alpha virt. eigenvalues --    0.12144   0.12945   0.13106   0.13126   0.13905

 Mulliken charges:
               1
     1  O   -0.504822
     2  O   -0.568814
     3  C    0.008092
     4  C   -0.150804
     5  C   -0.184720
     6  C    0.165386
     7  C    0.141867
     8  C   -0.006125
     9  C   -0.292768
    10  C   -0.276769
    11  C   -0.185393
    12  C   -0.165283
    13  C    0.172137
    14  C    0.035188
    15  C   -0.065801
    16  C   -0.216349
    17  C    0.074209
    18  C   -0.280552
    19  C   -0.288699
    20  C   -0.352109
    21  C   -0.112427
    22  C   -0.136011
    23  C   -0.377509
    24  C    0.164132
    25  C   -0.083134
    26  C   -0.349171
    27  C    0.061305
    28  C   -0.149357
    29  C   -0.365602
    30  C   -0.107137
    31  C   -0.098536
    32  C   -0.090563
    33  C   -0.108691
    34  C    0.066005
    35  C   -0.092231
    36  C    0.123225
    37  C   -0.366516
    38  C   -0.142743
    39  C   -0.141001
    40  C   -0.357348
    41  C   -0.068268
    42  C   -0.090445
    43  H    0.073899
    44  H    0.097865
    45  H    0.089471
    46  H    0.053478
    47  H    0.112294
    48  H    0.099193
    49  H    0.075828
    50  H    0.116984
    51  H    0.101829
    52  H    0.078750
    53  H    0.088322
    54  H    0.082741
    55  H    0.075570
    56  H    0.066088
    57  H    0.087025
    58  H    0.108188
    59  H    0.117112
    60  H    0.056226
    61  H    0.121416
    62  H    0.089655
    63  H    0.084937
    64  H    0.114573
    65  H    0.106895
    66  H    0.130720
    67  H    0.083192
    68  H    0.097494
    69  H    0.291885
    70  H    0.082852
    71  H    0.080054
    72  H    0.100526
    73  H    0.124887
    74  H    0.110323
    75  H    0.308457
    76  H    0.068886
    77  H    0.089899
    78  H    0.095138
    79  H    0.123332
    80  H    0.085885
    81  H    0.124727
    82  H    0.112141
    83  H    0.124256
    84  H    0.090500
    85  H    0.101231
    86  H    0.079723
    87  H    0.080270
    88  H    0.063788
    89  H    0.133985
    90  H    0.124905
    91  H    0.111805
    92  H    0.082725
    93  H    0.077137
    94  H    0.097970
    95  H    0.111974
    96  H    0.113613
    97  H    0.078723
    98  H    0.082816
 Sum of Mulliken charges =  -0.00000

 Dipole moment (field-independent basis, Debye):
    X=             -0.1076    Y=             -0.1513    Z=             -0.2152  Tot=              0.2842
 Quadrupole moment (field-independent basis, Debye-Ang):
   XX=           -261.1645   YY=           -245.7932   ZZ=           -259.8587
   XY=              5.1093   XZ=            -34.0535   YZ=             -1.9788

 Normal termination of Gaussian 16 at Sat Jul 13 13:37:13 2019.
