 Gaussian 16, Revision A.03,
 Gaussian 16:  ES64L-G16RevA.03 25-Dec-2016

 -------------------------------------
 # td=(NStates=1) CAM-B3LYP/6-31G(d,p)
 -------------------------------------

 --
 TD
 --
 Symbolic Z-matrix:
 Charge =  0 Multiplicity = 1

                         Standard orientation:
 ---------------------------------------------------------------------
 Center     Atomic      Atomic             Coordinates (Angstroms)
 Number     Number       Type             X           Y           Z
 ---------------------------------------------------------------------
      1          8           0      -14.050731   -1.893743    0.498618
      2          8           0       14.815764    1.006015    0.393056
      3          6           0      -11.693080   -0.038994    1.497401
      4          6           0      -11.000190    0.345150    0.121002
      5          6           0      -11.923844   -1.610913    1.370332
      6          6           0      -12.716571   -2.018750    0.182977
      7          6           0      -11.623208   -0.230982   -1.163527
      8          6           0       11.058421    1.013397    1.100621
      9          6           0      -10.855982    0.190502    2.659387
     10          6           0      -12.997265    0.783505    1.697591
     11          6           0       12.459631    1.525989    0.876137
     12          6           0      -12.386026   -1.282182   -1.085938
     13          6           0       13.436449    0.465385    0.455782
     14          6           0       10.680466   -0.067974    0.055314
     15          6           0       -9.513763   -0.058099   -0.000086
     16          6           0       13.069240   -0.111098   -0.875803
     17          6           0       11.612169   -0.370863   -0.974088
     18          6           0        9.985641    2.091281    1.018246
     19          6           0       10.962908    0.320326    2.448526
     20          6           0      -11.413207    0.522586   -2.382702
     21          6           0       -8.502607    0.765007   -0.182444
     22          6           0        9.346291   -0.490433    0.029373
     23          6           0       11.236618   -1.379055   -2.055730
     24          6           0       -7.121697    0.488934   -0.437486
     25          6           0        8.804073   -1.743758   -0.183370
     26          6           0       -6.648471   -0.994118   -0.293723
     27          6           0        7.419257   -2.112172   -0.135396
     28          6           0       -6.242997    1.602171   -0.502660
     29          6           0        7.092501   -3.492710    0.065533
     30          6           0        6.333453   -1.184644   -0.172266
     31          6           0       -4.807993    1.396247   -0.602857
     32          6           0        4.965392   -1.571412   -0.100586
     33          6           0       -3.965825    2.500776   -0.731203
     34          6           0       -2.504782    2.572450   -0.614622
     35          6           0        3.978593   -0.530946   -0.184200
     36          6           0        2.618057   -0.868280   -0.174827
     37          6           0       -1.883825    4.041777   -0.681487
     38          6           0       -1.826998    1.483865   -0.759116
     39          6           0        1.707122    0.146592   -0.435619
     40          6           0        2.073934   -2.291209    0.012015
     41          6           0       -0.410494    1.415000   -0.651664
     42          6           0        0.327546    0.208656   -0.431767
     43          1           0      -11.144412    1.458890    0.117821
     44          1           0      -12.350121   -1.977682    2.200444
     45          1           0      -11.042293   -2.149610    1.548135
     46          1           0      -12.574564   -2.961910    0.087769
     47          1           0       -9.870290   -0.291589    2.658430
     48          1           0      -10.432521    1.095521    2.624339
     49          1           0      -11.311716    0.020259    3.506495
     50          1           0      -13.924249    0.478165    1.113726
     51          1           0      -13.579518    0.568202    2.691301
     52          1           0      -12.712312    1.836899    1.700858
     53          1           0       12.450604    2.173796    0.007148
     54          1           0       12.955052    1.936597    1.779924
     55          1           0      -12.630772   -1.543679   -2.184898
     56          1           0       13.240204   -0.359800    1.091319
     57          1           0       -9.273887   -1.271113   -0.003639
     58          1           0       13.973682   -0.972996   -1.071696
     59          1           0       13.381720    0.609298   -1.637742
     60          1           0        9.111238    1.605191    1.364980
     61          1           0        9.907251    2.575577   -0.061673
     62          1           0       10.361599    2.877801    1.863703
     63          1           0       11.829253   -0.462372    2.710475
     64          1           0       10.072759   -0.097890    2.628936
     65          1           0       10.963120    0.973387    3.190939
     66          1           0      -10.345654    0.905204   -2.684198
     67          1           0      -11.986200    1.553420   -2.371601
     68          1           0      -11.714979   -0.234681   -3.377791
     69          1           0      -14.687855   -2.525940   -0.243937
     70          1           0        8.638668    0.094635    0.558455
     71          1           0       -8.709722    1.933139   -0.340241
     72          1           0       11.741263   -2.341872   -1.897264
     73          1           0       10.162757   -1.229995   -2.302811
     74          1           0       11.790305   -1.127400   -3.078592
     75          1           0       15.133142    1.231252    1.344559
     76          1           0        9.566175   -2.371015   -0.568395
     77          1           0       -5.563352   -1.206228   -0.506425
     78          1           0       -6.673652   -1.415163    0.567342
     79          1           0       -7.333500   -1.473558   -1.050259
     80          1           0       -6.821201    2.485812   -0.737510
     81          1           0        6.483968   -3.618696    1.041266
     82          1           0        6.439067   -3.905821   -0.806983
     83          1           0        8.098745   -4.169893    0.250960
     84          1           0        6.629750   -0.169081   -0.390482
     85          1           0       -4.352013    0.372840   -0.496164
     86          1           0        4.740587   -2.495098    0.030975
     87          1           0       -4.506980    3.461842   -0.721165
     88          1           0        4.487911    0.352393   -0.136801
     89          1           0       -1.458439    4.101198   -1.825480
     90          1           0       -1.258861    3.954288    0.355641
     91          1           0       -2.601827    4.838855   -0.507813
     92          1           0       -2.238481    0.460630   -0.811309
     93          1           0        2.288156    1.138001   -0.241149
     94          1           0        2.431550   -2.772753    0.979597
     95          1           0        0.996254   -2.187163    0.251508
     96          1           0        2.240619   -2.887135   -0.987968
     97          1           0        0.291004    2.449550   -0.569482
     98          1           0       -0.200925   -0.806713   -0.449374
 ---------------------------------------------------------------------

 SCF Done:  E(RCAM-B3LYP) =  -1706.87097554     A.U. after   15 cycles

 Excitation energies and oscillator strengths:

 Excited State   1:      Singlet-A      2.0661 eV  600.08 nm  f=3.1080  <S**2>=0.000
     155 ->158         0.15555
     156 ->157         0.69000
 This state for optimization and/or second-order correction.
 Total Energy, E(TD-HF/TD-DFT) =  -1706.79504647
 Copying the excited state density for this state as the 1-particle RhoCI density.

 The electronic state is 1-A.
 Alpha  occ. eigenvalues --  -19.21923 -19.21668 -10.29164 -10.28718 -10.28647
 Alpha  occ. eigenvalues --  -10.28391 -10.27899 -10.27805 -10.27391 -10.27328
 Alpha  occ. eigenvalues --  -10.27260 -10.27196 -10.27186 -10.27182 -10.27171
 Alpha  occ. eigenvalues --  -10.27012 -10.26951 -10.26811 -10.26806 -10.26716
 Alpha  occ. eigenvalues --  -10.26562 -10.26434 -10.26333 -10.26296 -10.26205
 Alpha  occ. eigenvalues --  -10.26110 -10.25998 -10.25979 -10.25681 -10.25611
 Alpha  occ. eigenvalues --  -10.25599 -10.25587 -10.25475 -10.25176 -10.25153
 Alpha  occ. eigenvalues --  -10.24881 -10.24434 -10.24281 -10.24279 -10.23214
 Alpha  occ. eigenvalues --  -10.22800 -10.21018  -1.08564  -1.06456  -0.94212
 Alpha  occ. eigenvalues --   -0.93010  -0.92042  -0.91508  -0.90317  -0.89900
 Alpha  occ. eigenvalues --   -0.87713  -0.87193  -0.86696  -0.85590  -0.84415
 Alpha  occ. eigenvalues --   -0.82875  -0.81889  -0.80557  -0.80090  -0.77700
 Alpha  occ. eigenvalues --   -0.77052  -0.76958  -0.76087  -0.75725  -0.75541
 Alpha  occ. eigenvalues --   -0.75240  -0.75104  -0.74422  -0.72491  -0.69921
 Alpha  occ. eigenvalues --   -0.68821  -0.68110  -0.66342  -0.64367  -0.63672
 Alpha  occ. eigenvalues --   -0.63247  -0.62814  -0.61664  -0.60583  -0.59412
 Alpha  occ. eigenvalues --   -0.58990  -0.58828  -0.58502  -0.57301  -0.55805
 Alpha  occ. eigenvalues --   -0.55629  -0.55099  -0.54759  -0.54561  -0.53678
 Alpha  occ. eigenvalues --   -0.53254  -0.52685  -0.52505  -0.51978  -0.50602
 Alpha  occ. eigenvalues --   -0.50054  -0.49845  -0.49646  -0.49297  -0.49058
 Alpha  occ. eigenvalues --   -0.48983  -0.48676  -0.48485  -0.48178  -0.47966
 Alpha  occ. eigenvalues --   -0.47765  -0.47423  -0.46849  -0.46588  -0.46355
 Alpha  occ. eigenvalues --   -0.45493  -0.45386  -0.45233  -0.44940  -0.44765
 Alpha  occ. eigenvalues --   -0.44248  -0.43788  -0.43397  -0.43113  -0.42890
 Alpha  occ. eigenvalues --   -0.42579  -0.42328  -0.42198  -0.41850  -0.41582
 Alpha  occ. eigenvalues --   -0.41202  -0.41108  -0.40826  -0.40722  -0.40352
 Alpha  occ. eigenvalues --   -0.40203  -0.39756  -0.39729  -0.39397  -0.38883
 Alpha  occ. eigenvalues --   -0.38676  -0.38063  -0.37825  -0.37599  -0.37531
 Alpha  occ. eigenvalues --   -0.37201  -0.36860  -0.36571  -0.36342  -0.35891
 Alpha  occ. eigenvalues --   -0.34865  -0.34217  -0.34029  -0.32394  -0.32154
 Alpha  occ. eigenvalues --   -0.31938  -0.29719  -0.28936  -0.26074  -0.23214
 Alpha  occ. eigenvalues --   -0.19054
 Alpha virt. eigenvalues --   -0.06002  -0.01457   0.02021   0.05631   0.06720
 Alpha virt. eigenvalues --    0.08447   0.09761   0.11113   0.11375   0.11522
 Alpha virt. eigenvalues --    0.11898   0.12565   0.12952   0.13210   0.13761

 Mulliken charges:
               1
     1  O   -0.547059
     2  O   -0.578499
     3  C    0.036735
     4  C   -0.152959
     5  C   -0.195512
     6  C    0.173743
     7  C    0.157261
     8  C   -0.038062
     9  C   -0.293613
    10  C   -0.319446
    11  C   -0.162647
    12  C   -0.122663
    13  C    0.150671
    14  C    0.098452
    15  C   -0.102589
    16  C   -0.223566
    17  C    0.041629
    18  C   -0.281926
    19  C   -0.294531
    20  C   -0.349859
    21  C   -0.065175
    22  C   -0.130710
    23  C   -0.371472
    24  C    0.079140
    25  C   -0.125119
    26  C   -0.357037
    27  C    0.105815
    28  C   -0.125326
    29  C   -0.380708
    30  C   -0.130065
    31  C   -0.068880
    32  C   -0.063374
    33  C   -0.127692
    34  C    0.057579
    35  C   -0.091233
    36  C    0.084070
    37  C   -0.344658
    38  C   -0.081595
    39  C   -0.102426
    40  C   -0.362847
    41  C   -0.101176
    42  C   -0.108579
    43  H    0.080207
    44  H    0.105017
    45  H    0.093298
    46  H    0.076881
    47  H    0.090470
    48  H    0.100444
    49  H    0.110055
    50  H    0.129570
    51  H    0.083916
    52  H    0.096260
    53  H    0.100658
    54  H    0.074209
    55  H    0.055545
    56  H    0.091099
    57  H    0.079344
    58  H    0.085776
    59  H    0.120363
    60  H    0.113509
    61  H    0.103069
    62  H    0.077413
    63  H    0.086104
    64  H    0.111088
    65  H    0.102370
    66  H    0.111516
    67  H    0.111517
    68  H    0.069017
    69  H    0.295961
    70  H    0.069444
    71  H    0.062522
    72  H    0.127656
    73  H    0.129330
    74  H    0.079131
    75  H    0.308095
    76  H    0.095101
    77  H    0.094083
    78  H    0.138390
    79  H    0.115675
    80  H    0.090096
    81  H    0.118679
    82  H    0.115438
    83  H    0.089314
    84  H    0.081619
    85  H    0.088168
    86  H    0.068128
    87  H    0.074336
    88  H    0.086355
    89  H    0.128042
    90  H    0.118973
    91  H    0.120532
    92  H    0.087359
    93  H    0.068640
    94  H    0.116707
    95  H    0.109910
    96  H    0.119503
    97  H    0.080189
    98  H    0.079822
 Sum of Mulliken charges =  -0.00000

 Dipole moment (field-independent basis, Debye):
    X=             -1.8712    Y=             -1.3498    Z=              1.1259  Tot=              2.5673
 Quadrupole moment (field-independent basis, Debye-Ang):
   XX=           -283.0392   YY=           -243.2275   ZZ=           -260.6970
   XY=             10.6426   XZ=             33.7501   YZ=              2.3287

 Normal termination of Gaussian 16 at Tue Jul 16 01:45:50 2019.
