 Gaussian 16, Revision A.03,
 Gaussian 16:  ES64L-G16RevA.03 25-Dec-2016

 -------------------------------------
 # td=(NStates=1) CAM-B3LYP/6-31G(d,p)
 -------------------------------------

 --
 TD
 --
 Symbolic Z-matrix:
 Charge =  0 Multiplicity = 1

                         Standard orientation:
 ---------------------------------------------------------------------
 Center     Atomic      Atomic             Coordinates (Angstroms)
 Number     Number       Type             X           Y           Z
 ---------------------------------------------------------------------
      1          8           0      -13.883668   -2.184478    0.492253
      2          8           0       14.763656    0.877367    0.481732
      3          6           0      -11.635372   -0.064347    1.379237
      4          6           0      -10.888634    0.222356    0.056283
      5          6           0      -11.807085   -1.605130    1.384007
      6          6           0      -12.585965   -2.223792    0.177534
      7          6           0      -11.638523   -0.301289   -1.168126
      8          6           0       11.056003    0.818209    1.055401
      9          6           0      -10.808074    0.293641    2.537289
     10          6           0      -13.058001    0.582749    1.408365
     11          6           0       12.593051    1.448368    1.000619
     12          6           0      -12.327671   -1.395984   -1.079950
     13          6           0       13.465856    0.429457    0.514476
     14          6           0       10.645995   -0.165751    0.036751
     15          6           0       -9.445409    0.011390    0.049074
     16          6           0       13.022088   -0.062528   -0.903207
     17          6           0       11.558538   -0.496676   -0.959391
     18          6           0       10.058114    2.010321    1.050101
     19          6           0       10.927444    0.115744    2.424933
     20          6           0      -11.442837    0.407155   -2.498693
     21          6           0       -8.487485    0.867471   -0.114024
     22          6           0        9.269330   -0.518940   -0.020702
     23          6           0       11.147871   -1.166011   -2.214606
     24          6           0       -7.071336    0.564279   -0.068549
     25          6           0        8.729825   -1.752795   -0.279110
     26          6           0       -6.639774   -0.860730   -0.118973
     27          6           0        7.379514   -2.199124   -0.173720
     28          6           0       -6.140831    1.547193   -0.220481
     29          6           0        6.973952   -3.654237   -0.273727
     30          6           0        6.356009   -1.184446   -0.316339
     31          6           0       -4.749564    1.522787   -0.366796
     32          6           0        4.982641   -1.560499   -0.068511
     33          6           0       -3.988632    2.584496   -0.629397
     34          6           0       -2.584875    2.735560   -0.832662
     35          6           0        3.997603   -0.577839   -0.269703
     36          6           0        2.583592   -0.680139   -0.140597
     37          6           0       -2.008319    4.089083   -0.950887
     38          6           0       -1.760661    1.632037   -0.546694
     39          6           0        1.771243    0.434433   -0.295756
     40          6           0        1.975745   -2.124159    0.116643
     41          6           0       -0.459210    1.667946   -0.365103
     42          6           0        0.357471    0.458316   -0.319516
     43          1           0      -11.063826    1.338898   -0.233874
     44          1           0      -12.231083   -1.957645    2.171838
     45          1           0      -10.800233   -1.978945    1.558556
     46          1           0      -12.277675   -3.282998    0.244960
     47          1           0       -9.767696   -0.310602    2.549782
     48          1           0      -10.559610    1.362621    2.690348
     49          1           0      -11.297273    0.041938    3.560930
     50          1           0      -13.691352    0.075140    0.740736
     51          1           0      -13.412172    0.362266    2.486504
     52          1           0      -12.968806    1.637640    1.429165
     53          1           0       12.644083    2.341504    0.430944
     54          1           0       12.755473    1.713545    1.970579
     55          1           0      -12.813379   -1.756478   -2.020520
     56          1           0       13.275764   -0.471669    1.100273
     57          1           0       -9.127544   -1.024465   -0.112065
     58          1           0       13.617774   -1.054475   -1.269269
     59          1           0       13.145542    0.747044   -1.609335
     60          1           0        9.101035    1.737622    1.718629
     61          1           0        9.831397    2.333207    0.080585
     62          1           0       10.444179    2.918180    1.457365
     63          1           0       11.661021   -0.853627    2.512881
     64          1           0        9.996047   -0.402292    2.834198
     65          1           0       10.852680    0.863526    3.217171
     66          1           0      -10.402631    0.500540   -2.795802
     67          1           0      -12.154462    1.303581   -2.665762
     68          1           0      -11.963994   -0.271757   -3.254397
     69          1           0      -14.565587   -1.950793   -0.427659
     70          1           0        8.539642    0.074496    0.614868
     71          1           0       -8.504022    1.781760    0.054410
     72          1           0       11.562393   -2.386577   -1.959072
     73          1           0       10.122879   -1.327857   -2.234712
     74          1           0       11.495647   -0.703121   -3.091630
     75          1           0       15.342418    0.925770    1.508679
     76          1           0        9.586850   -2.448737   -0.344016
     77          1           0       -5.556997   -0.939844   -0.656772
     78          1           0       -6.721774   -1.371648    1.054055
     79          1           0       -7.485112   -1.323047   -0.837225
     80          1           0       -6.607255    2.546527   -0.198169
     81          1           0        6.227208   -3.892915    0.408486
     82          1           0        6.276956   -3.803481   -1.278839
     83          1           0        7.724946   -4.146743   -0.453059
     84          1           0        6.684835   -0.185093   -0.682867
     85          1           0       -4.574050    0.509809   -0.336443
     86          1           0        4.685487   -2.483573    0.094318
     87          1           0       -4.363506    3.429362   -0.699181
     88          1           0        4.398566    0.401751   -0.472480
     89          1           0       -1.287449    4.224782   -1.924117
     90          1           0       -1.345695    4.367946   -0.019301
     91          1           0       -2.852354    4.743950   -1.149146
     92          1           0       -2.130990    0.668929   -0.388143
     93          1           0        2.089561    1.482819   -0.338389
     94          1           0        2.639552   -2.623056    0.850033
     95          1           0        1.001615   -1.882703    0.248306
     96          1           0        2.148131   -2.541949   -0.916617
     97          1           0       -0.079413    2.664611   -0.523060
     98          1           0       -0.227413   -0.358237   -0.461515
 ---------------------------------------------------------------------

 SCF Done:  E(RCAM-B3LYP) =  -1706.82183418     A.U. after   16 cycles

 Excitation energies and oscillator strengths:

 Excited State   1:      Singlet-A      1.8190 eV  681.61 nm  f=2.9872  <S**2>=0.000
     155 ->158         0.14652
     156 ->157         0.69727
     156 <-157        -0.11350
 This state for optimization and/or second-order correction.
 Total Energy, E(TD-HF/TD-DFT) =  -1706.75498731
 Copying the excited state density for this state as the 1-particle RhoCI density.

 The electronic state is 1-A.
 Alpha  occ. eigenvalues --  -19.22259 -19.22258 -10.30266 -10.29546 -10.28422
 Alpha  occ. eigenvalues --  -10.27855 -10.27668 -10.27506 -10.27399 -10.26833
 Alpha  occ. eigenvalues --  -10.26638 -10.26562 -10.26544 -10.26438 -10.26422
 Alpha  occ. eigenvalues --  -10.26374 -10.26357 -10.26073 -10.26049 -10.25969
 Alpha  occ. eigenvalues --  -10.25961 -10.25936 -10.25915 -10.25771 -10.25738
 Alpha  occ. eigenvalues --  -10.25697 -10.25610 -10.25448 -10.25404 -10.25065
 Alpha  occ. eigenvalues --  -10.24992 -10.24978 -10.24943 -10.24827 -10.24804
 Alpha  occ. eigenvalues --  -10.24750 -10.24374 -10.24171 -10.23739 -10.23368
 Alpha  occ. eigenvalues --  -10.22999 -10.22253  -1.10093  -1.08141  -0.93787
 Alpha  occ. eigenvalues --   -0.93592  -0.92764  -0.91476  -0.90951  -0.89762
 Alpha  occ. eigenvalues --   -0.87774  -0.87109  -0.86554  -0.85783  -0.84937
 Alpha  occ. eigenvalues --   -0.83311  -0.81785  -0.80830  -0.79837  -0.78999
 Alpha  occ. eigenvalues --   -0.76799  -0.76251  -0.76109  -0.75779  -0.75658
 Alpha  occ. eigenvalues --   -0.75364  -0.75115  -0.74648  -0.72445  -0.70932
 Alpha  occ. eigenvalues --   -0.68958  -0.67473  -0.66685  -0.65205  -0.64086
 Alpha  occ. eigenvalues --   -0.63905  -0.63759  -0.62845  -0.61811  -0.60414
 Alpha  occ. eigenvalues --   -0.59044  -0.58617  -0.57803  -0.57557  -0.56898
 Alpha  occ. eigenvalues --   -0.55851  -0.55789  -0.55090  -0.54575  -0.54215
 Alpha  occ. eigenvalues --   -0.54032  -0.53470  -0.52297  -0.52051  -0.50930
 Alpha  occ. eigenvalues --   -0.50859  -0.50518  -0.49909  -0.49568  -0.49221
 Alpha  occ. eigenvalues --   -0.49051  -0.48930  -0.48480  -0.48340  -0.48248
 Alpha  occ. eigenvalues --   -0.47824  -0.47575  -0.47401  -0.47248  -0.46788
 Alpha  occ. eigenvalues --   -0.46466  -0.46014  -0.45898  -0.45583  -0.44717
 Alpha  occ. eigenvalues --   -0.44481  -0.44349  -0.43951  -0.43662  -0.43497
 Alpha  occ. eigenvalues --   -0.43124  -0.42834  -0.42544  -0.41944  -0.41539
 Alpha  occ. eigenvalues --   -0.41407  -0.40735  -0.40622  -0.40563  -0.40545
 Alpha  occ. eigenvalues --   -0.40083  -0.39704  -0.39535  -0.39523  -0.39039
 Alpha  occ. eigenvalues --   -0.38881  -0.38566  -0.38385  -0.37937  -0.37522
 Alpha  occ. eigenvalues --   -0.36842  -0.36454  -0.36234  -0.36163  -0.35029
 Alpha  occ. eigenvalues --   -0.34867  -0.34652  -0.33820  -0.31995  -0.31501
 Alpha  occ. eigenvalues --   -0.30828  -0.30262  -0.28489  -0.26510  -0.22785
 Alpha  occ. eigenvalues --   -0.18341
 Alpha virt. eigenvalues --   -0.06845  -0.01310   0.02625   0.05698   0.06318
 Alpha virt. eigenvalues --    0.06645   0.08699   0.09815   0.11382   0.12174
 Alpha virt. eigenvalues --    0.12490   0.13161   0.13577   0.13824   0.14241

 Mulliken charges:
               1
     1  O   -0.534296
     2  O   -0.576233
     3  C    0.020445
     4  C   -0.127462
     5  C   -0.167896
     6  C    0.172941
     7  C    0.122159
     8  C   -0.044631
     9  C   -0.306005
    10  C   -0.285047
    11  C   -0.158040
    12  C   -0.164572
    13  C    0.200871
    14  C    0.102906
    15  C   -0.076393
    16  C   -0.216365
    17  C    0.024624
    18  C   -0.318360
    19  C   -0.312093
    20  C   -0.366897
    21  C   -0.018090
    22  C   -0.115316
    23  C   -0.329286
    24  C    0.089698
    25  C   -0.135513
    26  C   -0.356786
    27  C    0.057315
    28  C   -0.142163
    29  C   -0.323444
    30  C   -0.127499
    31  C   -0.012028
    32  C   -0.066858
    33  C   -0.069478
    34  C    0.067045
    35  C   -0.101484
    36  C    0.047696
    37  C   -0.380734
    38  C   -0.074176
    39  C   -0.108211
    40  C   -0.345878
    41  C   -0.087936
    42  C   -0.107278
    43  H    0.073538
    44  H    0.103357
    45  H    0.079562
    46  H    0.076019
    47  H    0.087297
    48  H    0.097437
    49  H    0.086362
    50  H    0.111661
    51  H    0.084125
    52  H    0.095966
    53  H    0.099722
    54  H    0.097854
    55  H    0.060966
    56  H    0.072367
    57  H    0.077968
    58  H    0.091198
    59  H    0.116076
    60  H    0.086694
    61  H    0.116820
    62  H    0.100479
    63  H    0.084773
    64  H    0.099806
    65  H    0.097314
    66  H    0.134037
    67  H    0.113061
    68  H    0.098601
    69  H    0.307321
    70  H    0.088657
    71  H    0.052427
    72  H    0.062546
    73  H    0.132703
    74  H    0.118899
    75  H    0.305494
    76  H    0.081209
    77  H    0.099342
    78  H    0.094323
    79  H    0.101996
    80  H    0.056128
    81  H    0.133441
    82  H    0.091428
    83  H    0.108064
    84  H    0.104961
    85  H    0.053729
    86  H    0.066709
    87  H    0.042933
    88  H    0.076652
    89  H    0.102816
    90  H    0.124157
    91  H    0.113946
    92  H    0.073455
    93  H    0.088090
    94  H    0.125084
    95  H    0.121386
    96  H    0.126650
    97  H    0.072045
    98  H    0.081097
 Sum of Mulliken charges =  -0.00000

 Dipole moment (field-independent basis, Debye):
    X=              1.4157    Y=              0.1905    Z=             -0.3593  Tot=              1.4730
 Quadrupole moment (field-independent basis, Debye-Ang):
   XX=           -251.9398   YY=           -248.8842   ZZ=           -258.8719
   XY=             -5.5951   XZ=             41.5939   YZ=              1.8996

 Normal termination of Gaussian 16 at Tue Jul 16 07:16:50 2019.
