 Gaussian 16, Revision A.03,
 Gaussian 16:  ES64L-G16RevA.03 25-Dec-2016

 -------------------------------------
 # td=(NStates=1) CAM-B3LYP/6-31G(d,p)
 -------------------------------------

 --
 TD
 --
 Symbolic Z-matrix:
 Charge =  0 Multiplicity = 1

                         Standard orientation:
 ---------------------------------------------------------------------
 Center     Atomic      Atomic             Coordinates (Angstroms)
 Number     Number       Type             X           Y           Z
 ---------------------------------------------------------------------
      1          8           0      -13.816951   -2.392540    0.565790
      2          8           0       14.670430    0.816986    0.523726
      3          6           0      -11.677602   -0.162034    1.497397
      4          6           0      -10.811469    0.339360    0.086684
      5          6           0      -11.773005   -1.591570    1.409974
      6          6           0      -12.380467   -2.309001    0.211343
      7          6           0      -11.548926   -0.385697   -1.150549
      8          6           0       10.934106    0.957727    1.127934
      9          6           0      -10.834182    0.212847    2.768609
     10          6           0      -13.104575    0.475180    1.392370
     11          6           0       12.358063    1.444807    0.943245
     12          6           0      -12.229997   -1.577222   -1.090884
     13          6           0       13.390523    0.283165    0.672621
     14          6           0       10.533746   -0.148763    0.059744
     15          6           0       -9.406374   -0.012812    0.058969
     16          6           0       12.968239   -0.330604   -0.646424
     17          6           0       11.530414   -0.679701   -0.751106
     18          6           0       10.031465    2.113566    1.052189
     19          6           0       10.698195    0.303800    2.560531
     20          6           0      -11.383965    0.486083   -2.387882
     21          6           0       -8.350873    0.902534   -0.251237
     22          6           0        9.201236   -0.531549   -0.001666
     23          6           0       11.221586   -1.521359   -1.891295
     24          6           0       -7.060993    0.625571   -0.127924
     25          6           0        8.724981   -1.832356   -0.217059
     26          6           0       -6.568210   -0.850897   -0.010850
     27          6           0        7.285461   -2.195489   -0.193179
     28          6           0       -6.119465    1.590748   -0.263650
     29          6           0        6.954632   -3.720843   -0.181110
     30          6           0        6.324612   -1.146420   -0.244219
     31          6           0       -4.689784    1.700092   -0.327225
     32          6           0        4.958034   -1.397636   -0.330550
     33          6           0       -3.903014    2.769902   -0.585029
     34          6           0       -2.557494    2.920329   -0.681617
     35          6           0        3.986928   -0.519868   -0.377723
     36          6           0        2.572624   -0.646861   -0.454713
     37          6           0       -1.963427    4.250250   -0.936868
     38          6           0       -1.787313    1.785177   -0.644955
     39          6           0        1.814481    0.461545   -0.547880
     40          6           0        2.027606   -2.065137   -0.329485
     41          6           0       -0.378062    1.714835   -0.649431
     42          6           0        0.451349    0.499346   -0.597238
     43          1           0      -10.849043    1.319309   -0.075154
     44          1           0      -12.286857   -2.034435    2.346202
     45          1           0      -10.819137   -1.930050    1.608342
     46          1           0      -12.003696   -3.406463    0.260052
     47          1           0       -9.805773   -0.197914    2.620226
     48          1           0      -10.727341    1.326772    2.841170
     49          1           0      -11.516763   -0.380666    3.416275
     50          1           0      -13.763865    0.126445    0.686670
     51          1           0      -13.564030    0.166633    2.163535
     52          1           0      -13.082265    1.508771    1.435996
     53          1           0       12.664516    2.029397   -0.036106
     54          1           0       12.526876    2.072787    1.749284
     55          1           0      -12.654237   -1.805904   -1.944856
     56          1           0       13.271989   -0.730154    1.443847
     57          1           0       -9.038792   -1.005927    0.020164
     58          1           0       13.403718   -1.382980   -1.029937
     59          1           0       13.375364    0.388157   -1.473597
     60          1           0        8.903101    2.076024    1.081160
     61          1           0        9.997222    2.682480   -0.023253
     62          1           0       10.340955    2.729753    1.761087
     63          1           0       11.222980   -0.571410    2.981649
     64          1           0        9.669721   -0.018167    2.595428
     65          1           0       10.673925    1.205451    3.300227
     66          1           0      -10.298819    0.882207   -2.523971
     67          1           0      -12.123637    1.445947   -2.569613
     68          1           0      -11.649480   -0.220393   -3.237278
     69          1           0      -14.453663   -3.252800    0.013234
     70          1           0        8.484676    0.202844    0.360012
     71          1           0       -8.508600    1.891506   -0.646951
     72          1           0       11.817374   -2.512132   -1.682514
     73          1           0       10.146166   -1.658873   -2.008262
     74          1           0       11.619348   -1.183577   -3.052277
     75          1           0       14.660764    1.713747    1.303920
     76          1           0        9.496525   -2.602424   -0.321528
     77          1           0       -5.294381   -0.855014   -0.420889
     78          1           0       -6.525681   -1.121433    1.091494
     79          1           0       -7.261417   -1.520872   -0.584337
     80          1           0       -6.487820    2.542705   -0.033679
     81          1           0        6.367423   -3.867840    0.547057
     82          1           0        6.355905   -3.962085   -1.111334
     83          1           0        7.949130   -4.301834   -0.273406
     84          1           0        6.656577   -0.220892   -0.645460
     85          1           0       -4.065958    0.591388   -0.260221
     86          1           0        4.630093   -2.535536   -0.224919
     87          1           0       -4.601779    3.712123   -0.740911
     88          1           0        4.122408    0.499704   -0.679916
     89          1           0       -1.505240    4.340838   -1.784151
     90          1           0       -1.446449    4.646940   -0.013869
     91          1           0       -2.892735    4.992305   -1.083137
     92          1           0       -2.227150    0.686495   -0.908743
     93          1           0        2.204044    1.471544   -0.628761
     94          1           0        2.197686   -2.227404    0.595367
     95          1           0        0.923003   -1.802470   -0.372091
     96          1           0        2.368023   -2.992721   -0.920231
     97          1           0        0.202673    2.783853   -0.796756
     98          1           0       -0.259911   -0.395587   -0.649582
 ---------------------------------------------------------------------

 SCF Done:  E(RCAM-B3LYP) =  -1706.77192566     A.U. after   16 cycles

 Excitation energies and oscillator strengths:

 Excited State   1:      Singlet-A      1.9104 eV  649.00 nm  f=3.2264  <S**2>=0.000
     155 ->158        -0.16352
     156 ->157         0.68835
 This state for optimization and/or second-order correction.
 Total Energy, E(TD-HF/TD-DFT) =  -1706.70172023
 Copying the excited state density for this state as the 1-particle RhoCI density.

 The electronic state is 1-A.
 Alpha  occ. eigenvalues --  -19.23920 -19.21911 -10.32492 -10.31965 -10.28626
 Alpha  occ. eigenvalues --  -10.28616 -10.27995 -10.27739 -10.27613 -10.27430
 Alpha  occ. eigenvalues --  -10.27266 -10.27256 -10.27090 -10.27065 -10.26856
 Alpha  occ. eigenvalues --  -10.26832 -10.26737 -10.26676 -10.26615 -10.26593
 Alpha  occ. eigenvalues --  -10.26585 -10.26233 -10.26209 -10.26165 -10.26148
 Alpha  occ. eigenvalues --  -10.26058 -10.26052 -10.25888 -10.25769 -10.25629
 Alpha  occ. eigenvalues --  -10.25512 -10.25470 -10.25412 -10.25310 -10.25212
 Alpha  occ. eigenvalues --  -10.25124 -10.24952 -10.24617 -10.24616 -10.24357
 Alpha  occ. eigenvalues --  -10.24027 -10.20291  -1.08732  -1.04328  -0.94122
 Alpha  occ. eigenvalues --   -0.92868  -0.92630  -0.92141  -0.91026  -0.90034
 Alpha  occ. eigenvalues --   -0.88496  -0.86879  -0.86643  -0.85267  -0.84439
 Alpha  occ. eigenvalues --   -0.82962  -0.82045  -0.80186  -0.79759  -0.79159
 Alpha  occ. eigenvalues --   -0.77303  -0.77201  -0.76452  -0.76131  -0.75750
 Alpha  occ. eigenvalues --   -0.75700  -0.75091  -0.74784  -0.72809  -0.70346
 Alpha  occ. eigenvalues --   -0.68535  -0.67679  -0.66083  -0.64739  -0.64025
 Alpha  occ. eigenvalues --   -0.63491  -0.61133  -0.60853  -0.60361  -0.59406
 Alpha  occ. eigenvalues --   -0.59214  -0.58016  -0.57383  -0.57020  -0.56161
 Alpha  occ. eigenvalues --   -0.55449  -0.55095  -0.54833  -0.54066  -0.53663
 Alpha  occ. eigenvalues --   -0.53174  -0.52731  -0.52201  -0.52114  -0.51383
 Alpha  occ. eigenvalues --   -0.51160  -0.50970  -0.50194  -0.49783  -0.49227
 Alpha  occ. eigenvalues --   -0.48677  -0.48646  -0.48271  -0.48188  -0.47783
 Alpha  occ. eigenvalues --   -0.47721  -0.47570  -0.47274  -0.46993  -0.46488
 Alpha  occ. eigenvalues --   -0.46054  -0.45365  -0.44971  -0.44763  -0.44548
 Alpha  occ. eigenvalues --   -0.44236  -0.44046  -0.43973  -0.43862  -0.43167
 Alpha  occ. eigenvalues --   -0.42551  -0.42381  -0.42326  -0.42194  -0.42119
 Alpha  occ. eigenvalues --   -0.41651  -0.41298  -0.41195  -0.41119  -0.40542
 Alpha  occ. eigenvalues --   -0.40331  -0.40165  -0.40049  -0.39601  -0.39043
 Alpha  occ. eigenvalues --   -0.38707  -0.38590  -0.38469  -0.37772  -0.37120
 Alpha  occ. eigenvalues --   -0.37034  -0.36528  -0.36456  -0.36273  -0.35941
 Alpha  occ. eigenvalues --   -0.35157  -0.34916  -0.33304  -0.32277  -0.31847
 Alpha  occ. eigenvalues --   -0.31309  -0.28894  -0.28834  -0.25702  -0.22640
 Alpha  occ. eigenvalues --   -0.18654
 Alpha virt. eigenvalues --   -0.06367  -0.02074   0.01488   0.04843   0.05816
 Alpha virt. eigenvalues --    0.06532   0.07741   0.08523   0.09849   0.11842
 Alpha virt. eigenvalues --    0.12081   0.12187   0.12937   0.13492   0.13641

 Mulliken charges:
               1
     1  O   -0.561232
     2  O   -0.546367
     3  C    0.005288
     4  C   -0.124243
     5  C   -0.172521
     6  C    0.127641
     7  C    0.084768
     8  C   -0.014085
     9  C   -0.299463
    10  C   -0.295736
    11  C   -0.203445
    12  C   -0.072876
    13  C    0.201529
    14  C    0.083004
    15  C   -0.080989
    16  C   -0.209787
    17  C    0.072602
    18  C   -0.301810
    19  C   -0.308254
    20  C   -0.356121
    21  C   -0.129499
    22  C   -0.115828
    23  C   -0.359808
    24  C    0.167214
    25  C   -0.140802
    26  C   -0.351360
    27  C    0.059517
    28  C   -0.173466
    29  C   -0.353323
    30  C   -0.120701
    31  C   -0.044383
    32  C   -0.084731
    33  C   -0.127401
    34  C    0.124996
    35  C   -0.097492
    36  C    0.086192
    37  C   -0.366450
    38  C   -0.121508
    39  C   -0.109461
    40  C   -0.360501
    41  C   -0.114691
    42  C   -0.105101
    43  H    0.084080
    44  H    0.101953
    45  H    0.101438
    46  H    0.080153
    47  H    0.109815
    48  H    0.104241
    49  H    0.103387
    50  H    0.130279
    51  H    0.104710
    52  H    0.089241
    53  H    0.102799
    54  H    0.086488
    55  H    0.067679
    56  H    0.041106
    57  H    0.083038
    58  H    0.085594
    59  H    0.109904
    60  H    0.107406
    61  H    0.085278
    62  H    0.108714
    63  H    0.116169
    64  H    0.120025
    65  H    0.076943
    66  H    0.116394
    67  H    0.101555
    68  H    0.099212
    69  H    0.286214
    70  H    0.090549
    71  H    0.081043
    72  H    0.096524
    73  H    0.127403
    74  H    0.079868
    75  H    0.305105
    76  H    0.098733
    77  H    0.072331
    78  H    0.123769
    79  H    0.113085
    80  H    0.075460
    81  H    0.142056
    82  H    0.120208
    83  H    0.108803
    84  H    0.097100
    85  H    0.040991
    86  H    0.059787
    87  H    0.065238
    88  H    0.064266
    89  H    0.143068
    90  H    0.126989
    91  H    0.088646
    92  H    0.084826
    93  H    0.091562
    94  H    0.147549
    95  H    0.092897
    96  H    0.116869
    97  H    0.063991
    98  H    0.088152
 Sum of Mulliken charges =  -0.00000

 Dipole moment (field-independent basis, Debye):
    X=              0.1864    Y=             -0.4673    Z=             -0.1888  Tot=              0.5374
 Quadrupole moment (field-independent basis, Debye-Ang):
   XX=           -271.5386   YY=           -235.6639   ZZ=           -263.7343
   XY=             23.9732   XZ=             26.2717   YZ=              3.3634

 Normal termination of Gaussian 16 at Mon Jul 15 04:22:03 2019.
