 Gaussian 16, Revision A.03,
 Gaussian 16:  ES64L-G16RevA.03 25-Dec-2016

 -------------------------------------
 # td=(NStates=1) CAM-B3LYP/6-31G(d,p)
 -------------------------------------

 --
 TD
 --
 Symbolic Z-matrix:
 Charge =  0 Multiplicity = 1

                         Standard orientation:
 ---------------------------------------------------------------------
 Center     Atomic      Atomic             Coordinates (Angstroms)
 Number     Number       Type             X           Y           Z
 ---------------------------------------------------------------------
      1          8           0      -14.192448   -1.767381    0.870015
      2          8           0       14.778987    1.319120    0.469065
      3          6           0      -11.793722    0.317086    1.235542
      4          6           0      -11.036034    0.274160   -0.108911
      5          6           0      -12.083651   -1.229547    1.657180
      6          6           0      -12.707609   -2.090979    0.576928
      7          6           0      -11.682680   -0.623431   -1.088435
      8          6           0       10.923802    1.045753    1.063787
      9          6           0      -11.024481    0.840609    2.404381
     10          6           0      -13.136999    1.101556    1.119092
     11          6           0       12.305624    1.583216    0.862119
     12          6           0      -12.341654   -1.688975   -0.832569
     13          6           0       13.468341    0.609890    0.562764
     14          6           0       10.623363   -0.091531    0.027379
     15          6           0       -9.631862    0.028305   -0.029674
     16          6           0       13.165944   -0.030456   -0.713425
     17          6           0       11.704932   -0.549525   -0.742278
     18          6           0        9.969320    2.239555    0.968882
     19          6           0       10.904917    0.456097    2.461481
     20          6           0      -11.435695   -0.303743   -2.668491
     21          6           0       -8.508445    0.774283   -0.226562
     22          6           0        9.235086   -0.438328    0.076738
     23          6           0       11.447315   -1.651240   -1.889208
     24          6           0       -7.056225    0.468683   -0.017998
     25          6           0        8.834089   -1.752790   -0.159623
     26          6           0       -6.550627   -0.820631    0.461211
     27          6           0        7.497885   -2.302224   -0.240682
     28          6           0       -6.215754    1.561580   -0.436130
     29          6           0        7.173979   -3.629583    0.170412
     30          6           0        6.494646   -1.447733   -0.297378
     31          6           0       -4.802022    1.416432   -0.440960
     32          6           0        5.022381   -1.746272   -0.338693
     33          6           0       -3.961722    2.444575   -0.816391
     34          6           0       -2.537412    2.468629   -0.976390
     35          6           0        4.108630   -0.641758   -0.367956
     36          6           0        2.646777   -0.813990   -0.275295
     37          6           0       -1.848653    3.782927   -1.312237
     38          6           0       -1.773054    1.361787   -0.807819
     39          6           0        1.808341    0.273267   -0.430383
     40          6           0        2.042612   -2.212093    0.156875
     41          6           0       -0.333415    1.389302   -0.884687
     42          6           0        0.435209    0.204479   -0.502544
     43          1           0      -11.108782    1.218144   -0.574285
     44          1           0      -12.808610   -1.310428    2.525726
     45          1           0      -11.023558   -1.671399    1.936774
     46          1           0      -12.598063   -3.058739    0.827805
     47          1           0       -9.938028    0.396559    2.498745
     48          1           0      -10.849254    1.963334    2.036455
     49          1           0      -11.513216    0.714427    3.396138
     50          1           0      -13.852139    0.728952    0.278615
     51          1           0      -13.791908    0.874811    2.026446
     52          1           0      -12.805362    2.188678    0.883943
     53          1           0       12.010630    2.413369    0.002642
     54          1           0       12.526702    2.266473    1.709855
     55          1           0      -12.555389   -2.493771   -1.638341
     56          1           0       13.365233   -0.176893    1.275845
     57          1           0       -9.257730   -1.096494    0.478177
     58          1           0       13.646568   -0.880690   -1.002505
     59          1           0       13.125380    0.590087   -1.710153
     60          1           0        8.936221    2.236988    1.629139
     61          1           0        9.904540    2.606936    0.024243
     62          1           0       10.672405    3.114820    1.490792
     63          1           0       11.855646   -0.127137    2.607076
     64          1           0        9.936889   -0.082862    2.553849
     65          1           0       10.934585    1.260477    3.245934
     66          1           0      -10.488881   -0.152896   -2.802819
     67          1           0      -11.648437    0.702912   -2.622945
     68          1           0      -11.892281   -0.889219   -3.159260
     69          1           0      -14.563940   -2.067989   -0.111942
     70          1           0        8.849307    0.422807    0.316351
     71          1           0       -8.716055    1.844646   -0.745697
     72          1           0       11.646970   -2.700711   -1.424642
     73          1           0       10.443438   -1.826338   -2.232708
     74          1           0       12.223069   -1.713024   -2.698011
     75          1           0       15.026214    1.600434    1.461937
     76          1           0        9.620644   -2.438834   -0.234893
     77          1           0       -5.516863   -0.841593    0.352239
     78          1           0       -6.860141   -1.226214    1.515507
     79          1           0       -6.891053   -1.679912   -0.075637
     80          1           0       -6.795510    2.432131   -0.634210
     81          1           0        6.881875   -3.637665    1.077565
     82          1           0        6.518887   -3.875951   -0.456342
     83          1           0        8.095215   -4.038550    0.313688
     84          1           0        6.692074   -0.417972   -0.578987
     85          1           0       -4.246988    0.529176   -0.013948
     86          1           0        4.659727   -2.806803   -0.187305
     87          1           0       -4.276005    3.395704   -1.219952
     88          1           0        4.385846    0.408326   -0.609770
     89          1           0       -1.424770    3.710684   -2.322674
     90          1           0       -1.087366    3.842213   -0.474932
     91          1           0       -2.290857    4.711256   -1.246618
     92          1           0       -2.209304    0.306613   -0.737755
     93          1           0        2.367233    1.140524   -0.670011
     94          1           0        2.507852   -2.559900    1.201521
     95          1           0        0.998039   -2.318597    0.298441
     96          1           0        2.333942   -3.061950   -0.502213
     97          1           0        0.249316    2.395256   -0.793315
     98          1           0       -0.205119   -0.742167   -0.396518
 ---------------------------------------------------------------------

 SCF Done:  E(RCAM-B3LYP) =  -1706.84893220     A.U. after   15 cycles

 Excitation energies and oscillator strengths:

 Excited State   1:      Singlet-A      2.1734 eV  570.47 nm  f=3.0418  <S**2>=0.000
     155 ->158        -0.15798
     156 ->157         0.68834
 This state for optimization and/or second-order correction.
 Total Energy, E(TD-HF/TD-DFT) =  -1706.76906226
 Copying the excited state density for this state as the 1-particle RhoCI density.

 The electronic state is 1-A.
 Alpha  occ. eigenvalues --  -19.22565 -19.20803 -10.31344 -10.29146 -10.28586
 Alpha  occ. eigenvalues --  -10.28373 -10.28291 -10.28234 -10.28000 -10.27937
 Alpha  occ. eigenvalues --  -10.27816 -10.27660 -10.27652 -10.27211 -10.27087
 Alpha  occ. eigenvalues --  -10.27072 -10.26985 -10.26798 -10.26796 -10.26781
 Alpha  occ. eigenvalues --  -10.26669 -10.26529 -10.26425 -10.26336 -10.26106
 Alpha  occ. eigenvalues --  -10.26046 -10.25978 -10.25912 -10.25909 -10.25668
 Alpha  occ. eigenvalues --  -10.25649 -10.25389 -10.25363 -10.25331 -10.25238
 Alpha  occ. eigenvalues --  -10.25223 -10.25150 -10.25129 -10.24921 -10.24828
 Alpha  occ. eigenvalues --  -10.22221 -10.21149  -1.06328  -1.03857  -0.94277
 Alpha  occ. eigenvalues --   -0.94131  -0.92665  -0.91853  -0.90646  -0.89746
 Alpha  occ. eigenvalues --   -0.87284  -0.87007  -0.86428  -0.85791  -0.84824
 Alpha  occ. eigenvalues --   -0.83212  -0.81513  -0.81119  -0.80370  -0.78263
 Alpha  occ. eigenvalues --   -0.78121  -0.77199  -0.76997  -0.76407  -0.75694
 Alpha  occ. eigenvalues --   -0.75420  -0.74885  -0.73745  -0.73023  -0.70820
 Alpha  occ. eigenvalues --   -0.69754  -0.67617  -0.66638  -0.66100  -0.63127
 Alpha  occ. eigenvalues --   -0.62644  -0.62442  -0.61896  -0.60601  -0.59718
 Alpha  occ. eigenvalues --   -0.59324  -0.57991  -0.57623  -0.57219  -0.56844
 Alpha  occ. eigenvalues --   -0.55777  -0.55305  -0.54985  -0.54405  -0.54274
 Alpha  occ. eigenvalues --   -0.53362  -0.52960  -0.52500  -0.52048  -0.52022
 Alpha  occ. eigenvalues --   -0.51232  -0.51026  -0.50658  -0.50155  -0.49522
 Alpha  occ. eigenvalues --   -0.48995  -0.48937  -0.48610  -0.48176  -0.47588
 Alpha  occ. eigenvalues --   -0.47358  -0.47152  -0.46788  -0.46534  -0.46362
 Alpha  occ. eigenvalues --   -0.46056  -0.45685  -0.45346  -0.45032  -0.44487
 Alpha  occ. eigenvalues --   -0.44354  -0.43918  -0.43843  -0.43771  -0.43427
 Alpha  occ. eigenvalues --   -0.42952  -0.42691  -0.42601  -0.42498  -0.42197
 Alpha  occ. eigenvalues --   -0.41976  -0.41340  -0.40928  -0.40770  -0.40589
 Alpha  occ. eigenvalues --   -0.40198  -0.40011  -0.39728  -0.39644  -0.39416
 Alpha  occ. eigenvalues --   -0.38984  -0.38924  -0.38749  -0.38386  -0.38021
 Alpha  occ. eigenvalues --   -0.37607  -0.36775  -0.36159  -0.35689  -0.35364
 Alpha  occ. eigenvalues --   -0.34611  -0.34096  -0.33647  -0.32999  -0.32002
 Alpha  occ. eigenvalues --   -0.31702  -0.30769  -0.29353  -0.26199  -0.23378
 Alpha  occ. eigenvalues --   -0.19618
 Alpha virt. eigenvalues --   -0.05870  -0.01291   0.01937   0.05657   0.06971
 Alpha virt. eigenvalues --    0.09110   0.10320   0.10739   0.10958   0.11592
 Alpha virt. eigenvalues --    0.12119   0.12295   0.12795   0.13165   0.14063

 Mulliken charges:
               1
     1  O   -0.566469
     2  O   -0.568988
     3  C    0.031877
     4  C   -0.135408
     5  C   -0.189004
     6  C    0.136153
     7  C    0.102685
     8  C   -0.013114
     9  C   -0.277272
    10  C   -0.280460
    11  C   -0.197270
    12  C   -0.168109
    13  C    0.167006
    14  C    0.034284
    15  C   -0.062215
    16  C   -0.183243
    17  C   -0.009266
    18  C   -0.325165
    19  C   -0.277340
    20  C   -0.295160
    21  C   -0.104617
    22  C   -0.015988
    23  C   -0.375657
    24  C    0.115614
    25  C   -0.144678
    26  C   -0.380986
    27  C    0.047406
    28  C   -0.097632
    29  C   -0.320368
    30  C   -0.097066
    31  C   -0.099604
    32  C   -0.118255
    33  C   -0.097374
    34  C    0.065414
    35  C   -0.125966
    36  C    0.112016
    37  C   -0.371212
    38  C   -0.116812
    39  C   -0.114945
    40  C   -0.373873
    41  C   -0.111896
    42  C   -0.087530
    43  H    0.088430
    44  H    0.113475
    45  H    0.067224
    46  H    0.096374
    47  H    0.094713
    48  H    0.069257
    49  H    0.107978
    50  H    0.104802
    51  H    0.109308
    52  H    0.076810
    53  H    0.069747
    54  H    0.078031
    55  H    0.078280
    56  H    0.101541
    57  H    0.042133
    58  H    0.116600
    59  H    0.121970
    60  H    0.096379
    61  H    0.130707
    62  H    0.077818
    63  H    0.088222
    64  H    0.102908
    65  H    0.089561
    66  H    0.126145
    67  H    0.110185
    68  H    0.094081
    69  H    0.287402
    70  H    0.070893
    71  H    0.056203
    72  H    0.096412
    73  H    0.133283
    74  H    0.103355
    75  H    0.307455
    76  H    0.083966
    77  H    0.115723
    78  H    0.113448
    79  H    0.129619
    80  H    0.097223
    81  H    0.139954
    82  H    0.124433
    83  H    0.097006
    84  H    0.078702
    85  H    0.097829
    86  H    0.094621
    87  H    0.073125
    88  H    0.091874
    89  H    0.130585
    90  H    0.119167
    91  H    0.115076
    92  H    0.082758
    93  H    0.082803
    94  H    0.102834
    95  H    0.117041
    96  H    0.114409
    97  H    0.089669
    98  H    0.090942
 Sum of Mulliken charges =  -0.00000

 Dipole moment (field-independent basis, Debye):
    X=              1.6589    Y=             -1.1187    Z=             -0.2452  Tot=              2.0158
 Quadrupole moment (field-independent basis, Debye-Ang):
   XX=           -310.5907   YY=           -243.6033   ZZ=           -261.7509
   XY=             -2.5266   XZ=             43.6385   YZ=              0.7217

 Normal termination of Gaussian 16 at Sun Jul 14 05:39:42 2019.
