 Gaussian 16, Revision A.03,
 Gaussian 16:  ES64L-G16RevA.03 25-Dec-2016

 -------------------------------------
 # td=(NStates=1) CAM-B3LYP/6-31G(d,p)
 -------------------------------------

 --
 TD
 --
 Symbolic Z-matrix:
 Charge =  0 Multiplicity = 1

                         Standard orientation:
 ---------------------------------------------------------------------
 Center     Atomic      Atomic             Coordinates (Angstroms)
 Number     Number       Type             X           Y           Z
 ---------------------------------------------------------------------
      1          8           0      -14.187961   -1.788673    0.299040
      2          8           0       14.707211    1.102056    0.134819
      3          6           0      -11.764975    0.098668    1.260682
      4          6           0      -10.934282    0.371641   -0.068178
      5          6           0      -12.087285   -1.438722    1.433617
      6          6           0      -12.758046   -2.014429    0.085123
      7          6           0      -11.484909   -0.369069   -1.249053
      8          6           0       11.063451    0.969737    1.147611
      9          6           0      -11.080161    0.401406    2.580240
     10          6           0      -13.008876    1.006365    1.208287
     11          6           0       12.353352    1.592458    0.899681
     12          6           0      -12.349601   -1.508894   -1.173747
     13          6           0       13.273187    0.575219    0.404632
     14          6           0       10.674079    0.054196   -0.071119
     15          6           0       -9.494947   -0.020275    0.112967
     16          6           0       12.969402    0.057635   -0.905439
     17          6           0       11.591539   -0.391000   -0.948587
     18          6           0        9.926238    2.163634    1.092530
     19          6           0       11.055367    0.174401    2.515597
     20          6           0      -11.060676    0.207842   -2.527688
     21          6           0       -8.408159    0.855420   -0.053520
     22          6           0        9.299637   -0.425376   -0.031945
     23          6           0       11.270202   -1.393931   -2.072033
     24          6           0       -7.089649    0.554750    0.125346
     25          6           0        8.807844   -1.753251   -0.129141
     26          6           0       -6.744141   -0.911707    0.301292
     27          6           0        7.434002   -2.209573   -0.119939
     28          6           0       -6.219867    1.525069   -0.156504
     29          6           0        7.131856   -3.676343   -0.002903
     30          6           0        6.418837   -1.289791   -0.145485
     31          6           0       -4.737487    1.387115   -0.347254
     32          6           0        5.046190   -1.586477    0.005222
     33          6           0       -4.046122    2.545424   -0.604842
     34          6           0       -2.545475    2.533474   -0.705292
     35          6           0        4.014184   -0.720681   -0.166642
     36          6           0        2.648190   -0.923500   -0.081617
     37          6           0       -1.824656    3.768917   -1.238536
     38          6           0       -1.856996    1.372629   -0.522349
     39          6           0        1.766472    0.150217   -0.427414
     40          6           0        2.157480   -2.263252    0.190899
     41          6           0       -0.405467    1.320545   -0.663282
     42          6           0        0.408474    0.274117   -0.461342
     43          1           0      -10.892531    1.377300   -0.268553
     44          1           0      -12.893211   -1.630745    2.292305
     45          1           0      -11.219523   -2.068105    1.520358
     46          1           0      -12.561840   -3.219980   -0.013825
     47          1           0      -10.077559   -0.173926    2.871166
     48          1           0      -10.692318    1.452309    2.511296
     49          1           0      -11.776646    0.498511    3.551702
     50          1           0      -13.443659    0.682102    0.214465
     51          1           0      -13.782917    0.544193    1.972062
     52          1           0      -12.792176    2.025200    1.490628
     53          1           0       12.132199    2.483663    0.162181
     54          1           0       12.640596    2.132197    1.795359
     55          1           0      -12.676846   -1.803171   -2.123417
     56          1           0       13.397985   -0.338487    1.056850
     57          1           0       -9.269202   -1.061801    0.570583
     58          1           0       13.647519   -0.739695   -1.148221
     59          1           0       13.172445    0.927999   -1.771614
     60          1           0        9.008152    1.568436    1.492796
     61          1           0       10.012249    2.465950    0.143522
     62          1           0       10.290570    2.835559    1.870576
     63          1           0       12.065876   -0.339044    2.413219
     64          1           0       10.215254   -0.251717    2.653495
     65          1           0       11.444185    0.905682    3.106627
     66          1           0       -9.977752    0.192718   -2.671627
     67          1           0      -11.355079    1.230732   -2.575209
     68          1           0      -11.572690   -0.479432   -3.302806
     69          1           0      -14.839572   -2.009733   -0.437223
     70          1           0        8.299430    0.186504    0.154111
     71          1           0       -8.753376    1.671524   -0.118443
     72          1           0       11.709808   -2.388066   -1.974716
     73          1           0       10.221140   -1.402315   -2.224017
     74          1           0       11.850512   -0.910881   -2.793147
     75          1           0       15.012137    1.711893    0.971932
     76          1           0        9.533342   -2.573518   -0.268554
     77          1           0       -5.671699   -1.083918    0.466496
     78          1           0       -7.282680   -1.363328    1.148928
     79          1           0       -7.036526   -1.502349   -0.582858
     80          1           0       -6.683684    2.528051   -0.201102
     81          1           0        6.709758   -3.617442    1.126500
     82          1           0        6.431336   -4.001966   -0.554825
     83          1           0        8.017001   -4.214617   -0.042767
     84          1           0        6.697955   -0.258135   -0.291372
     85          1           0       -4.073956    0.417055   -0.229327
     86          1           0        4.963644   -2.712067   -0.050302
     87          1           0       -4.561721    3.450648   -0.969094
     88          1           0        4.313771    0.251205   -0.386345
     89          1           0       -1.171284    3.545791   -2.245030
     90          1           0       -1.133293    4.226655   -0.524515
     91          1           0       -2.463536    4.623385   -1.347267
     92          1           0       -2.328198    0.361011   -0.110034
     93          1           0        2.323549    1.042563   -0.684675
     94          1           0        2.770100   -2.707775    1.052882
     95          1           0        0.987365   -2.257238    0.677293
     96          1           0        2.388916   -2.674244   -0.814718
     97          1           0        0.226646    2.210375   -0.798458
     98          1           0       -0.103215   -0.660217   -0.173410
 ---------------------------------------------------------------------

 SCF Done:  E(RCAM-B3LYP) =  -1706.91181970     A.U. after   15 cycles

 Excitation energies and oscillator strengths:

 Excited State   1:      Singlet-A      2.2707 eV  546.03 nm  f=3.0148  <S**2>=0.000
     155 ->158        -0.16325
     156 ->157         0.68504
 This state for optimization and/or second-order correction.
 Total Energy, E(TD-HF/TD-DFT) =  -1706.82837443
 Copying the excited state density for this state as the 1-particle RhoCI density.

 The electronic state is 1-A.
 Alpha  occ. eigenvalues --  -19.20904 -19.20284 -10.31449 -10.30656 -10.27918
 Alpha  occ. eigenvalues --  -10.27837 -10.27386 -10.27337 -10.27253 -10.27223
 Alpha  occ. eigenvalues --  -10.27218 -10.27211 -10.27194 -10.27097 -10.26995
 Alpha  occ. eigenvalues --  -10.26702 -10.26630 -10.26600 -10.26482 -10.26346
 Alpha  occ. eigenvalues --  -10.26285 -10.26226 -10.26191 -10.26102 -10.25987
 Alpha  occ. eigenvalues --  -10.25912 -10.25784 -10.25717 -10.25614 -10.25579
 Alpha  occ. eigenvalues --  -10.25410 -10.25261 -10.25241 -10.25179 -10.25150
 Alpha  occ. eigenvalues --  -10.25049 -10.24940 -10.24659 -10.24276 -10.23954
 Alpha  occ. eigenvalues --  -10.23494 -10.23412  -1.06348  -1.03974  -0.94817
 Alpha  occ. eigenvalues --   -0.93549  -0.92706  -0.91777  -0.91152  -0.90232
 Alpha  occ. eigenvalues --   -0.88208  -0.87290  -0.86712  -0.85493  -0.84656
 Alpha  occ. eigenvalues --   -0.83230  -0.82331  -0.80637  -0.80383  -0.78198
 Alpha  occ. eigenvalues --   -0.78029  -0.77252  -0.77237  -0.76551  -0.75875
 Alpha  occ. eigenvalues --   -0.75664  -0.75074  -0.73639  -0.73199  -0.70249
 Alpha  occ. eigenvalues --   -0.68498  -0.67107  -0.66249  -0.65030  -0.63379
 Alpha  occ. eigenvalues --   -0.63165  -0.61872  -0.61748  -0.61343  -0.60150
 Alpha  occ. eigenvalues --   -0.59620  -0.58419  -0.57999  -0.57085  -0.57016
 Alpha  occ. eigenvalues --   -0.56370  -0.55508  -0.55135  -0.54025  -0.53841
 Alpha  occ. eigenvalues --   -0.53036  -0.52500  -0.52247  -0.52088  -0.51993
 Alpha  occ. eigenvalues --   -0.51372  -0.50825  -0.50772  -0.50110  -0.49666
 Alpha  occ. eigenvalues --   -0.48912  -0.48611  -0.48458  -0.48423  -0.47936
 Alpha  occ. eigenvalues --   -0.47436  -0.47204  -0.46868  -0.46717  -0.46360
 Alpha  occ. eigenvalues --   -0.46196  -0.45839  -0.45572  -0.45080  -0.44600
 Alpha  occ. eigenvalues --   -0.44527  -0.44197  -0.43911  -0.43778  -0.43566
 Alpha  occ. eigenvalues --   -0.43208  -0.43014  -0.42902  -0.42518  -0.42143
 Alpha  occ. eigenvalues --   -0.41864  -0.41574  -0.40950  -0.40691  -0.40622
 Alpha  occ. eigenvalues --   -0.40440  -0.40375  -0.39907  -0.39442  -0.39284
 Alpha  occ. eigenvalues --   -0.39096  -0.38739  -0.38417  -0.37768  -0.37429
 Alpha  occ. eigenvalues --   -0.36947  -0.36688  -0.36396  -0.36185  -0.35836
 Alpha  occ. eigenvalues --   -0.34857  -0.34690  -0.33661  -0.32208  -0.31219
 Alpha  occ. eigenvalues --   -0.31005  -0.28851  -0.27769  -0.26395  -0.23548
 Alpha  occ. eigenvalues --   -0.19738
 Alpha virt. eigenvalues --   -0.05496  -0.01115   0.02249   0.04733   0.06585
 Alpha virt. eigenvalues --    0.08452   0.11027   0.11141   0.11323   0.12228
 Alpha virt. eigenvalues --    0.12510   0.12842   0.13530   0.13733   0.13953

 Mulliken charges:
               1
     1  O   -0.572985
     2  O   -0.594777
     3  C    0.030459
     4  C   -0.136204
     5  C   -0.165747
     6  C    0.132076
     7  C    0.101118
     8  C   -0.061923
     9  C   -0.297641
    10  C   -0.292762
    11  C   -0.195842
    12  C   -0.096721
    13  C    0.156999
    14  C    0.066939
    15  C   -0.099623
    16  C   -0.202283
    17  C    0.043649
    18  C   -0.294048
    19  C   -0.264135
    20  C   -0.356649
    21  C   -0.046970
    22  C   -0.143334
    23  C   -0.351351
    24  C    0.140611
    25  C   -0.119916
    26  C   -0.376535
    27  C    0.067028
    28  C   -0.148156
    29  C   -0.348130
    30  C   -0.108889
    31  C   -0.065463
    32  C   -0.102480
    33  C   -0.117027
    34  C    0.087946
    35  C   -0.104849
    36  C    0.113475
    37  C   -0.369964
    38  C   -0.120347
    39  C   -0.127086
    40  C   -0.364083
    41  C   -0.084488
    42  C   -0.072024
    43  H    0.093207
    44  H    0.116661
    45  H    0.103144
    46  H    0.045477
    47  H    0.082566
    48  H    0.081859
    49  H    0.091151
    50  H    0.111705
    51  H    0.092899
    52  H    0.102003
    53  H    0.095630
    54  H    0.087455
    55  H    0.078119
    56  H    0.105618
    57  H    0.074489
    58  H    0.121761
    59  H    0.102349
    60  H    0.100550
    61  H    0.119269
    62  H    0.093259
    63  H    0.087298
    64  H    0.114227
    65  H    0.106512
    66  H    0.129153
    67  H    0.120263
    68  H    0.092090
    69  H    0.301908
    70  H    0.080653
    71  H    0.030354
    72  H    0.113912
    73  H    0.125415
    74  H    0.112795
    75  H    0.289525
    76  H    0.074114
    77  H    0.102541
    78  H    0.116409
    79  H    0.127090
    80  H    0.086302
    81  H    0.115033
    82  H    0.138211
    83  H    0.113353
    84  H    0.077682
    85  H    0.092530
    86  H    0.070680
    87  H    0.092517
    88  H    0.078714
    89  H    0.112708
    90  H    0.126091
    91  H    0.107673
    92  H    0.084003
    93  H    0.063229
    94  H    0.114838
    95  H    0.091694
    96  H    0.140319
    97  H    0.078438
    98  H    0.054685
 Sum of Mulliken charges =  -0.00000

 Dipole moment (field-independent basis, Debye):
    X=              0.3358    Y=             -0.1187    Z=             -0.1641  Tot=              0.3921
 Quadrupole moment (field-independent basis, Debye-Ang):
   XX=           -280.8086   YY=           -243.2096   ZZ=           -261.9269
   XY=             -1.1283   XZ=             36.0339   YZ=              3.2070

 Normal termination of Gaussian 16 at Sun Jul 14 12:44:12 2019.
