 Gaussian 16, Revision A.03,
 Gaussian 16:  ES64L-G16RevA.03 25-Dec-2016

 -------------------------------------
 # td=(NStates=1) CAM-B3LYP/6-31G(d,p)
 -------------------------------------

 --
 TD
 --
 Symbolic Z-matrix:
 Charge =  0 Multiplicity = 1

                         Standard orientation:
 ---------------------------------------------------------------------
 Center     Atomic      Atomic             Coordinates (Angstroms)
 Number     Number       Type             X           Y           Z
 ---------------------------------------------------------------------
      1          8           0      -14.173579   -1.932009    0.617233
      2          8           0       14.758786    0.848298    0.181151
      3          6           0      -11.705575    0.104682    1.293713
      4          6           0      -10.949545    0.298622   -0.047735
      5          6           0      -11.970050   -1.432003    1.523223
      6          6           0      -12.776221   -2.151387    0.437832
      7          6           0      -11.609218   -0.605444   -1.215903
      8          6           0       11.094877    0.883208    1.159744
      9          6           0      -10.856271    0.618559    2.418064
     10          6           0      -13.015504    0.926558    1.197407
     11          6           0       12.521590    1.404192    0.953993
     12          6           0      -12.366595   -1.692054   -0.944418
     13          6           0       13.465131    0.429133    0.437345
     14          6           0       10.624136   -0.018381   -0.034578
     15          6           0       -9.517451   -0.185269    0.002785
     16          6           0       12.930539   -0.066153   -0.920811
     17          6           0       11.560566   -0.361302   -0.973828
     18          6           0       10.236758    2.135370    1.422480
     19          6           0       11.176555   -0.030486    2.453306
     20          6           0      -11.340888   -0.166957   -2.605265
     21          6           0       -8.453457    0.702774   -0.288293
     22          6           0        9.260333   -0.531857    0.174408
     23          6           0       11.128035   -1.242676   -2.151668
     24          6           0       -7.074082    0.545819   -0.066309
     25          6           0        8.769725   -1.748714   -0.192119
     26          6           0       -6.641744   -0.953186    0.262052
     27          6           0        7.300025   -2.151303   -0.174580
     28          6           0       -6.177863    1.567615   -0.325720
     29          6           0        7.166157   -3.690968    0.009981
     30          6           0        6.316990   -1.403148   -0.239227
     31          6           0       -4.830920    1.566102   -0.279090
     32          6           0        4.959213   -1.549611   -0.099405
     33          6           0       -4.034499    2.626192   -0.853948
     34          6           0       -2.600479    2.729057   -0.773155
     35          6           0        4.094834   -0.657675   -0.293027
     36          6           0        2.668199   -0.639231   -0.213612
     37          6           0       -1.986198    4.067335   -1.081436
     38          6           0       -1.754388    1.606250   -0.623836
     39          6           0        1.765284    0.406180   -0.374189
     40          6           0        2.054552   -2.017255    0.052193
     41          6           0       -0.364812    1.541476   -0.613448
     42          6           0        0.439256    0.485352   -0.250036
     43          1           0      -10.829084    1.338968   -0.154549
     44          1           0      -12.607086   -1.570113    2.523524
     45          1           0      -11.062624   -1.868515    1.550707
     46          1           0      -12.560959   -3.255262    0.591833
     47          1           0      -10.036592    0.104836    2.713797
     48          1           0      -10.320351    1.549373    2.157237
     49          1           0      -11.556214    0.530538    3.314004
     50          1           0      -13.524024    0.832607    0.247064
     51          1           0      -13.705378    0.725179    2.035811
     52          1           0      -12.689244    2.095763    1.246320
     53          1           0       12.628849    2.198790    0.201470
     54          1           0       12.790012    1.817003    1.905759
     55          1           0      -12.755786   -2.127422   -1.923245
     56          1           0       13.493391   -0.685797    0.945195
     57          1           0       -9.311385   -1.116001    0.271489
     58          1           0       13.638133   -1.087032   -1.375687
     59          1           0       13.297349    0.405718   -1.938414
     60          1           0        9.242810    2.019384    1.801005
     61          1           0        9.927392    2.732189    0.653981
     62          1           0       10.766782    2.896629    2.315942
     63          1           0       11.964215   -0.715601    2.130090
     64          1           0       10.240046   -0.577988    2.629522
     65          1           0       11.500236    0.694113    3.156776
     66          1           0      -10.236761    0.025998   -2.697598
     67          1           0      -11.979218    0.760813   -2.877946
     68          1           0      -11.703623   -0.920339   -3.300927
     69          1           0      -14.724982   -2.301035   -0.081895
     70          1           0        8.662470    0.144096    0.694115
     71          1           0       -8.711521    1.770852   -0.492781
     72          1           0       11.273149   -2.363146   -2.104685
     73          1           0       10.035223   -1.160338   -2.573486
     74          1           0       11.726997   -0.862663   -3.063624
     75          1           0       14.964959    1.639285    0.931764
     76          1           0        9.389135   -2.402841   -0.629015
     77          1           0       -5.522511   -1.108119    0.321663
     78          1           0       -7.122784   -1.258991    1.238871
     79          1           0       -7.241520   -1.730907   -0.365743
     80          1           0       -6.763752    2.475689   -0.822442
     81          1           0        6.708506   -3.898094    1.077358
     82          1           0        6.515148   -3.950590   -0.723594
     83          1           0        8.120966   -4.109047   -0.392578
     84          1           0        6.505811   -0.337452   -0.422944
     85          1           0       -4.306900    0.670048    0.183835
     86          1           0        4.704213   -2.627816   -0.024343
     87          1           0       -4.682779    3.612571   -0.857464
     88          1           0        4.483495    0.595032   -0.334377
     89          1           0       -1.337053    4.005588   -2.045074
     90          1           0       -1.376502    4.602772   -0.196238
     91          1           0       -2.633676    4.897876   -1.242670
     92          1           0       -2.549357    0.689981   -0.276625
     93          1           0        2.115539    1.463821   -0.760787
     94          1           0        2.040132   -2.280906    1.146625
     95          1           0        0.884500   -1.877200   -0.559342
     96          1           0        2.584971   -2.910746   -0.515945
     97          1           0        0.072870    2.531206   -0.721316
     98          1           0       -0.149255   -0.149577    0.125185
 ---------------------------------------------------------------------

 SCF Done:  E(RCAM-B3LYP) =  -1706.87462105     A.U. after   16 cycles

 Excitation energies and oscillator strengths:

 Excited State   1:      Singlet-A      2.0305 eV  610.61 nm  f=2.7794  <S**2>=0.000
     155 ->158         0.10516
     156 ->157         0.70179
     156 <-157        -0.11021
 This state for optimization and/or second-order correction.
 Total Energy, E(TD-HF/TD-DFT) =  -1706.80000214
 Copying the excited state density for this state as the 1-particle RhoCI density.

 The electronic state is 1-A.
 Alpha  occ. eigenvalues --  -19.23036 -19.20934 -10.31605 -10.31411 -10.28532
 Alpha  occ. eigenvalues --  -10.28516 -10.28263 -10.27995 -10.27913 -10.27791
 Alpha  occ. eigenvalues --  -10.27756 -10.27723 -10.27576 -10.27509 -10.27293
 Alpha  occ. eigenvalues --  -10.27148 -10.27026 -10.26929 -10.26853 -10.26768
 Alpha  occ. eigenvalues --  -10.26737 -10.26737 -10.26683 -10.26644 -10.26550
 Alpha  occ. eigenvalues --  -10.26326 -10.26035 -10.25963 -10.25772 -10.25699
 Alpha  occ. eigenvalues --  -10.25581 -10.25514 -10.25435 -10.25354 -10.25327
 Alpha  occ. eigenvalues --  -10.25195 -10.25000 -10.24660 -10.24330 -10.24019
 Alpha  occ. eigenvalues --  -10.23643 -10.23165  -1.09575  -1.09038  -0.93877
 Alpha  occ. eigenvalues --   -0.93446  -0.93014  -0.92029  -0.91281  -0.89727
 Alpha  occ. eigenvalues --   -0.88055  -0.87261  -0.86942  -0.86003  -0.85109
 Alpha  occ. eigenvalues --   -0.83399  -0.82612  -0.80452  -0.80117  -0.78289
 Alpha  occ. eigenvalues --   -0.76599  -0.76181  -0.76114  -0.75811  -0.75414
 Alpha  occ. eigenvalues --   -0.75110  -0.74975  -0.74878  -0.72552  -0.70738
 Alpha  occ. eigenvalues --   -0.69153  -0.68257  -0.67497  -0.65486  -0.64645
 Alpha  occ. eigenvalues --   -0.63686  -0.63297  -0.61913  -0.61309  -0.59975
 Alpha  occ. eigenvalues --   -0.59382  -0.59152  -0.58078  -0.57212  -0.57019
 Alpha  occ. eigenvalues --   -0.56051  -0.55240  -0.54643  -0.54239  -0.54182
 Alpha  occ. eigenvalues --   -0.53135  -0.52750  -0.52270  -0.51200  -0.51051
 Alpha  occ. eigenvalues --   -0.50349  -0.50107  -0.49879  -0.49198  -0.48969
 Alpha  occ. eigenvalues --   -0.48550  -0.48266  -0.48026  -0.47936  -0.47798
 Alpha  occ. eigenvalues --   -0.47465  -0.47437  -0.47211  -0.46537  -0.46266
 Alpha  occ. eigenvalues --   -0.46201  -0.46049  -0.45492  -0.45394  -0.45080
 Alpha  occ. eigenvalues --   -0.44534  -0.44248  -0.44071  -0.43540  -0.43286
 Alpha  occ. eigenvalues --   -0.43149  -0.43133  -0.42397  -0.42290  -0.42179
 Alpha  occ. eigenvalues --   -0.41760  -0.41698  -0.41052  -0.40830  -0.40336
 Alpha  occ. eigenvalues --   -0.40301  -0.40037  -0.39980  -0.39791  -0.39376
 Alpha  occ. eigenvalues --   -0.39154  -0.38863  -0.37663  -0.37639  -0.37270
 Alpha  occ. eigenvalues --   -0.36884  -0.36821  -0.36325  -0.35981  -0.35524
 Alpha  occ. eigenvalues --   -0.35251  -0.34734  -0.33877  -0.32349  -0.32100
 Alpha  occ. eigenvalues --   -0.31354  -0.30001  -0.29398  -0.26313  -0.24335
 Alpha  occ. eigenvalues --   -0.19622
 Alpha virt. eigenvalues --   -0.06966  -0.01149   0.01711   0.05279   0.06950
 Alpha virt. eigenvalues --    0.08820   0.09356   0.10849   0.11215   0.11436
 Alpha virt. eigenvalues --    0.11894   0.12443   0.13130   0.13520   0.13701

 Mulliken charges:
               1
     1  O   -0.554043
     2  O   -0.559279
     3  C    0.027652
     4  C   -0.132937
     5  C   -0.178233
     6  C    0.159160
     7  C    0.117397
     8  C   -0.042356
     9  C   -0.295684
    10  C   -0.278238
    11  C   -0.204765
    12  C   -0.150459
    13  C    0.211156
    14  C    0.042689
    15  C   -0.064284
    16  C   -0.262108
    17  C    0.124923
    18  C   -0.304089
    19  C   -0.283289
    20  C   -0.354259
    21  C   -0.132700
    22  C   -0.087934
    23  C   -0.373777
    24  C    0.138600
    25  C   -0.088910
    26  C   -0.379653
    27  C    0.028093
    28  C   -0.126443
    29  C   -0.368301
    30  C   -0.073080
    31  C   -0.068923
    32  C   -0.057154
    33  C   -0.142580
    34  C    0.102805
    35  C   -0.084573
    36  C    0.089470
    37  C   -0.379189
    38  C   -0.099692
    39  C   -0.115896
    40  C   -0.354136
    41  C   -0.112434
    42  C   -0.015713
    43  H    0.092879
    44  H    0.094840
    45  H    0.102952
    46  H    0.073407
    47  H    0.107578
    48  H    0.095472
    49  H    0.090771
    50  H    0.115791
    51  H    0.107063
    52  H    0.060425
    53  H    0.112303
    54  H    0.085784
    55  H    0.067486
    56  H    0.067325
    57  H    0.079225
    58  H    0.074106
    59  H    0.112626
    60  H    0.104808
    61  H    0.120275
    62  H    0.054499
    63  H    0.106321
    64  H    0.112119
    65  H    0.099532
    66  H    0.119848
    67  H    0.109556
    68  H    0.106777
    69  H    0.307238
    70  H    0.081587
    71  H    0.073484
    72  H    0.114780
    73  H    0.111808
    74  H    0.087318
    75  H    0.305042
    76  H    0.077303
    77  H    0.109481
    78  H    0.115492
    79  H    0.120284
    80  H    0.077936
    81  H    0.120006
    82  H    0.128754
    83  H    0.104541
    84  H    0.062583
    85  H    0.095099
    86  H    0.075565
    87  H    0.090558
    88  H    0.043205
    89  H    0.120308
    90  H    0.102427
    91  H    0.116163
    92  H    0.046885
    93  H    0.068042
    94  H    0.124465
    95  H    0.073235
    96  H    0.103957
    97  H    0.089084
    98  H    0.062769
 Sum of Mulliken charges =  -0.00000

 Dipole moment (field-independent basis, Debye):
    X=             -1.6842    Y=              0.1220    Z=              0.0446  Tot=              1.6892
 Quadrupole moment (field-independent basis, Debye-Ang):
   XX=           -266.5120   YY=           -243.5591   ZZ=           -263.6033
   XY=             20.9885   XZ=             27.2468   YZ=              3.1462

 Normal termination of Gaussian 16 at Mon Jul 15 05:12:18 2019.
