 Gaussian 16, Revision A.03,
 Gaussian 16:  ES64L-G16RevA.03 25-Dec-2016

 -------------------------------------
 # td=(NStates=1) CAM-B3LYP/6-31G(d,p)
 -------------------------------------

 --
 TD
 --
 Symbolic Z-matrix:
 Charge =  0 Multiplicity = 1

                         Standard orientation:
 ---------------------------------------------------------------------
 Center     Atomic      Atomic             Coordinates (Angstroms)
 Number     Number       Type             X           Y           Z
 ---------------------------------------------------------------------
      1          8           0      -14.235035   -1.615249    0.579998
      2          8           0       14.765063    1.114991    0.454425
      3          6           0      -11.734279    0.162286    1.353633
      4          6           0      -10.931251    0.355713    0.100650
      5          6           0      -12.118101   -1.346436    1.683265
      6          6           0      -12.800872   -1.959890    0.427786
      7          6           0      -11.613938   -0.322419   -1.031286
      8          6           0       11.052293    1.020962    1.217260
      9          6           0      -10.944063    0.728860    2.616433
     10          6           0      -13.008515    0.995714    1.298298
     11          6           0       12.447550    1.552788    1.022327
     12          6           0      -12.380901   -1.341971   -0.861568
     13          6           0       13.468630    0.572855    0.524759
     14          6           0       10.645373    0.037710    0.107383
     15          6           0       -9.443141   -0.114429    0.218573
     16          6           0       13.037319    0.054568   -0.862769
     17          6           0       11.572178   -0.320215   -0.871337
     18          6           0       10.039998    2.166854    1.303898
     19          6           0       10.867622    0.237412    2.562485
     20          6           0      -11.396856    0.214311   -2.382022
     21          6           0       -8.511210    0.736222   -0.066117
     22          6           0        9.334243   -0.416599    0.163429
     23          6           0       11.247446   -1.265079   -2.049920
     24          6           0       -7.033832    0.437884   -0.113662
     25          6           0        8.757624   -1.591910   -0.078526
     26          6           0       -6.660927   -0.985402    0.117513
     27          6           0        7.446671   -2.120831   -0.102482
     28          6           0       -6.145775    1.287251   -0.467543
     29          6           0        7.297498   -3.588298    0.094596
     30          6           0        6.463205   -1.267033   -0.255460
     31          6           0       -4.678788    1.219577   -0.584576
     32          6           0        5.005150   -1.573806   -0.129339
     33          6           0       -3.942006    2.359006   -0.805664
     34          6           0       -2.571295    2.495453   -0.992566
     35          6           0        4.061388   -0.721228   -0.489744
     36          6           0        2.645708   -0.917186   -0.551077
     37          6           0       -1.888853    3.747813   -1.172104
     38          6           0       -1.816175    1.212426   -0.950202
     39          6           0        1.752864    0.172455   -0.690303
     40          6           0        2.214134   -2.301813   -0.203652
     41          6           0       -0.409378    1.175015   -0.906206
     42          6           0        0.393490    0.051121   -0.794745
     43          1           0      -10.966775    1.461164   -0.147656
     44          1           0      -12.712584   -1.635352    2.461833
     45          1           0      -11.117519   -1.902280    1.681955
     46          1           0      -12.679349   -3.178772    0.361487
     47          1           0      -10.297885   -0.197666    2.948013
     48          1           0      -10.364270    1.550491    2.377062
     49          1           0      -11.818387    0.767923    3.464936
     50          1           0      -13.701829    0.828180    0.360784
     51          1           0      -13.861056    0.571531    2.016422
     52          1           0      -13.016521    2.043667    1.464762
     53          1           0       12.493693    2.466432    0.250802
     54          1           0       12.609468    1.923167    1.985529
     55          1           0      -12.653489   -1.879076   -1.657271
     56          1           0       13.520529   -0.390950    1.388104
     57          1           0       -9.170077   -1.162338    0.540086
     58          1           0       13.918676   -0.804454   -1.045354
     59          1           0       13.214295    1.093082   -1.439952
     60          1           0        8.851621    2.061120    1.526355
     61          1           0       10.209544    2.860074    0.385847
     62          1           0       10.313797    2.865126    2.064386
     63          1           0       11.577962   -0.523034    2.957565
     64          1           0        9.796840   -0.159506    2.764977
     65          1           0       11.267781    0.901127    3.532776
     66          1           0      -10.385132    0.156380   -2.474141
     67          1           0      -11.700949    1.172533   -2.383752
     68          1           0      -11.792302   -0.442627   -3.043474
     69          1           0      -14.775744   -1.758725   -0.245858
     70          1           0        8.574288    0.164647    0.233810
     71          1           0       -8.946423    1.668301   -0.395615
     72          1           0       11.697892   -2.269445   -1.833833
     73          1           0       10.181187   -1.315368   -2.113812
     74          1           0       11.641682   -0.812591   -2.942864
     75          1           0       15.028184    1.414733    1.306607
     76          1           0        9.574444   -2.465589   -0.018413
     77          1           0       -5.524962   -1.227426    0.251712
     78          1           0       -6.919066   -1.294565    1.237673
     79          1           0       -7.029931   -1.683015   -0.539330
     80          1           0       -6.844243    2.109622   -0.666158
     81          1           0        6.639378   -3.890003    0.944851
     82          1           0        6.700215   -4.103772   -0.849643
     83          1           0        8.276198   -4.118318    0.138114
     84          1           0        6.792894   -0.307223   -0.680912
     85          1           0       -4.261336    0.392899   -0.563515
     86          1           0        4.725982   -2.638081    0.078013
     87          1           0       -4.615824    3.253225   -0.812750
     88          1           0        4.321181    0.408951   -0.738433
     89          1           0       -1.045864    3.571322   -2.005398
     90          1           0       -1.551820    4.132996   -0.152742
     91          1           0       -2.545959    4.664380   -1.448059
     92          1           0       -2.489813    0.205425   -0.768770
     93          1           0        2.178590    1.191672   -0.472498
     94          1           0        2.269228   -2.497991    0.907055
     95          1           0        1.161928   -2.417922   -0.141264
     96          1           0        2.802413   -3.065940   -0.690371
     97          1           0        0.107902    2.172323   -1.214353
     98          1           0       -0.220292   -0.966678   -0.817214
 ---------------------------------------------------------------------

 SCF Done:  E(RCAM-B3LYP) =  -1706.90594596     A.U. after   15 cycles

 Excitation energies and oscillator strengths:

 Excited State   1:      Singlet-A      2.1514 eV  576.30 nm  f=2.5814  <S**2>=0.000
     155 ->158         0.12539
     156 ->157         0.69870
     156 <-157        -0.10648
 This state for optimization and/or second-order correction.
 Total Energy, E(TD-HF/TD-DFT) =  -1706.82688346
 Copying the excited state density for this state as the 1-particle RhoCI density.

 The electronic state is 1-A.
 Alpha  occ. eigenvalues --  -19.21374 -19.20316 -10.31967 -10.31404 -10.28325
 Alpha  occ. eigenvalues --  -10.28292 -10.28156 -10.27992 -10.27760 -10.27646
 Alpha  occ. eigenvalues --  -10.27412 -10.27266 -10.27232 -10.27023 -10.27011
 Alpha  occ. eigenvalues --  -10.26952 -10.26796 -10.26705 -10.26554 -10.26545
 Alpha  occ. eigenvalues --  -10.26533 -10.26320 -10.26237 -10.26189 -10.25936
 Alpha  occ. eigenvalues --  -10.25916 -10.25764 -10.25737 -10.25729 -10.25602
 Alpha  occ. eigenvalues --  -10.25548 -10.25405 -10.25316 -10.25161 -10.25144
 Alpha  occ. eigenvalues --  -10.25056 -10.24910 -10.24155 -10.23709 -10.23436
 Alpha  occ. eigenvalues --  -10.22570 -10.22244  -1.10569  -1.06335  -0.94267
 Alpha  occ. eigenvalues --   -0.93987  -0.92597  -0.92247  -0.91411  -0.90707
 Alpha  occ. eigenvalues --   -0.87770  -0.87377  -0.86477  -0.85912  -0.85481
 Alpha  occ. eigenvalues --   -0.83194  -0.82280  -0.81240  -0.80297  -0.78793
 Alpha  occ. eigenvalues --   -0.77415  -0.76978  -0.76467  -0.75751  -0.75111
 Alpha  occ. eigenvalues --   -0.74961  -0.74581  -0.73708  -0.73168  -0.71295
 Alpha  occ. eigenvalues --   -0.69022  -0.67135  -0.66473  -0.64766  -0.63724
 Alpha  occ. eigenvalues --   -0.63417  -0.62784  -0.61936  -0.60049  -0.59927
 Alpha  occ. eigenvalues --   -0.59252  -0.57995  -0.57703  -0.57461  -0.56448
 Alpha  occ. eigenvalues --   -0.55995  -0.55833  -0.55318  -0.54714  -0.54022
 Alpha  occ. eigenvalues --   -0.53481  -0.53127  -0.52620  -0.52117  -0.51978
 Alpha  occ. eigenvalues --   -0.50899  -0.50276  -0.49757  -0.49561  -0.49402
 Alpha  occ. eigenvalues --   -0.49260  -0.48905  -0.48656  -0.48244  -0.48043
 Alpha  occ. eigenvalues --   -0.47403  -0.47209  -0.46989  -0.46514  -0.46061
 Alpha  occ. eigenvalues --   -0.45825  -0.45755  -0.45171  -0.44818  -0.44500
 Alpha  occ. eigenvalues --   -0.44207  -0.44037  -0.43797  -0.43674  -0.43065
 Alpha  occ. eigenvalues --   -0.42875  -0.42838  -0.42472  -0.42184  -0.41916
 Alpha  occ. eigenvalues --   -0.41212  -0.41005  -0.40926  -0.40691  -0.40207
 Alpha  occ. eigenvalues --   -0.40132  -0.39717  -0.39528  -0.39282  -0.39202
 Alpha  occ. eigenvalues --   -0.38754  -0.38146  -0.38092  -0.37738  -0.37498
 Alpha  occ. eigenvalues --   -0.37072  -0.36914  -0.36661  -0.36118  -0.35703
 Alpha  occ. eigenvalues --   -0.35368  -0.34171  -0.33686  -0.31898  -0.31592
 Alpha  occ. eigenvalues --   -0.31438  -0.29623  -0.29394  -0.27432  -0.24405
 Alpha  occ. eigenvalues --   -0.19721
 Alpha virt. eigenvalues --   -0.06248  -0.00511   0.03213   0.05837   0.07927
 Alpha virt. eigenvalues --    0.08824   0.11125   0.11711   0.11808   0.12697
 Alpha virt. eigenvalues --    0.12925   0.13129   0.13555   0.13630   0.14104

 Mulliken charges:
               1
     1  O   -0.567565
     2  O   -0.544914
     3  C    0.031058
     4  C   -0.161461
     5  C   -0.169591
     6  C    0.135018
     7  C    0.120913
     8  C   -0.001277
     9  C   -0.287317
    10  C   -0.306473
    11  C   -0.191088
    12  C   -0.117923
    13  C    0.179809
    14  C    0.111267
    15  C   -0.073219
    16  C   -0.214535
    17  C    0.026719
    18  C   -0.301505
    19  C   -0.301311
    20  C   -0.336536
    21  C   -0.084490
    22  C   -0.081262
    23  C   -0.345714
    24  C    0.102274
    25  C   -0.152556
    26  C   -0.389877
    27  C    0.170803
    28  C   -0.114343
    29  C   -0.377583
    30  C   -0.153354
    31  C   -0.014587
    32  C   -0.109938
    33  C   -0.119345
    34  C    0.114952
    35  C   -0.089440
    36  C    0.105613
    37  C   -0.384168
    38  C   -0.115476
    39  C   -0.136517
    40  C   -0.380031
    41  C   -0.097506
    42  C   -0.071995
    43  H    0.088005
    44  H    0.125575
    45  H    0.082084
    46  H    0.051496
    47  H    0.080113
    48  H    0.111265
    49  H    0.087153
    50  H    0.090209
    51  H    0.095798
    52  H    0.096553
    53  H    0.085014
    54  H    0.091611
    55  H    0.063801
    56  H    0.025009
    57  H    0.093218
    58  H    0.107677
    59  H    0.108020
    60  H    0.098461
    61  H    0.088270
    62  H    0.107101
    63  H    0.107462
    64  H    0.116006
    65  H    0.051468
    66  H    0.120559
    67  H    0.120415
    68  H    0.105567
    69  H    0.301700
    70  H    0.060430
    71  H    0.079592
    72  H    0.113487
    73  H    0.119266
    74  H    0.110529
    75  H    0.306817
    76  H    0.044511
    77  H    0.092791
    78  H    0.094276
    79  H    0.133410
    80  H    0.063340
    81  H    0.125239
    82  H    0.095164
    83  H    0.118539
    84  H    0.093946
    85  H    0.046079
    86  H    0.085583
    87  H    0.080486
    88  H    0.068779
    89  H    0.119903
    90  H    0.133676
    91  H    0.111221
    92  H    0.078331
    93  H    0.097159
    94  H    0.119832
    95  H    0.108067
    96  H    0.121946
    97  H    0.081706
    98  H    0.090757
 Sum of Mulliken charges =  -0.00000

 Dipole moment (field-independent basis, Debye):
    X=             -0.2971    Y=             -0.1987    Z=             -0.1270  Tot=              0.3793
 Quadrupole moment (field-independent basis, Debye-Ang):
   XX=           -294.5531   YY=           -243.1817   ZZ=           -264.0170
   XY=              5.6203   XZ=             42.5060   YZ=              0.7733

 Normal termination of Gaussian 16 at Sun Jul 14 17:40:16 2019.
