 Gaussian 16, Revision A.03,
 Gaussian 16:  ES64L-G16RevA.03 25-Dec-2016

 -------------------------------------
 # td=(NStates=1) CAM-B3LYP/6-31G(d,p)
 -------------------------------------

 --
 TD
 --
 Symbolic Z-matrix:
 Charge =  0 Multiplicity = 1

                         Standard orientation:
 ---------------------------------------------------------------------
 Center     Atomic      Atomic             Coordinates (Angstroms)
 Number     Number       Type             X           Y           Z
 ---------------------------------------------------------------------
      1          8           0      -14.143872   -2.021812    0.525291
      2          8           0       14.857401    0.794814    0.194313
      3          6           0      -11.767578    0.017854    1.366444
      4          6           0      -10.901645    0.332089    0.067921
      5          6           0      -12.007993   -1.540333    1.476912
      6          6           0      -12.750344   -2.120953    0.224730
      7          6           0      -11.656983   -0.300647   -1.097502
      8          6           0       11.191169    0.850962    1.263419
      9          6           0      -10.931243    0.487253    2.597400
     10          6           0      -13.184613    0.691513    1.301245
     11          6           0       12.710256    1.488622    1.068891
     12          6           0      -12.458460   -1.314795   -1.062534
     13          6           0       13.526262    0.339489    0.457697
     14          6           0       10.745184   -0.022504    0.041320
     15          6           0       -9.542744   -0.139968    0.113952
     16          6           0       12.981444   -0.273987   -0.927312
     17          6           0       11.507058   -0.456170   -0.919472
     18          6           0       10.272944    2.130506    1.369683
     19          6           0       11.102501    0.092155    2.527732
     20          6           0      -11.334526    0.240603   -2.483548
     21          6           0       -8.534737    0.725169   -0.231542
     22          6           0        9.329469   -0.397252    0.118296
     23          6           0       11.029223   -1.165008   -2.049539
     24          6           0       -7.161662    0.463684   -0.070350
     25          6           0        8.885894   -1.621996   -0.090840
     26          6           0       -6.822061   -0.950221    0.372945
     27          6           0        7.513874   -2.078898   -0.146030
     28          6           0       -6.271997    1.461585   -0.198545
     29          6           0        7.216256   -3.534522   -0.129176
     30          6           0        6.420734   -1.154863   -0.280822
     31          6           0       -4.781312    1.449382   -0.370538
     32          6           0        5.026982   -1.416082   -0.326555
     33          6           0       -4.063102    2.642462   -0.596598
     34          6           0       -2.658427    2.659519   -0.828546
     35          6           0        4.018900   -0.506467   -0.465128
     36          6           0        2.610298   -0.842340   -0.351125
     37          6           0       -1.958987    4.037645   -1.088492
     38          6           0       -1.824465    1.511513   -0.571654
     39          6           0        1.799692    0.220498   -0.575053
     40          6           0        2.132873   -2.206923   -0.149085
     41          6           0       -0.398175    1.565751   -0.686771
     42          6           0        0.384570    0.355707   -0.600373
     43          1           0      -10.762273    1.399908   -0.052863
     44          1           0      -12.635682   -1.651227    2.197066
     45          1           0      -11.153067   -2.071569    1.748101
     46          1           0      -12.628094   -3.012869    0.033201
     47          1           0      -10.036041   -0.061912    2.826193
     48          1           0      -10.783827    1.528214    2.322609
     49          1           0      -11.661996    0.510126    3.415029
     50          1           0      -13.764891   -0.054926    0.569929
     51          1           0      -13.614778    0.734536    2.365438
     52          1           0      -13.223120    1.657980    0.925303
     53          1           0       12.376508    2.248101    0.272146
     54          1           0       12.978780    1.735228    2.010134
     55          1           0      -12.616317   -1.909898   -2.078194
     56          1           0       13.507088   -0.534165    1.313936
     57          1           0       -9.314654   -1.272711    0.524653
     58          1           0       13.588917   -1.238278   -0.952500
     59          1           0       13.380222    0.580311   -1.756638
     60          1           0        9.374823    1.941846    1.799619
     61          1           0       10.239529    2.631494    0.406364
     62          1           0       10.827776    2.843183    2.050190
     63          1           0       11.792470   -0.613025    2.668150
     64          1           0        9.958390   -0.185824    2.625812
     65          1           0       11.366842    0.706751    3.375744
     66          1           0      -10.209697    0.480639   -2.597090
     67          1           0      -11.756148    1.231945   -2.732935
     68          1           0      -11.628468   -0.491350   -3.408184
     69          1           0      -14.741838   -2.437154   -0.205723
     70          1           0        8.661952    0.507169    0.238972
     71          1           0       -8.942336    1.770107   -0.394403
     72          1           0       11.619692   -2.138798   -2.186422
     73          1           0        9.894475   -1.164154   -2.132643
     74          1           0       11.345456   -0.715301   -2.993778
     75          1           0       15.256776    0.995826    1.125906
     76          1           0        9.794915   -2.437159    0.050158
     77          1           0       -5.603648   -1.160681    0.737845
     78          1           0       -7.785632   -1.405492    1.102358
     79          1           0       -6.905896   -1.754618   -0.521182
     80          1           0       -6.638934    2.571951   -0.614393
     81          1           0        6.426776   -3.576739    0.824620
     82          1           0        6.763703   -4.004860   -1.251700
     83          1           0        8.185571   -4.003373    0.168693
     84          1           0        6.721048    0.037395   -0.572495
     85          1           0       -4.443347    0.440733   -0.212000
     86          1           0        4.609990   -2.329160   -0.208916
     87          1           0       -4.514145    3.588226   -0.651506
     88          1           0        4.250658    0.545237   -0.484313
     89          1           0       -1.233414    4.143034   -2.062373
     90          1           0       -1.368179    4.430500   -0.238326
     91          1           0       -2.697327    4.797010   -1.097704
     92          1           0       -2.295806    0.489843   -0.609867
     93          1           0        2.087984    1.246093   -0.473917
     94          1           0        2.594406   -2.580963    0.777729
     95          1           0        1.129122   -2.368029   -0.043550
     96          1           0        2.458317   -3.061505   -0.920464
     97          1           0       -0.040651    2.486088   -0.674378
     98          1           0       -0.267396   -0.547957   -0.532996
 ---------------------------------------------------------------------

 SCF Done:  E(RCAM-B3LYP) =  -1706.88147174     A.U. after   15 cycles

 Excitation energies and oscillator strengths:

 Excited State   1:      Singlet-A      2.0883 eV  593.72 nm  f=2.8812  <S**2>=0.000
     155 ->158        -0.15594
     156 ->157         0.69070
 This state for optimization and/or second-order correction.
 Total Energy, E(TD-HF/TD-DFT) =  -1706.80472982
 Copying the excited state density for this state as the 1-particle RhoCI density.

 The electronic state is 1-A.
 Alpha  occ. eigenvalues --  -19.21423 -19.21047 -10.31701 -10.30182 -10.29088
 Alpha  occ. eigenvalues --  -10.28633 -10.28336 -10.27903 -10.27772 -10.27763
 Alpha  occ. eigenvalues --  -10.27668 -10.27635 -10.27527 -10.27351 -10.27325
 Alpha  occ. eigenvalues --  -10.27209 -10.27193 -10.27191 -10.26988 -10.26919
 Alpha  occ. eigenvalues --  -10.26893 -10.26858 -10.26375 -10.26352 -10.26201
 Alpha  occ. eigenvalues --  -10.26199 -10.26140 -10.26053 -10.26014 -10.25868
 Alpha  occ. eigenvalues --  -10.25587 -10.25225 -10.25210 -10.25006 -10.24979
 Alpha  occ. eigenvalues --  -10.24841 -10.24274 -10.24157 -10.23704 -10.23532
 Alpha  occ. eigenvalues --  -10.23390 -10.23142  -1.08171  -1.07807  -0.93745
 Alpha  occ. eigenvalues --   -0.93578  -0.92291  -0.91140  -0.90109  -0.89645
 Alpha  occ. eigenvalues --   -0.87940  -0.86762  -0.86083  -0.85255  -0.84394
 Alpha  occ. eigenvalues --   -0.82783  -0.81622  -0.79909  -0.79740  -0.78824
 Alpha  occ. eigenvalues --   -0.77002  -0.75990  -0.75709  -0.75381  -0.74900
 Alpha  occ. eigenvalues --   -0.74869  -0.74754  -0.74174  -0.72239  -0.70352
 Alpha  occ. eigenvalues --   -0.69312  -0.67905  -0.66275  -0.64152  -0.63696
 Alpha  occ. eigenvalues --   -0.62677  -0.62330  -0.61531  -0.61454  -0.59688
 Alpha  occ. eigenvalues --   -0.59091  -0.58635  -0.58047  -0.56969  -0.56367
 Alpha  occ. eigenvalues --   -0.55411  -0.54489  -0.54446  -0.54124  -0.53930
 Alpha  occ. eigenvalues --   -0.53025  -0.52871  -0.52385  -0.52244  -0.50956
 Alpha  occ. eigenvalues --   -0.50739  -0.49909  -0.49609  -0.49259  -0.48763
 Alpha  occ. eigenvalues --   -0.48531  -0.47985  -0.47491  -0.47209  -0.47059
 Alpha  occ. eigenvalues --   -0.46948  -0.46809  -0.46508  -0.46131  -0.46016
 Alpha  occ. eigenvalues --   -0.45783  -0.45387  -0.45153  -0.44585  -0.44526
 Alpha  occ. eigenvalues --   -0.43957  -0.43897  -0.43756  -0.43626  -0.43234
 Alpha  occ. eigenvalues --   -0.42845  -0.42803  -0.42581  -0.42246  -0.42132
 Alpha  occ. eigenvalues --   -0.42021  -0.41712  -0.41166  -0.41098  -0.40611
 Alpha  occ. eigenvalues --   -0.40226  -0.39972  -0.39758  -0.39344  -0.39203
 Alpha  occ. eigenvalues --   -0.38960  -0.38646  -0.38316  -0.38089  -0.37834
 Alpha  occ. eigenvalues --   -0.37169  -0.37123  -0.36574  -0.36141  -0.35047
 Alpha  occ. eigenvalues --   -0.34631  -0.33892  -0.33389  -0.31763  -0.31210
 Alpha  occ. eigenvalues --   -0.30994  -0.29893  -0.28897  -0.27084  -0.23611
 Alpha  occ. eigenvalues --   -0.19587
 Alpha virt. eigenvalues --   -0.06226  -0.01567   0.02162   0.05562   0.07200
 Alpha virt. eigenvalues --    0.08245   0.09827   0.10786   0.11117   0.11565
 Alpha virt. eigenvalues --    0.12307   0.12407   0.12719   0.13049   0.13203

 Mulliken charges:
               1
     1  O   -0.559373
     2  O   -0.557912
     3  C   -0.008243
     4  C   -0.145939
     5  C   -0.167313
     6  C    0.156405
     7  C    0.169960
     8  C   -0.054239
     9  C   -0.303147
    10  C   -0.312722
    11  C   -0.167370
    12  C   -0.170494
    13  C    0.159023
    14  C    0.058359
    15  C   -0.041927
    16  C   -0.231596
    17  C    0.113178
    18  C   -0.312631
    19  C   -0.283622
    20  C   -0.364696
    21  C   -0.115885
    22  C   -0.112835
    23  C   -0.379037
    24  C    0.161291
    25  C   -0.116847
    26  C   -0.355778
    27  C    0.081663
    28  C   -0.153710
    29  C   -0.338981
    30  C   -0.115567
    31  C   -0.064230
    32  C   -0.070369
    33  C   -0.105496
    34  C    0.070068
    35  C   -0.098695
    36  C    0.133268
    37  C   -0.380856
    38  C   -0.113902
    39  C   -0.119977
    40  C   -0.383632
    41  C   -0.060174
    42  C   -0.115958
    43  H    0.089307
    44  H    0.124044
    45  H    0.088147
    46  H    0.074141
    47  H    0.106020
    48  H    0.099107
    49  H    0.094184
    50  H    0.140730
    51  H    0.084104
    52  H    0.095329
    53  H    0.100519
    54  H    0.091529
    55  H    0.068897
    56  H    0.042664
    57  H    0.075866
    58  H    0.117719
    59  H    0.100051
    60  H    0.109980
    61  H    0.106784
    62  H    0.092323
    63  H    0.106502
    64  H    0.096510
    65  H    0.090002
    66  H    0.102847
    67  H    0.113610
    68  H    0.084948
    69  H    0.304834
    70  H    0.093197
    71  H    0.088630
    72  H    0.098456
    73  H    0.123969
    74  H    0.107316
    75  H    0.304563
    76  H    0.085072
    77  H    0.087441
    78  H    0.091671
    79  H    0.110020
    80  H    0.060143
    81  H    0.106481
    82  H    0.100961
    83  H    0.110985
    84  H    0.063461
    85  H    0.088230
    86  H    0.068115
    87  H    0.092113
    88  H    0.080151
    89  H    0.108293
    90  H    0.126599
    91  H    0.110110
    92  H    0.083769
    93  H    0.082604
    94  H    0.126542
    95  H    0.124870
    96  H    0.107406
    97  H    0.078816
    98  H    0.069258
 Sum of Mulliken charges =  -0.00000

 Dipole moment (field-independent basis, Debye):
    X=             -0.0014    Y=             -1.0947    Z=              0.6380  Tot=              1.2670
 Quadrupole moment (field-independent basis, Debye-Ang):
   XX=           -281.2192   YY=           -240.9810   ZZ=           -264.2414
   XY=             10.3882   XZ=             39.6084   YZ=              2.2425

 Normal termination of Gaussian 16 at Tue Jul 16 06:52:02 2019.
