 Gaussian 16, Revision A.03,
 Gaussian 16:  ES64L-G16RevA.03 25-Dec-2016

 -------------------------------------
 # td=(NStates=1) CAM-B3LYP/6-31G(d,p)
 -------------------------------------

 --
 TD
 --
 Symbolic Z-matrix:
 Charge =  0 Multiplicity = 1

                         Standard orientation:
 ---------------------------------------------------------------------
 Center     Atomic      Atomic             Coordinates (Angstroms)
 Number     Number       Type             X           Y           Z
 ---------------------------------------------------------------------
      1          8           0      -14.103754   -2.073976    0.687746
      2          8           0       14.878631    0.716226    0.338039
      3          6           0      -11.794739    0.092009    1.294812
      4          6           0      -10.951207    0.299060   -0.076991
      5          6           0      -11.950667   -1.390632    1.670229
      6          6           0      -12.643620   -2.096178    0.568830
      7          6           0      -11.690746   -0.596913   -1.239000
      8          6           0       11.151040    0.986147    1.074302
      9          6           0      -11.132810    0.834449    2.388112
     10          6           0      -13.162948    0.830662    1.045854
     11          6           0       12.564686    1.414001    0.782346
     12          6           0      -12.315159   -1.689054   -0.877034
     13          6           0       13.485456    0.323622    0.463539
     14          6           0       10.658670   -0.092200    0.068961
     15          6           0       -9.534978   -0.115234    0.061925
     16          6           0       13.031876   -0.259617   -0.842408
     17          6           0       11.531874   -0.568919   -0.804801
     18          6           0       10.329447    2.331459    0.928120
     19          6           0       10.984212    0.375220    2.465635
     20          6           0      -11.371964   -0.280806   -2.633041
     21          6           0       -8.622938    0.774030   -0.170109
     22          6           0        9.235343   -0.363980    0.116592
     23          6           0       11.181058   -1.488050   -1.917216
     24          6           0       -7.084007    0.467833   -0.119175
     25          6           0        8.738888   -1.637439   -0.047826
     26          6           0       -6.639883   -0.902278    0.283270
     27          6           0        7.439120   -2.055344   -0.060032
     28          6           0       -6.413307    1.617345   -0.300748
     29          6           0        7.124969   -3.599054   -0.011416
     30          6           0        6.384708   -1.172097   -0.225399
     31          6           0       -4.873397    1.534089   -0.347968
     32          6           0        5.031919   -1.386701   -0.175889
     33          6           0       -4.017803    2.574422   -0.733757
     34          6           0       -2.568097    2.641528   -0.821362
     35          6           0        3.987796   -0.474901   -0.435727
     36          6           0        2.647096   -0.722445   -0.299035
     37          6           0       -1.927030    3.965965   -0.955695
     38          6           0       -1.767543    1.514297   -0.703171
     39          6           0        1.727529    0.356243   -0.385302
     40          6           0        2.273990   -1.984056    0.055853
     41          6           0       -0.403129    1.498467   -0.675216
     42          6           0        0.380634    0.292889   -0.482322
     43          1           0      -11.081277    1.418345   -0.088021
     44          1           0      -12.586810   -1.437956    2.571273
     45          1           0      -11.078040   -1.844397    1.896358
     46          1           0      -12.361148   -3.157289    0.506883
     47          1           0      -10.050331    0.566326    2.534338
     48          1           0      -10.866585    1.839396    2.108459
     49          1           0      -11.585209    0.677328    3.325006
     50          1           0      -13.625371    0.521035    0.081437
     51          1           0      -14.045177    0.646161    1.828946
     52          1           0      -12.951301    1.878766    1.145742
     53          1           0       12.505618    2.020601   -0.121927
     54          1           0       13.030004    1.882653    1.692966
     55          1           0      -12.834384   -2.249190   -1.719816
     56          1           0       13.527619   -0.530801    1.210556
     57          1           0       -9.490681   -1.108377    0.215811
     58          1           0       13.578346   -1.147142   -1.073390
     59          1           0       13.146264    0.579211   -1.602692
     60          1           0        9.318620    1.948254    1.137181
     61          1           0       10.384667    2.830987   -0.082666
     62          1           0       10.626701    2.983669    1.726838
     63          1           0       11.827957   -0.347211    2.592337
     64          1           0        9.977465   -0.107529    2.673917
     65          1           0       11.331606    1.106244    3.295443
     66          1           0      -10.289201    0.057860   -2.727219
     67          1           0      -11.723546    0.751992   -2.661476
     68          1           0      -11.997935   -1.116160   -3.243927
     69          1           0      -14.344517   -2.161483   -0.339333
     70          1           0        8.574605    0.330171    0.317074
     71          1           0       -8.841613    1.747840   -0.458308
     72          1           0       11.690777   -2.624214   -1.841577
     73          1           0       10.047696   -1.636209   -2.010594
     74          1           0       11.614529   -1.141076   -2.926161
     75          1           0       15.386205    0.801442    1.272151
     76          1           0        9.519555   -2.382268   -0.414734
     77          1           0       -5.549910   -0.877640   -0.081781
     78          1           0       -6.720685   -1.256965    1.382589
     79          1           0       -7.202341   -1.758705   -0.416930
     80          1           0       -6.826791    2.561665   -0.663266
     81          1           0        6.869915   -3.741530    1.162464
     82          1           0        6.284088   -4.179525   -0.504890
     83          1           0        8.272567   -4.028689   -0.036995
     84          1           0        6.857019   -0.159847   -0.498651
     85          1           0       -4.259448    0.629545   -0.228791
     86          1           0        4.773813   -2.514443    0.031862
     87          1           0       -4.408397    3.465398   -1.027919
     88          1           0        4.339533    0.586444   -0.903531
     89          1           0       -1.130797    3.916064   -1.847911
     90          1           0       -1.218536    4.259541   -0.330610
     91          1           0       -2.859399    4.794015   -1.184449
     92          1           0       -2.374506    0.627700   -0.653092
     93          1           0        2.039583    1.430634   -0.383648
     94          1           0        2.542142   -2.181930    1.126423
     95          1           0        1.156802   -2.326798   -0.077090
     96          1           0        2.753109   -2.866368   -0.350087
     97          1           0        0.338352    2.405411   -0.848446
     98          1           0       -0.356268   -0.605984   -0.258855
 ---------------------------------------------------------------------

 SCF Done:  E(RCAM-B3LYP) =  -1706.94081739     A.U. after   16 cycles

 Excitation energies and oscillator strengths:

 Excited State   1:      Singlet-A      1.8745 eV  661.44 nm  f=2.9214  <S**2>=0.000
     155 ->158         0.12638
     156 ->157         0.70429
     156 <-157        -0.13047
 This state for optimization and/or second-order correction.
 Total Energy, E(TD-HF/TD-DFT) =  -1706.87193192
 Copying the excited state density for this state as the 1-particle RhoCI density.

 The electronic state is 1-A.
 Alpha  occ. eigenvalues --  -19.21082 -19.20955 -10.30327 -10.29675 -10.28957
 Alpha  occ. eigenvalues --  -10.28441 -10.28414 -10.27911 -10.27763 -10.27717
 Alpha  occ. eigenvalues --  -10.27479 -10.27344 -10.27268 -10.27208 -10.27185
 Alpha  occ. eigenvalues --  -10.27083 -10.27064 -10.27061 -10.26960 -10.26914
 Alpha  occ. eigenvalues --  -10.26828 -10.26757 -10.26682 -10.26538 -10.26288
 Alpha  occ. eigenvalues --  -10.26001 -10.25961 -10.25922 -10.25681 -10.25659
 Alpha  occ. eigenvalues --  -10.25595 -10.25588 -10.25484 -10.25470 -10.25257
 Alpha  occ. eigenvalues --  -10.25109 -10.24766 -10.24745 -10.24304 -10.24201
 Alpha  occ. eigenvalues --  -10.24163 -10.23156  -1.06706  -1.06219  -0.94373
 Alpha  occ. eigenvalues --   -0.93421  -0.93302  -0.91788  -0.91185  -0.90417
 Alpha  occ. eigenvalues --   -0.87772  -0.87415  -0.86864  -0.86017  -0.85509
 Alpha  occ. eigenvalues --   -0.83107  -0.82294  -0.81447  -0.79655  -0.79181
 Alpha  occ. eigenvalues --   -0.76907  -0.76769  -0.75958  -0.75865  -0.75318
 Alpha  occ. eigenvalues --   -0.75280  -0.74879  -0.74198  -0.72573  -0.70524
 Alpha  occ. eigenvalues --   -0.69057  -0.67780  -0.66549  -0.65246  -0.64623
 Alpha  occ. eigenvalues --   -0.62970  -0.61995  -0.61666  -0.60919  -0.60533
 Alpha  occ. eigenvalues --   -0.58685  -0.58468  -0.57970  -0.57510  -0.56526
 Alpha  occ. eigenvalues --   -0.56083  -0.55293  -0.54976  -0.54549  -0.53999
 Alpha  occ. eigenvalues --   -0.53443  -0.53088  -0.52642  -0.52156  -0.51640
 Alpha  occ. eigenvalues --   -0.50676  -0.50089  -0.49958  -0.49137  -0.49082
 Alpha  occ. eigenvalues --   -0.48979  -0.48712  -0.48538  -0.47963  -0.47901
 Alpha  occ. eigenvalues --   -0.47780  -0.47097  -0.46954  -0.46583  -0.46253
 Alpha  occ. eigenvalues --   -0.46017  -0.45909  -0.45655  -0.44906  -0.44865
 Alpha  occ. eigenvalues --   -0.44761  -0.44421  -0.44297  -0.44047  -0.43036
 Alpha  occ. eigenvalues --   -0.42969  -0.42808  -0.42380  -0.42068  -0.41813
 Alpha  occ. eigenvalues --   -0.41736  -0.41373  -0.41253  -0.40947  -0.40783
 Alpha  occ. eigenvalues --   -0.40558  -0.40293  -0.39584  -0.39551  -0.39460
 Alpha  occ. eigenvalues --   -0.38820  -0.38572  -0.38427  -0.38255  -0.37462
 Alpha  occ. eigenvalues --   -0.36964  -0.36722  -0.36619  -0.36232  -0.35690
 Alpha  occ. eigenvalues --   -0.35172  -0.34742  -0.33764  -0.31949  -0.31461
 Alpha  occ. eigenvalues --   -0.31146  -0.29955  -0.29499  -0.27447  -0.24390
 Alpha  occ. eigenvalues --   -0.18536
 Alpha virt. eigenvalues --   -0.07135  -0.00867   0.02761   0.05997   0.07039
 Alpha virt. eigenvalues --    0.08844   0.10322   0.10457   0.11133   0.11289
 Alpha virt. eigenvalues --    0.11980   0.12188   0.12829   0.13177   0.13291

 Mulliken charges:
               1
     1  O   -0.562839
     2  O   -0.591396
     3  C    0.009327
     4  C   -0.169887
     5  C   -0.172059
     6  C    0.172331
     7  C    0.134135
     8  C   -0.029837
     9  C   -0.311138
    10  C   -0.287809
    11  C   -0.165472
    12  C   -0.206839
    13  C    0.175544
    14  C    0.085251
    15  C   -0.022831
    16  C   -0.215246
    17  C    0.057349
    18  C   -0.298156
    19  C   -0.305946
    20  C   -0.353626
    21  C   -0.091622
    22  C   -0.097889
    23  C   -0.369917
    24  C    0.118314
    25  C   -0.139922
    26  C   -0.359743
    27  C    0.108285
    28  C   -0.121881
    29  C   -0.369944
    30  C   -0.102325
    31  C   -0.093173
    32  C   -0.098500
    33  C   -0.123102
    34  C    0.116386
    35  C   -0.132870
    36  C    0.180652
    37  C   -0.363957
    38  C   -0.112746
    39  C   -0.141494
    40  C   -0.417847
    41  C   -0.100730
    42  C   -0.059511
    43  H    0.081335
    44  H    0.117046
    45  H    0.103079
    46  H    0.079936
    47  H    0.087756
    48  H    0.094202
    49  H    0.108475
    50  H    0.102073
    51  H    0.089370
    52  H    0.093431
    53  H    0.102635
    54  H    0.075829
    55  H    0.064724
    56  H    0.068501
    57  H    0.083959
    58  H    0.112399
    59  H    0.114685
    60  H    0.094434
    61  H    0.102431
    62  H    0.108594
    63  H    0.101159
    64  H    0.113901
    65  H    0.081961
    66  H    0.127341
    67  H    0.118902
    68  H    0.100767
    69  H    0.305504
    70  H    0.083733
    71  H    0.077151
    72  H    0.080442
    73  H    0.116034
    74  H    0.104483
    75  H    0.305470
    76  H    0.092513
    77  H    0.111826
    78  H    0.133650
    79  H    0.100547
    80  H    0.104248
    81  H    0.103208
    82  H    0.131059
    83  H    0.094974
    84  H    0.072292
    85  H    0.077828
    86  H    0.072740
    87  H    0.060916
    88  H    0.079234
    89  H    0.098743
    90  H    0.143856
    91  H    0.081127
    92  H    0.075736
    93  H    0.087131
    94  H    0.130532
    95  H    0.099110
    96  H    0.122183
    97  H    0.075731
    98  H    0.081754
 Sum of Mulliken charges =  -0.00000

 Dipole moment (field-independent basis, Debye):
    X=              0.4160    Y=             -0.3775    Z=             -0.0291  Tot=              0.5625
 Quadrupole moment (field-independent basis, Debye-Ang):
   XX=           -301.7286   YY=           -248.9865   ZZ=           -262.9298
   XY=             -7.3948   XZ=             40.6006   YZ=              0.6156

 Normal termination of Gaussian 16 at Mon Jul 15 10:56:00 2019.
