 Gaussian 16, Revision A.03,
 Gaussian 16:  ES64L-G16RevA.03 25-Dec-2016

 -------------------------------------
 # td=(NStates=1) CAM-B3LYP/6-31G(d,p)
 -------------------------------------

 --
 TD
 --
 Symbolic Z-matrix:
 Charge =  0 Multiplicity = 1

                         Standard orientation:
 ---------------------------------------------------------------------
 Center     Atomic      Atomic             Coordinates (Angstroms)
 Number     Number       Type             X           Y           Z
 ---------------------------------------------------------------------
      1          8           0      -14.056644   -2.145147    0.566513
      2          8           0       14.790677    0.973764    0.004088
      3          6           0      -11.707230   -0.004299    1.370149
      4          6           0      -10.885266    0.362710   -0.004577
      5          6           0      -11.896547   -1.451377    1.495209
      6          6           0      -12.636135   -2.176996    0.439003
      7          6           0      -11.586834   -0.498967   -1.156944
      8          6           0       11.043452    0.914873    1.074068
      9          6           0      -10.854868    0.606767    2.444693
     10          6           0      -13.066251    0.686580    1.261230
     11          6           0       12.451974    1.548095    0.683671
     12          6           0      -12.301237   -1.505974   -1.035829
     13          6           0       13.482690    0.461495    0.375779
     14          6           0       10.745652   -0.127992    0.024357
     15          6           0       -9.487685   -0.044496   -0.030979
     16          6           0       12.968946   -0.180820   -0.933500
     17          6           0       11.551022   -0.594919   -0.901490
     18          6           0       10.056569    2.088511    1.169230
     19          6           0       11.001673    0.289318    2.569839
     20          6           0      -11.353320    0.061554   -2.532181
     21          6           0       -8.512422    0.841548   -0.341077
     22          6           0        9.277670   -0.498451    0.094565
     23          6           0       11.173051   -1.566128   -2.121062
     24          6           0       -7.116306    0.607320   -0.348103
     25          6           0        8.772939   -1.764472   -0.006952
     26          6           0       -6.623632   -0.872542    0.039318
     27          6           0        7.385154   -2.115692   -0.020043
     28          6           0       -6.308673    1.602768   -0.510921
     29          6           0        7.005670   -3.501759    0.162714
     30          6           0        6.359692   -1.185125   -0.111122
     31          6           0       -4.803749    1.525778   -0.474591
     32          6           0        4.960489   -1.595344   -0.136679
     33          6           0       -3.983823    2.738464   -0.650284
     34          6           0       -2.608485    2.759127   -0.740743
     35          6           0        3.960401   -0.588897   -0.278604
     36          6           0        2.545502   -0.753796   -0.102809
     37          6           0       -1.848305    4.061265   -0.846240
     38          6           0       -1.708813    1.581985   -0.429349
     39          6           0        1.734800    0.334253   -0.293100
     40          6           0        2.103414   -2.223596   -0.075597
     41          6           0       -0.345363    1.472373   -0.527243
     42          6           0        0.304762    0.349150   -0.242357
     43          1           0      -11.114488    1.320631   -0.449777
     44          1           0      -12.332872   -1.403486    2.452190
     45          1           0      -10.973886   -1.821683    1.626499
     46          1           0      -12.448632   -3.312940    0.187635
     47          1           0       -9.726696    0.383861    2.584268
     48          1           0      -10.847293    1.674129    2.360139
     49          1           0      -11.291545    0.317471    3.544423
     50          1           0      -13.722059    0.272672    0.371983
     51          1           0      -13.728938    0.618830    2.104243
     52          1           0      -12.828455    1.782277    1.318423
     53          1           0       12.313126    2.241766   -0.122986
     54          1           0       12.677360    2.337878    1.611499
     55          1           0      -12.779012   -2.094995   -1.796050
     56          1           0       13.493269   -0.371337    1.140351
     57          1           0       -9.469204   -1.084660    0.379969
     58          1           0       13.467522   -1.057509   -1.051449
     59          1           0       13.028762    0.496201   -1.778738
     60          1           0        9.180006    1.819304    1.580138
     61          1           0        9.713714    2.400068    0.229724
     62          1           0       10.557308    2.930181    1.643578
     63          1           0       11.636270   -0.524453    2.617491
     64          1           0       10.048526   -0.092902    2.916072
     65          1           0       11.415983    1.074083    3.304257
     66          1           0      -10.261578    0.270776   -2.915216
     67          1           0      -12.031133    0.904937   -2.755339
     68          1           0      -11.578112   -0.715455   -3.231537
     69          1           0      -14.507989   -2.481109   -0.266528
     70          1           0        8.592921    0.213506    0.633828
     71          1           0       -8.954178    1.836429   -0.399904
     72          1           0       11.503828   -2.428026   -1.843272
     73          1           0       10.298358   -1.665388   -2.296718
     74          1           0       11.761536   -1.188971   -3.094805
     75          1           0       15.162877    1.479495    0.726791
     76          1           0        9.306675   -2.717453   -0.254307
     77          1           0       -5.531600   -0.794884    0.155453
     78          1           0       -7.111974   -1.097952    1.046551
     79          1           0       -6.982472   -1.649111   -0.783506
     80          1           0       -6.725588    2.567391   -0.703147
     81          1           0        6.261672   -3.822250    1.075952
     82          1           0        6.714177   -3.893937   -0.877699
     83          1           0        7.974317   -4.097080    0.603053
     84          1           0        6.775022   -0.238114   -0.446989
     85          1           0       -4.353580    0.470156   -0.492290
     86          1           0        4.716836   -2.489430    0.264840
     87          1           0       -4.270649    3.673757   -0.725749
     88          1           0        4.231445    0.445751   -0.706678
     89          1           0       -0.850783    3.848160   -1.397537
     90          1           0       -1.696892    4.541123    0.330021
     91          1           0       -2.533136    4.694903   -1.433091
     92          1           0       -2.200303    0.734148   -0.434494
     93          1           0        2.444709    1.338224   -0.439101
     94          1           0        2.144932   -2.528983    0.987295
     95          1           0        0.991067   -2.354908   -0.329729
     96          1           0        2.970225   -2.885976   -0.678209
     97          1           0        0.280540    2.429898   -0.565465
     98          1           0       -0.185677   -0.787689   -0.199874
 ---------------------------------------------------------------------

 SCF Done:  E(RCAM-B3LYP) =  -1706.88833727     A.U. after   15 cycles

 Excitation energies and oscillator strengths:

 Excited State   1:      Singlet-A      1.9962 eV  621.09 nm  f=2.6860  <S**2>=0.000
     155 ->158        -0.14195
     156 ->157         0.69616
     156 <-157        -0.10523
 This state for optimization and/or second-order correction.
 Total Energy, E(TD-HF/TD-DFT) =  -1706.81497705
 Copying the excited state density for this state as the 1-particle RhoCI density.

 The electronic state is 1-A.
 Alpha  occ. eigenvalues --  -19.21235 -19.21023 -10.32178 -10.31147 -10.29251
 Alpha  occ. eigenvalues --  -10.27743 -10.27684 -10.27664 -10.27641 -10.27588
 Alpha  occ. eigenvalues --  -10.27441 -10.27406 -10.27332 -10.27187 -10.26901
 Alpha  occ. eigenvalues --  -10.26793 -10.26793 -10.26415 -10.26366 -10.26294
 Alpha  occ. eigenvalues --  -10.26244 -10.26177 -10.26070 -10.26062 -10.25867
 Alpha  occ. eigenvalues --  -10.25797 -10.25763 -10.25755 -10.25746 -10.25465
 Alpha  occ. eigenvalues --  -10.25372 -10.25133 -10.25049 -10.25003 -10.24885
 Alpha  occ. eigenvalues --  -10.24407 -10.24189 -10.24102 -10.23801 -10.23732
 Alpha  occ. eigenvalues --  -10.23342 -10.22931  -1.08526  -1.08331  -0.94308
 Alpha  occ. eigenvalues --   -0.93300  -0.91894  -0.91411  -0.90766  -0.89744
 Alpha  occ. eigenvalues --   -0.88269  -0.87353  -0.86842  -0.85414  -0.84358
 Alpha  occ. eigenvalues --   -0.82226  -0.81505  -0.80173  -0.79634  -0.77732
 Alpha  occ. eigenvalues --   -0.76920  -0.76369  -0.76066  -0.75806  -0.75610
 Alpha  occ. eigenvalues --   -0.75232  -0.75127  -0.74611  -0.72341  -0.70268
 Alpha  occ. eigenvalues --   -0.69153  -0.68809  -0.66673  -0.65320  -0.64042
 Alpha  occ. eigenvalues --   -0.63746  -0.62075  -0.61588  -0.60058  -0.59776
 Alpha  occ. eigenvalues --   -0.58817  -0.58463  -0.58243  -0.57001  -0.56142
 Alpha  occ. eigenvalues --   -0.55242  -0.54985  -0.54148  -0.53995  -0.53535
 Alpha  occ. eigenvalues --   -0.53216  -0.52673  -0.52227  -0.52165  -0.51223
 Alpha  occ. eigenvalues --   -0.50451  -0.50187  -0.49513  -0.49403  -0.48893
 Alpha  occ. eigenvalues --   -0.48613  -0.48502  -0.47833  -0.47728  -0.47411
 Alpha  occ. eigenvalues --   -0.47292  -0.47215  -0.46835  -0.46656  -0.46576
 Alpha  occ. eigenvalues --   -0.46078  -0.45700  -0.45477  -0.44884  -0.44864
 Alpha  occ. eigenvalues --   -0.44659  -0.44314  -0.44174  -0.43748  -0.43675
 Alpha  occ. eigenvalues --   -0.43138  -0.42707  -0.42568  -0.42207  -0.42121
 Alpha  occ. eigenvalues --   -0.41893  -0.41727  -0.41129  -0.40960  -0.40370
 Alpha  occ. eigenvalues --   -0.40172  -0.40004  -0.39648  -0.39438  -0.39066
 Alpha  occ. eigenvalues --   -0.38870  -0.38592  -0.38376  -0.38125  -0.37948
 Alpha  occ. eigenvalues --   -0.37420  -0.37134  -0.36963  -0.36014  -0.35691
 Alpha  occ. eigenvalues --   -0.35078  -0.34275  -0.33577  -0.32615  -0.31548
 Alpha  occ. eigenvalues --   -0.31296  -0.30409  -0.28701  -0.27106  -0.23235
 Alpha  occ. eigenvalues --   -0.19053
 Alpha virt. eigenvalues --   -0.06296  -0.01036   0.03154   0.05637   0.08483
 Alpha virt. eigenvalues --    0.09176   0.10833   0.10948   0.12206   0.12602
 Alpha virt. eigenvalues --    0.12832   0.12927   0.13325   0.13775   0.13963

 Mulliken charges:
               1
     1  O   -0.556604
     2  O   -0.563936
     3  C    0.006964
     4  C   -0.143889
     5  C   -0.154004
     6  C    0.148250
     7  C    0.112532
     8  C   -0.037517
     9  C   -0.308021
    10  C   -0.297423
    11  C   -0.195127
    12  C   -0.157564
    13  C    0.155980
    14  C    0.091748
    15  C   -0.042300
    16  C   -0.200528
    17  C   -0.010247
    18  C   -0.301572
    19  C   -0.301721
    20  C   -0.373888
    21  C   -0.121916
    22  C   -0.155844
    23  C   -0.306865
    24  C    0.120892
    25  C   -0.080066
    26  C   -0.347201
    27  C    0.090853
    28  C   -0.116256
    29  C   -0.378089
    30  C   -0.113911
    31  C   -0.115678
    32  C   -0.108629
    33  C   -0.071117
    34  C    0.036533
    35  C   -0.122710
    36  C    0.126284
    37  C   -0.344929
    38  C   -0.085449
    39  C   -0.124595
    40  C   -0.367791
    41  C   -0.067561
    42  C   -0.089754
    43  H    0.090019
    44  H    0.116737
    45  H    0.103863
    46  H    0.069630
    47  H    0.103972
    48  H    0.111932
    49  H    0.066682
    50  H    0.118834
    51  H    0.105688
    52  H    0.081227
    53  H    0.114575
    54  H    0.044308
    55  H    0.070936
    56  H    0.086139
    57  H    0.089426
    58  H    0.113451
    59  H    0.125646
    60  H    0.110963
    61  H    0.104525
    62  H    0.102054
    63  H    0.105095
    64  H    0.112716
    65  H    0.087597
    66  H    0.103117
    67  H    0.115712
    68  H    0.108911
    69  H    0.310375
    70  H    0.090005
    71  H    0.085182
    72  H    0.129314
    73  H    0.114141
    74  H    0.085570
    75  H    0.303256
    76  H    0.074308
    77  H    0.105427
    78  H    0.118965
    79  H    0.113326
    80  H    0.084798
    81  H    0.109053
    82  H    0.125824
    83  H    0.077460
    84  H    0.081913
    85  H    0.103006
    86  H    0.092536
    87  H    0.067817
    88  H    0.079889
    89  H    0.117732
    90  H    0.100354
    91  H    0.105367
    92  H    0.058648
    93  H    0.071047
    94  H    0.126109
    95  H    0.100868
    96  H    0.109504
    97  H    0.087552
    98  H    0.079564
 Sum of Mulliken charges =  -0.00000

 Dipole moment (field-independent basis, Debye):
    X=             -1.5919    Y=             -0.4421    Z=             -0.0653  Tot=              1.6535
 Quadrupole moment (field-independent basis, Debye-Ang):
   XX=           -271.5335   YY=           -244.0973   ZZ=           -262.5201
   XY=              6.2625   XZ=             32.7365   YZ=              3.5280

 Normal termination of Gaussian 16 at Tue Jul 16 01:33:22 2019.
