 Gaussian 16, Revision A.03,
 Gaussian 16:  ES64L-G16RevA.03 25-Dec-2016

 -------------------------------------
 # td=(NStates=1) CAM-B3LYP/6-31G(d,p)
 -------------------------------------

 --
 TD
 --
 Symbolic Z-matrix:
 Charge =  0 Multiplicity = 1

                         Standard orientation:
 ---------------------------------------------------------------------
 Center     Atomic      Atomic             Coordinates (Angstroms)
 Number     Number       Type             X           Y           Z
 ---------------------------------------------------------------------
      1          8           0      -14.042574   -2.034889    0.309247
      2          8           0       14.822097    0.788498    0.245765
      3          6           0      -11.695557   -0.095540    1.240003
      4          6           0      -10.929870    0.441874    0.016136
      5          6           0      -11.967906   -1.502514    1.296916
      6          6           0      -12.639560   -2.150551    0.173199
      7          6           0      -11.518077   -0.311961   -1.260007
      8          6           0       10.959915    1.060840    0.968958
      9          6           0      -10.995133    0.389950    2.494891
     10          6           0      -13.123083    0.661196    1.256893
     11          6           0       12.443642    1.564987    0.612673
     12          6           0      -12.268032   -1.410276   -1.123213
     13          6           0       13.372287    0.475529    0.345159
     14          6           0       10.565584    0.022056   -0.128821
     15          6           0       -9.458262   -0.059559    0.153631
     16          6           0       13.053161   -0.349449   -0.906176
     17          6           0       11.448954   -0.569519   -0.962904
     18          6           0       10.158729    2.320920    1.017888
     19          6           0       10.810967    0.420190    2.387587
     20          6           0      -11.239066    0.248944   -2.655568
     21          6           0       -8.441466    0.847070   -0.031229
     22          6           0        9.196572   -0.380668   -0.049791
     23          6           0       11.141773   -1.612513   -2.009460
     24          6           0       -7.049280    0.491246   -0.111528
     25          6           0        8.747135   -1.705154   -0.159276
     26          6           0       -6.619068   -0.853638    0.293144
     27          6           0        7.432121   -2.064198   -0.046201
     28          6           0       -6.164665    1.517610   -0.344438
     29          6           0        7.243773   -3.511081    0.214914
     30          6           0        6.260239   -1.332241   -0.092777
     31          6           0       -4.760318    1.515053   -0.395516
     32          6           0        4.885150   -1.613704    0.115854
     33          6           0       -3.915619    2.636349   -0.753782
     34          6           0       -2.483358    2.652843   -0.657863
     35          6           0        3.944870   -0.604612   -0.113489
     36          6           0        2.552571   -0.790342   -0.120984
     37          6           0       -1.880850    4.085486   -0.791249
     38          6           0       -1.742164    1.507904   -0.499866
     39          6           0        1.805697    0.349841   -0.385973
     40          6           0        1.988552   -2.319016    0.143755
     41          6           0       -0.375855    1.495521   -0.427629
     42          6           0        0.383785    0.348500   -0.424096
     43          1           0      -10.881089    1.295593   -0.493827
     44          1           0      -12.492577   -1.856891    2.347733
     45          1           0      -10.866586   -2.127987    1.421264
     46          1           0      -12.102737   -3.019391   -0.072471
     47          1           0       -9.789658    0.296504    2.522473
     48          1           0      -11.002583    1.678292    2.610857
     49          1           0      -11.448402   -0.110296    3.453163
     50          1           0      -13.689665    0.422032    0.482029
     51          1           0      -13.523911    0.251496    2.112829
     52          1           0      -12.964834    1.793260    1.389612
     53          1           0       12.477664    2.214496   -0.257010
     54          1           0       12.815519    2.025179    1.553232
     55          1           0      -12.826565   -2.035435   -1.850247
     56          1           0       13.344564   -0.288962    1.097313
     57          1           0       -9.268161   -1.057910    0.324924
     58          1           0       13.485419   -1.379596   -0.922797
     59          1           0       13.298287    0.194593   -1.966927
     60          1           0        9.187100    2.237000    1.342372
     61          1           0        9.758256    2.710326    0.048119
     62          1           0       10.592001    3.103358    1.493269
     63          1           0       11.464631   -0.394131    2.370141
     64          1           0        9.754763   -0.062214    2.535166
     65          1           0       11.194840    1.087103    3.368255
     66          1           0      -10.148795    0.292605   -2.607443
     67          1           0      -11.515079    1.210829   -2.596035
     68          1           0      -11.949578   -0.460341   -3.278731
     69          1           0      -14.463369   -2.154949   -0.642286
     70          1           0        8.480655    0.411517    0.280187
     71          1           0       -8.725453    1.830363   -0.453597
     72          1           0       11.511193   -2.540537   -1.812331
     73          1           0       10.089082   -1.441103   -2.181076
     74          1           0       11.799943   -1.516223   -2.852017
     75          1           0       15.256726    1.524231    0.822666
     76          1           0        9.522315   -2.495375   -0.300631
     77          1           0       -5.512430   -0.959674    0.431404
     78          1           0       -7.054728   -1.062189    1.363375
     79          1           0       -6.910508   -1.686702   -0.328615
     80          1           0       -6.740176    2.514656   -0.646962
     81          1           0        6.787860   -3.966910    1.195479
     82          1           0        6.538007   -3.743594   -0.619814
     83          1           0        8.202666   -4.051671    0.101630
     84          1           0        6.477288   -0.360608   -0.399254
     85          1           0       -4.297028    0.657467   -0.207845
     86          1           0        4.697312   -2.532248    0.422723
     87          1           0       -4.385163    3.660226   -0.869846
     88          1           0        4.120944    0.348228   -0.259358
     89          1           0       -1.420766    4.030484   -1.786091
     90          1           0       -1.140765    4.058809    0.036534
     91          1           0       -2.684693    4.858156   -0.637016
     92          1           0       -2.272491    0.630473   -0.444925
     93          1           0        2.378420    1.200630   -0.465917
     94          1           0        2.075570   -2.510192    1.381188
     95          1           0        0.814428   -2.247859   -0.429213
     96          1           0        2.689028   -3.080976   -0.340181
     97          1           0        0.238721    2.354277   -0.535199
     98          1           0        0.018655   -0.681325   -0.368969
 ---------------------------------------------------------------------

 SCF Done:  E(RCAM-B3LYP) =  -1706.89106129     A.U. after   15 cycles

 Excitation energies and oscillator strengths:

 Excited State   1:      Singlet-A      1.9951 eV  621.43 nm  f=3.2249  <S**2>=0.000
     155 ->158         0.16160
     156 ->157         0.68948
 This state for optimization and/or second-order correction.
 Total Energy, E(TD-HF/TD-DFT) =  -1706.81774154
 Copying the excited state density for this state as the 1-particle RhoCI density.

 The electronic state is 1-A.
 Alpha  occ. eigenvalues --  -19.22794 -19.19829 -10.30405 -10.29906 -10.29744
 Alpha  occ. eigenvalues --  -10.28271 -10.27480 -10.27326 -10.27293 -10.27262
 Alpha  occ. eigenvalues --  -10.27258 -10.27210 -10.27171 -10.27167 -10.26930
 Alpha  occ. eigenvalues --  -10.26905 -10.26815 -10.26774 -10.26455 -10.26448
 Alpha  occ. eigenvalues --  -10.26310 -10.26281 -10.26203 -10.26169 -10.26126
 Alpha  occ. eigenvalues --  -10.26059 -10.26005 -10.25852 -10.25833 -10.25819
 Alpha  occ. eigenvalues --  -10.25676 -10.25650 -10.25584 -10.25315 -10.25255
 Alpha  occ. eigenvalues --  -10.25100 -10.24886 -10.24832 -10.24318 -10.23771
 Alpha  occ. eigenvalues --  -10.22858 -10.22274  -1.09413  -1.04765  -0.94231
 Alpha  occ. eigenvalues --   -0.93353  -0.92333  -0.91685  -0.91076  -0.90215
 Alpha  occ. eigenvalues --   -0.87415  -0.87183  -0.86738  -0.85464  -0.84845
 Alpha  occ. eigenvalues --   -0.83507  -0.82364  -0.80750  -0.80415  -0.78067
 Alpha  occ. eigenvalues --   -0.76796  -0.76756  -0.76095  -0.75966  -0.75361
 Alpha  occ. eigenvalues --   -0.75135  -0.74819  -0.73996  -0.73089  -0.70729
 Alpha  occ. eigenvalues --   -0.69287  -0.68534  -0.67322  -0.65262  -0.64001
 Alpha  occ. eigenvalues --   -0.63769  -0.63388  -0.62866  -0.61116  -0.60179
 Alpha  occ. eigenvalues --   -0.59746  -0.58954  -0.57941  -0.57027  -0.56587
 Alpha  occ. eigenvalues --   -0.56191  -0.55458  -0.54675  -0.54268  -0.53886
 Alpha  occ. eigenvalues --   -0.53623  -0.52971  -0.52785  -0.52021  -0.51519
 Alpha  occ. eigenvalues --   -0.50751  -0.50130  -0.49947  -0.49580  -0.49136
 Alpha  occ. eigenvalues --   -0.48920  -0.48665  -0.48426  -0.48260  -0.47911
 Alpha  occ. eigenvalues --   -0.47668  -0.47028  -0.46943  -0.46734  -0.46267
 Alpha  occ. eigenvalues --   -0.46183  -0.45855  -0.45608  -0.45287  -0.44971
 Alpha  occ. eigenvalues --   -0.44587  -0.44193  -0.43947  -0.43419  -0.43318
 Alpha  occ. eigenvalues --   -0.43175  -0.42849  -0.42615  -0.42368  -0.42119
 Alpha  occ. eigenvalues --   -0.41828  -0.41657  -0.41452  -0.41040  -0.40878
 Alpha  occ. eigenvalues --   -0.40503  -0.39902  -0.39731  -0.39487  -0.39222
 Alpha  occ. eigenvalues --   -0.39069  -0.38655  -0.38525  -0.38316  -0.37837
 Alpha  occ. eigenvalues --   -0.37440  -0.37145  -0.36212  -0.35694  -0.35192
 Alpha  occ. eigenvalues --   -0.34437  -0.33877  -0.33517  -0.32248  -0.31790
 Alpha  occ. eigenvalues --   -0.31162  -0.29549  -0.29260  -0.26896  -0.22929
 Alpha  occ. eigenvalues --   -0.18831
 Alpha virt. eigenvalues --   -0.06151  -0.01794   0.02794   0.06192   0.07694
 Alpha virt. eigenvalues --    0.09361   0.10606   0.10750   0.11430   0.11891
 Alpha virt. eigenvalues --    0.12025   0.12595   0.12957   0.13470   0.13983

 Mulliken charges:
               1
     1  O   -0.547987
     2  O   -0.611179
     3  C    0.034811
     4  C   -0.073031
     5  C   -0.174850
     6  C    0.186530
     7  C    0.040971
     8  C   -0.015722
     9  C   -0.283645
    10  C   -0.273763
    11  C   -0.193545
    12  C   -0.177751
    13  C    0.196337
    14  C    0.083102
    15  C   -0.087992
    16  C   -0.208591
    17  C    0.012810
    18  C   -0.304748
    19  C   -0.295872
    20  C   -0.342328
    21  C   -0.111289
    22  C   -0.147434
    23  C   -0.364976
    24  C    0.139133
    25  C   -0.127565
    26  C   -0.388516
    27  C    0.111275
    28  C   -0.124741
    29  C   -0.381288
    30  C   -0.119363
    31  C   -0.062254
    32  C   -0.072131
    33  C   -0.134234
    34  C    0.053469
    35  C   -0.073325
    36  C    0.091102
    37  C   -0.358539
    38  C   -0.073515
    39  C   -0.126781
    40  C   -0.334335
    41  C   -0.091282
    42  C   -0.078853
    43  H    0.083238
    44  H    0.097439
    45  H    0.051453
    46  H    0.102257
    47  H    0.095384
    48  H    0.061385
    49  H    0.089618
    50  H    0.115577
    51  H    0.104505
    52  H    0.078172
    53  H    0.112191
    54  H    0.084663
    55  H    0.059215
    56  H    0.089073
    57  H    0.095374
    58  H    0.111179
    59  H    0.094977
    60  H    0.103343
    61  H    0.087140
    62  H    0.113203
    63  H    0.113211
    64  H    0.111150
    65  H    0.076601
    66  H    0.127859
    67  H    0.125098
    68  H    0.112777
    69  H    0.308679
    70  H    0.088503
    71  H    0.076717
    72  H    0.123091
    73  H    0.130735
    74  H    0.102725
    75  H    0.301105
    76  H    0.106420
    77  H    0.109007
    78  H    0.111584
    79  H    0.127301
    80  H    0.065229
    81  H    0.103914
    82  H    0.116418
    83  H    0.096771
    84  H    0.057117
    85  H    0.072154
    86  H    0.073351
    87  H    0.076811
    88  H    0.067416
    89  H    0.137406
    90  H    0.125699
    91  H    0.111639
    92  H    0.077568
    93  H    0.078703
    94  H    0.110728
    95  H    0.085091
    96  H    0.125023
    97  H    0.082971
    98  H    0.065925
 Sum of Mulliken charges =  -0.00000

 Dipole moment (field-independent basis, Debye):
    X=             -1.1304    Y=              0.0888    Z=             -0.6187  Tot=              1.2918
 Quadrupole moment (field-independent basis, Debye-Ang):
   XX=           -282.9688   YY=           -243.8989   ZZ=           -264.3754
   XY=             11.8621   XZ=             35.0666   YZ=              2.3294

 Normal termination of Gaussian 16 at Sun Jul 14 22:30:18 2019.
