 Gaussian 16, Revision A.03,
 Gaussian 16:  ES64L-G16RevA.03 25-Dec-2016

 -------------------------------------
 # td=(NStates=1) CAM-B3LYP/6-31G(d,p)
 -------------------------------------

 --
 TD
 --
 Symbolic Z-matrix:
 Charge =  0 Multiplicity = 1

                         Standard orientation:
 ---------------------------------------------------------------------
 Center     Atomic      Atomic             Coordinates (Angstroms)
 Number     Number       Type             X           Y           Z
 ---------------------------------------------------------------------
      1          8           0      -14.239684   -1.792340    0.520155
      2          8           0       14.721843    1.222485   -0.253079
      3          6           0      -11.695412    0.033565    1.243995
      4          6           0      -11.034641    0.321666   -0.020684
      5          6           0      -12.040252   -1.469478    1.253485
      6          6           0      -12.868101   -1.965229    0.116417
      7          6           0      -11.654821   -0.243752   -1.342902
      8          6           0       11.146171    0.975596    1.117369
      9          6           0      -10.908336    0.491178    2.440537
     10          6           0      -13.147698    0.855366    1.336792
     11          6           0       12.608632    1.620022    0.735087
     12          6           0      -12.452136   -1.249351   -1.137323
     13          6           0       13.483657    0.540475    0.203109
     14          6           0       10.657557   -0.048816   -0.011484
     15          6           0       -9.555064   -0.089611   -0.092000
     16          6           0       12.868716    0.029243   -1.184282
     17          6           0       11.453495   -0.401781   -0.988106
     18          6           0       10.172706    2.116503    1.285286
     19          6           0       11.210239    0.195945    2.488075
     20          6           0      -11.348709    0.394019   -2.496161
     21          6           0       -8.544746    0.812902   -0.199335
     22          6           0        9.278701   -0.620284    0.121157
     23          6           0       11.036568   -1.222281   -2.203515
     24          6           0       -7.081666    0.432229   -0.203483
     25          6           0        8.840907   -1.821389   -0.039896
     26          6           0       -6.872753   -1.060073   -0.010162
     27          6           0        7.458307   -2.207359    0.112967
     28          6           0       -6.134030    1.332297   -0.409118
     29          6           0        7.188634   -3.765900    0.045830
     30          6           0        6.460845   -1.288731    0.006804
     31          6           0       -4.741285    1.237937   -0.494776
     32          6           0        5.070878   -1.551063    0.044612
     33          6           0       -3.923137    2.445985   -0.615010
     34          6           0       -2.493071    2.482990   -0.469784
     35          6           0        4.098066   -0.593753   -0.162742
     36          6           0        2.722516   -0.929404    0.005231
     37          6           0       -1.943430    3.957827   -0.741164
     38          6           0       -1.712920    1.337560   -0.386368
     39          6           0        1.821017    0.177867   -0.221050
     40          6           0        2.085161   -2.234562    0.135216
     41          6           0       -0.290839    1.382701   -0.426595
     42          6           0        0.445347    0.233421   -0.167065
     43          1           0      -11.098726    1.523842   -0.190285
     44          1           0      -12.611276   -1.655066    2.276096
     45          1           0      -10.974121   -2.044607    1.183220
     46          1           0      -12.615361   -3.022716    0.244475
     47          1           0       -9.882295   -0.107701    2.792965
     48          1           0      -10.675238    1.425527    2.373474
     49          1           0      -11.368783    0.517286    3.497390
     50          1           0      -13.723287    0.816514    0.352154
     51          1           0      -13.806316    0.267295    2.081849
     52          1           0      -13.078413    1.861269    1.599211
     53          1           0       12.714028    2.501384   -0.014170
     54          1           0       13.096464    1.892706    1.540826
     55          1           0      -12.881573   -1.654083   -1.999428
     56          1           0       13.607352   -0.382863    0.719761
     57          1           0       -9.372547   -1.133236   -0.122953
     58          1           0       13.539808   -0.730921   -1.437425
     59          1           0       13.006328    0.845407   -1.884001
     60          1           0        9.223846    1.780592    1.713851
     61          1           0        9.743765    2.738492    0.338841
     62          1           0       10.526183    2.904041    1.998501
     63          1           0       12.106803   -0.591216    2.562608
     64          1           0       10.195825   -0.221248    2.744684
     65          1           0       11.514036    0.886612    3.287762
     66          1           0      -10.244369    0.031352   -2.593550
     67          1           0      -11.296632    1.673027   -2.498660
     68          1           0      -11.946054    0.059561   -3.408984
     69          1           0      -14.729373   -1.535470   -0.376603
     70          1           0        8.430253    0.001331    0.514338
     71          1           0       -8.724059    1.855831   -0.460745
     72          1           0       11.327491   -2.408166   -1.904595
     73          1           0        9.925326   -0.981897   -2.148323
     74          1           0       11.617089   -0.740621   -2.972592
     75          1           0       15.223536    1.667885    0.411766
     76          1           0        9.410330   -2.642909   -0.358063
     77          1           0       -5.775683   -1.129768   -0.190897
     78          1           0       -7.103207   -1.430044    0.985084
     79          1           0       -7.441088   -1.454655   -0.654142
     80          1           0       -6.507385    2.384351   -0.626951
     81          1           0        6.657256   -4.054212    1.111820
     82          1           0        6.422896   -4.158668   -0.781930
     83          1           0        8.317007   -4.146439   -0.005738
     84          1           0        6.505093   -0.226600   -0.240190
     85          1           0       -4.193962    0.221401   -0.075193
     86          1           0        4.829525   -2.605805    0.378918
     87          1           0       -4.759042    3.256302   -0.753803
     88          1           0        4.322346    0.545249   -0.387200
     89          1           0       -1.592940    3.998414   -1.676998
     90          1           0       -0.991264    4.050447    0.076313
     91          1           0       -2.669037    4.602596   -0.538040
     92          1           0       -2.064005    0.405085   -0.396999
     93          1           0        2.240313    1.121003   -0.436916
     94          1           0        2.534875   -2.770159    0.983348
     95          1           0        1.013892   -2.060043    0.494627
     96          1           0        1.954547   -2.918207   -0.912720
     97          1           0        0.377505    2.303075   -0.510050
     98          1           0       -0.105373   -0.638559    0.143874
 ---------------------------------------------------------------------

 SCF Done:  E(RCAM-B3LYP) =  -1706.89948265     A.U. after   15 cycles

 Excitation energies and oscillator strengths:

 Excited State   1:      Singlet-A      2.0879 eV  593.83 nm  f=2.9413  <S**2>=0.000
     155 ->158         0.13842
     156 ->157         0.69616
 This state for optimization and/or second-order correction.
 Total Energy, E(TD-HF/TD-DFT) =  -1706.82275515
 Copying the excited state density for this state as the 1-particle RhoCI density.

 The electronic state is 1-A.
 Alpha  occ. eigenvalues --  -19.21692 -19.20059 -10.30087 -10.29783 -10.29185
 Alpha  occ. eigenvalues --  -10.28876 -10.28390 -10.28200 -10.28136 -10.27927
 Alpha  occ. eigenvalues --  -10.27675 -10.27518 -10.27377 -10.27231 -10.27180
 Alpha  occ. eigenvalues --  -10.27036 -10.26908 -10.26897 -10.26638 -10.26419
 Alpha  occ. eigenvalues --  -10.26319 -10.26253 -10.26210 -10.25979 -10.25928
 Alpha  occ. eigenvalues --  -10.25862 -10.25800 -10.25756 -10.25743 -10.25710
 Alpha  occ. eigenvalues --  -10.25619 -10.25564 -10.25432 -10.25326 -10.25272
 Alpha  occ. eigenvalues --  -10.24716 -10.24666 -10.24351 -10.24316 -10.24295
 Alpha  occ. eigenvalues --  -10.23925 -10.23835  -1.07684  -1.07216  -0.94720
 Alpha  occ. eigenvalues --   -0.92968  -0.92051  -0.91413  -0.90743  -0.89801
 Alpha  occ. eigenvalues --   -0.88376  -0.87186  -0.86490  -0.85410  -0.84540
 Alpha  occ. eigenvalues --   -0.83050  -0.82497  -0.80761  -0.79967  -0.78763
 Alpha  occ. eigenvalues --   -0.77087  -0.76100  -0.75969  -0.75638  -0.75546
 Alpha  occ. eigenvalues --   -0.75033  -0.74707  -0.74261  -0.72693  -0.69994
 Alpha  occ. eigenvalues --   -0.68196  -0.67171  -0.66086  -0.65141  -0.63635
 Alpha  occ. eigenvalues --   -0.63124  -0.62984  -0.62607  -0.60446  -0.59847
 Alpha  occ. eigenvalues --   -0.58757  -0.58710  -0.58096  -0.56982  -0.56672
 Alpha  occ. eigenvalues --   -0.55567  -0.55135  -0.54649  -0.53768  -0.53573
 Alpha  occ. eigenvalues --   -0.53244  -0.52587  -0.52233  -0.51637  -0.51086
 Alpha  occ. eigenvalues --   -0.50253  -0.50027  -0.49773  -0.48900  -0.48806
 Alpha  occ. eigenvalues --   -0.48456  -0.48353  -0.48306  -0.48115  -0.47792
 Alpha  occ. eigenvalues --   -0.47442  -0.47269  -0.46623  -0.46389  -0.45943
 Alpha  occ. eigenvalues --   -0.45647  -0.45493  -0.45308  -0.44949  -0.44680
 Alpha  occ. eigenvalues --   -0.44485  -0.44401  -0.43734  -0.43572  -0.43352
 Alpha  occ. eigenvalues --   -0.43173  -0.43012  -0.42621  -0.42304  -0.41804
 Alpha  occ. eigenvalues --   -0.41586  -0.41384  -0.41091  -0.40553  -0.40269
 Alpha  occ. eigenvalues --   -0.40183  -0.39934  -0.39668  -0.39572  -0.39354
 Alpha  occ. eigenvalues --   -0.38986  -0.38862  -0.38239  -0.38048  -0.37876
 Alpha  occ. eigenvalues --   -0.37316  -0.36809  -0.36467  -0.36040  -0.35708
 Alpha  occ. eigenvalues --   -0.34485  -0.33777  -0.32667  -0.32264  -0.31690
 Alpha  occ. eigenvalues --   -0.31585  -0.30009  -0.29577  -0.27338  -0.24125
 Alpha  occ. eigenvalues --   -0.19217
 Alpha virt. eigenvalues --   -0.06150  -0.00850   0.03112   0.05321   0.07040
 Alpha virt. eigenvalues --    0.08540   0.11301   0.11502   0.11873   0.12319
 Alpha virt. eigenvalues --    0.12447   0.12717   0.13131   0.13456   0.13690

 Mulliken charges:
               1
     1  O   -0.551748
     2  O   -0.584973
     3  C    0.049444
     4  C   -0.137475
     5  C   -0.189249
     6  C    0.183687
     7  C    0.212205
     8  C   -0.016856
     9  C   -0.292193
    10  C   -0.307294
    11  C   -0.166193
    12  C   -0.199031
    13  C    0.133734
    14  C    0.107632
    15  C   -0.094847
    16  C   -0.222583
    17  C    0.000122
    18  C   -0.302867
    19  C   -0.305159
    20  C   -0.373470
    21  C   -0.078026
    22  C   -0.159245
    23  C   -0.329261
    24  C    0.077054
    25  C   -0.049128
    26  C   -0.349037
    27  C    0.046882
    28  C   -0.129267
    29  C   -0.348498
    30  C   -0.093126
    31  C   -0.075688
    32  C   -0.102057
    33  C   -0.133884
    34  C    0.038833
    35  C   -0.119310
    36  C    0.124138
    37  C   -0.333021
    38  C   -0.083511
    39  C   -0.127084
    40  C   -0.362701
    41  C   -0.091851
    42  C   -0.076329
    43  H    0.062727
    44  H    0.097398
    45  H    0.062274
    46  H    0.093559
    47  H    0.070317
    48  H    0.114678
    49  H    0.089311
    50  H    0.084738
    51  H    0.109856
    52  H    0.098487
    53  H    0.106771
    54  H    0.086836
    55  H    0.057289
    56  H    0.096890
    57  H    0.095256
    58  H    0.114480
    59  H    0.125291
    60  H    0.100025
    61  H    0.086015
    62  H    0.098423
    63  H    0.086539
    64  H    0.116125
    65  H    0.101084
    66  H    0.127534
    67  H    0.096708
    68  H    0.111903
    69  H    0.304637
    70  H    0.081894
    71  H    0.077748
    72  H    0.089584
    73  H    0.120550
    74  H    0.116133
    75  H    0.295979
    76  H    0.075065
    77  H    0.095793
    78  H    0.123917
    79  H    0.130374
    80  H    0.068998
    81  H    0.102007
    82  H    0.123256
    83  H    0.100962
    84  H    0.083485
    85  H    0.076999
    86  H    0.078988
    87  H    0.089964
    88  H    0.092375
    89  H    0.144930
    90  H    0.083036
    91  H    0.123023
    92  H    0.083951
    93  H    0.065331
    94  H    0.116171
    95  H    0.107552
    96  H    0.106022
    97  H    0.085668
    98  H    0.076330
 Sum of Mulliken charges =  -0.00000

 Dipole moment (field-independent basis, Debye):
    X=              0.3539    Y=              0.6324    Z=             -0.3552  Tot=              0.8071
 Quadrupole moment (field-independent basis, Debye-Ang):
   XX=           -275.0464   YY=           -248.3431   ZZ=           -263.5496
   XY=             -7.1045   XZ=             46.9064   YZ=              1.4118

 Normal termination of Gaussian 16 at Fri Jul 12 22:17:47 2019.
