 Gaussian 16, Revision A.03,
 Gaussian 16:  ES64L-G16RevA.03 25-Dec-2016

 -------------------------------------
 # td=(NStates=1) CAM-B3LYP/6-31G(d,p)
 -------------------------------------

 --
 TD
 --
 Symbolic Z-matrix:
 Charge =  0 Multiplicity = 1

                         Standard orientation:
 ---------------------------------------------------------------------
 Center     Atomic      Atomic             Coordinates (Angstroms)
 Number     Number       Type             X           Y           Z
 ---------------------------------------------------------------------
      1          8           0      -14.291229   -2.018237    0.400788
      2          8           0       14.743473    0.937204   -0.129012
      3          6           0      -11.723445   -0.064485    1.273470
      4          6           0      -10.951548    0.324042   -0.023501
      5          6           0      -12.133789   -1.440323    1.383989
      6          6           0      -12.841006   -2.061781    0.206488
      7          6           0      -11.637932   -0.322376   -1.287918
      8          6           0       11.216968    0.981372    1.096432
      9          6           0      -10.906516    0.389417    2.415228
     10          6           0      -13.064624    0.845083    1.394769
     11          6           0       12.687542    1.412993    0.736619
     12          6           0      -12.537364   -1.402461   -1.126025
     13          6           0       13.573648    0.268374    0.275703
     14          6           0       10.689979   -0.005383   -0.116869
     15          6           0       -9.479228   -0.067053   -0.010774
     16          6           0       12.953753   -0.158694   -1.076730
     17          6           0       11.460308   -0.510932   -1.000592
     18          6           0       10.252144    2.257842    1.123941
     19          6           0       11.136896    0.256856    2.400805
     20          6           0      -11.294707    0.294615   -2.617738
     21          6           0       -8.535078    0.771104   -0.256606
     22          6           0        9.293635   -0.393875    0.126433
     23          6           0       11.057331   -1.395960   -2.170080
     24          6           0       -7.086219    0.487905   -0.166306
     25          6           0        8.825226   -1.740505   -0.061195
     26          6           0       -6.657318   -1.021976   -0.097263
     27          6           0        7.412517   -2.154926    0.007821
     28          6           0       -6.146945    1.478979   -0.453674
     29          6           0        7.247782   -3.616215    0.254341
     30          6           0        6.454859   -1.251973    0.001265
     31          6           0       -4.796250    1.345086   -0.334612
     32          6           0        5.060730   -1.464604    0.089582
     33          6           0       -4.105780    2.529506   -0.519370
     34          6           0       -2.657616    2.624854   -0.556275
     35          6           0        3.977937   -0.503261   -0.206936
     36          6           0        2.646723   -0.817355   -0.165183
     37          6           0       -2.009158    3.953512   -0.779358
     38          6           0       -1.822802    1.547271   -0.169040
     39          6           0        1.790770    0.361687   -0.185380
     40          6           0        2.123642   -2.110917    0.160233
     41          6           0       -0.364238    1.574113   -0.437298
     42          6           0        0.401244    0.406505   -0.142505
     43          1           0      -11.111088    1.259149   -0.383775
     44          1           0      -12.813452   -1.626159    2.338218
     45          1           0      -11.191304   -2.116546    1.387334
     46          1           0      -12.636269   -3.148570    0.091026
     47          1           0       -9.791523   -0.030929    2.361667
     48          1           0      -10.803557    1.559301    2.365945
     49          1           0      -11.409613    0.231929    3.447866
     50          1           0      -13.570257    0.499441    0.560841
     51          1           0      -13.610595    0.630735    2.264807
     52          1           0      -12.624450    1.954107    1.172354
     53          1           0       12.594423    2.224690    0.007227
     54          1           0       13.035315    1.879585    1.650375
     55          1           0      -12.853505   -2.021852   -1.876400
     56          1           0       13.846001   -0.633691    1.131019
     57          1           0       -9.415656   -1.390975    0.034446
     58          1           0       13.516664   -1.112815   -1.406900
     59          1           0       13.065903    0.636362   -1.923797
     60          1           0        9.247410    2.033542    1.600607
     61          1           0       10.356697    2.603028   -0.027428
     62          1           0       10.739506    3.061584    1.645183
     63          1           0       11.650282   -0.752797    2.696597
     64          1           0       10.034506    0.132142    2.497261
     65          1           0       11.304225    0.783417    3.172521
     66          1           0      -10.117916    0.241427   -2.583524
     67          1           0      -11.402857    1.588462   -2.565655
     68          1           0      -11.819355   -0.264684   -3.400151
     69          1           0      -14.702313   -2.262987   -0.281321
     70          1           0        8.708318    0.305733    0.573417
     71          1           0       -8.539002    1.879919   -0.371972
     72          1           0       10.919298   -2.547100   -2.190693
     73          1           0       10.076887   -1.100387   -2.635858
     74          1           0       11.836332   -1.235398   -2.858602
     75          1           0       15.101599    1.149291    0.776557
     76          1           0        9.569411   -2.505391   -0.472387
     77          1           0       -5.619222   -1.376251   -0.164616
     78          1           0       -6.833564   -1.518928    0.943450
     79          1           0       -7.351999   -1.529101   -0.917275
     80          1           0       -6.694399    2.297449   -0.639555
     81          1           0        7.081297   -3.778782    1.278797
     82          1           0        6.314139   -3.960088   -0.216807
     83          1           0        8.090276   -4.095443   -0.089778
     84          1           0        6.949947   -0.212247   -0.160251
     85          1           0       -4.303692    0.308760   -0.219970
     86          1           0        4.500887   -2.612469    0.142058
     87          1           0       -4.409568    3.527715   -0.682190
     88          1           0        4.178902    0.374233   -0.268479
     89          1           0       -1.300133    3.986579   -1.564780
     90          1           0       -1.482670    4.434771    0.027782
     91          1           0       -2.790748    4.638338   -1.233661
     92          1           0       -2.133266    0.646933   -0.031631
     93          1           0        2.205516    1.179942   -0.523386
     94          1           0        2.180871   -2.303795    1.098834
     95          1           0        0.883449   -2.153816   -0.316222
     96          1           0        2.628531   -2.737402   -0.657345
     97          1           0        0.042026    2.418874   -0.926535
     98          1           0       -0.017028   -0.426944    0.235178
 ---------------------------------------------------------------------

 SCF Done:  E(RCAM-B3LYP) =  -1706.78695656     A.U. after   15 cycles

 Excitation energies and oscillator strengths:

 Excited State   1:      Singlet-A      1.9272 eV  643.35 nm  f=2.9367  <S**2>=0.000
     155 ->158        -0.13627
     156 ->157         0.69815
     156 <-157        -0.10923
 This state for optimization and/or second-order correction.
 Total Energy, E(TD-HF/TD-DFT) =  -1706.71613473
 Copying the excited state density for this state as the 1-particle RhoCI density.

 The electronic state is 1-A.
 Alpha  occ. eigenvalues --  -19.21472 -19.18711 -10.32283 -10.30600 -10.28419
 Alpha  occ. eigenvalues --  -10.28396 -10.28243 -10.28205 -10.27948 -10.27558
 Alpha  occ. eigenvalues --  -10.27367 -10.27221 -10.27076 -10.26935 -10.26888
 Alpha  occ. eigenvalues --  -10.26769 -10.26686 -10.26581 -10.26575 -10.26572
 Alpha  occ. eigenvalues --  -10.26498 -10.26293 -10.26073 -10.25986 -10.25749
 Alpha  occ. eigenvalues --  -10.25720 -10.25687 -10.25557 -10.25378 -10.25364
 Alpha  occ. eigenvalues --  -10.25222 -10.25168 -10.25152 -10.25087 -10.25067
 Alpha  occ. eigenvalues --  -10.24825 -10.24735 -10.24684 -10.24554 -10.23800
 Alpha  occ. eigenvalues --  -10.23540 -10.23454  -1.10419  -1.10408  -0.93911
 Alpha  occ. eigenvalues --   -0.92759  -0.92367  -0.91993  -0.90562  -0.89948
 Alpha  occ. eigenvalues --   -0.87453  -0.86863  -0.86362  -0.85460  -0.83940
 Alpha  occ. eigenvalues --   -0.83288  -0.81686  -0.80281  -0.79628  -0.79072
 Alpha  occ. eigenvalues --   -0.77742  -0.76519  -0.76244  -0.75791  -0.75627
 Alpha  occ. eigenvalues --   -0.74983  -0.74729  -0.74121  -0.72607  -0.70867
 Alpha  occ. eigenvalues --   -0.69120  -0.68204  -0.66458  -0.64863  -0.63952
 Alpha  occ. eigenvalues --   -0.63271  -0.62969  -0.61855  -0.61051  -0.60126
 Alpha  occ. eigenvalues --   -0.59031  -0.58511  -0.58225  -0.57758  -0.56527
 Alpha  occ. eigenvalues --   -0.55489  -0.55142  -0.54916  -0.54670  -0.53584
 Alpha  occ. eigenvalues --   -0.53343  -0.53299  -0.52752  -0.52364  -0.52268
 Alpha  occ. eigenvalues --   -0.51369  -0.50740  -0.49815  -0.49447  -0.48801
 Alpha  occ. eigenvalues --   -0.48562  -0.48392  -0.48277  -0.48152  -0.48133
 Alpha  occ. eigenvalues --   -0.47827  -0.46838  -0.46750  -0.46441  -0.46188
 Alpha  occ. eigenvalues --   -0.46028  -0.45716  -0.45354  -0.44885  -0.44761
 Alpha  occ. eigenvalues --   -0.44652  -0.44132  -0.43998  -0.43796  -0.43189
 Alpha  occ. eigenvalues --   -0.42891  -0.42769  -0.42496  -0.42276  -0.42131
 Alpha  occ. eigenvalues --   -0.41476  -0.41310  -0.41141  -0.40949  -0.40527
 Alpha  occ. eigenvalues --   -0.39845  -0.39816  -0.39550  -0.39089  -0.38975
 Alpha  occ. eigenvalues --   -0.38891  -0.38781  -0.38388  -0.38158  -0.37771
 Alpha  occ. eigenvalues --   -0.37517  -0.37332  -0.36666  -0.36639  -0.35341
 Alpha  occ. eigenvalues --   -0.34400  -0.33312  -0.32948  -0.32133  -0.31941
 Alpha  occ. eigenvalues --   -0.31534  -0.29794  -0.28318  -0.26798  -0.23589
 Alpha  occ. eigenvalues --   -0.18548
 Alpha virt. eigenvalues --   -0.06446  -0.01194   0.02533   0.04603   0.06846
 Alpha virt. eigenvalues --    0.09018   0.09569   0.10474   0.11140   0.11535
 Alpha virt. eigenvalues --    0.11985   0.12719   0.13115   0.13526   0.14161

 Mulliken charges:
               1
     1  O   -0.533195
     2  O   -0.528837
     3  C    0.016803
     4  C   -0.104320
     5  C   -0.160584
     6  C    0.132143
     7  C    0.073978
     8  C   -0.039828
     9  C   -0.274441
    10  C   -0.289465
    11  C   -0.177240
    12  C   -0.140863
    13  C    0.142688
    14  C    0.092089
    15  C   -0.092600
    16  C   -0.221619
    17  C    0.028392
    18  C   -0.315193
    19  C   -0.280616
    20  C   -0.338830
    21  C   -0.076716
    22  C   -0.114008
    23  C   -0.370094
    24  C    0.068949
    25  C   -0.125860
    26  C   -0.366014
    27  C    0.102280
    28  C   -0.068212
    29  C   -0.359150
    30  C   -0.107445
    31  C   -0.082954
    32  C   -0.140908
    33  C   -0.080070
    34  C    0.050150
    35  C   -0.029020
    36  C    0.086101
    37  C   -0.388666
    38  C   -0.080017
    39  C   -0.106407
    40  C   -0.353405
    41  C   -0.096749
    42  C   -0.084332
    43  H    0.092261
    44  H    0.108062
    45  H    0.076980
    46  H    0.082383
    47  H    0.087119
    48  H    0.079620
    49  H    0.084819
    50  H    0.125178
    51  H    0.110375
    52  H    0.068614
    53  H    0.106932
    54  H    0.073291
    55  H    0.074553
    56  H    0.067899
    57  H    0.084132
    58  H    0.098246
    59  H    0.124686
    60  H    0.107615
    61  H    0.097907
    62  H    0.109734
    63  H    0.091040
    64  H    0.090758
    65  H    0.109545
    66  H    0.120178
    67  H    0.083772
    68  H    0.122770
    69  H    0.271765
    70  H    0.080162
    71  H    0.089519
    72  H    0.104453
    73  H    0.120744
    74  H    0.108816
    75  H    0.301037
    76  H    0.087080
    77  H    0.105934
    78  H    0.100820
    79  H    0.106613
    80  H    0.064962
    81  H    0.136264
    82  H    0.108578
    83  H    0.110858
    84  H    0.081462
    85  H    0.108753
    86  H    0.059713
    87  H    0.082231
    88  H    0.043366
    89  H    0.127815
    90  H    0.138411
    91  H    0.091608
    92  H    0.064474
    93  H    0.065589
    94  H    0.146118
    95  H    0.065826
    96  H    0.125527
    97  H    0.085373
    98  H    0.071746
 Sum of Mulliken charges =  -0.00000

 Dipole moment (field-independent basis, Debye):
    X=              1.6272    Y=             -0.3164    Z=             -0.3445  Tot=              1.6931
 Quadrupole moment (field-independent basis, Debye-Ang):
   XX=           -286.6825   YY=           -243.9815   ZZ=           -260.9122
   XY=              3.8959   XZ=             44.7976   YZ=              1.9631

 Normal termination of Gaussian 16 at Fri Jul 12 20:19:25 2019.
