 Gaussian 16, Revision A.03,
 Gaussian 16:  ES64L-G16RevA.03 25-Dec-2016

 -------------------------------------
 # td=(NStates=1) CAM-B3LYP/6-31G(d,p)
 -------------------------------------

 --
 TD
 --
 Symbolic Z-matrix:
 Charge =  0 Multiplicity = 1

                         Standard orientation:
 ---------------------------------------------------------------------
 Center     Atomic      Atomic             Coordinates (Angstroms)
 Number     Number       Type             X           Y           Z
 ---------------------------------------------------------------------
      1          8           0      -14.249491   -2.021338    0.524059
      2          8           0       14.847860    0.580553    0.280038
      3          6           0      -11.659046   -0.004249    1.313113
      4          6           0      -10.928582    0.238488    0.073158
      5          6           0      -11.967876   -1.500719    1.443917
      6          6           0      -12.858751   -2.185291    0.287028
      7          6           0      -11.618035   -0.520542   -1.139690
      8          6           0       11.084826    0.972412    1.020616
      9          6           0      -11.021769    0.529718    2.506705
     10          6           0      -12.996824    0.742366    1.291336
     11          6           0       12.490303    1.431101    0.784633
     12          6           0      -12.465394   -1.555090   -0.994611
     13          6           0       13.421006    0.198387    0.463610
     14          6           0       10.571191   -0.076274    0.019990
     15          6           0       -9.448830   -0.083336    0.004096
     16          6           0       12.989995   -0.407976   -0.847516
     17          6           0       11.476062   -0.563330   -0.899319
     18          6           0       10.270707    2.347766    0.924208
     19          6           0       10.877585    0.587651    2.517823
     20          6           0      -11.212974    0.060222   -2.500310
     21          6           0       -8.483788    0.828644   -0.193325
     22          6           0        9.225235   -0.442309   -0.025805
     23          6           0       11.161030   -1.423094   -2.096047
     24          6           0       -7.120928    0.517344   -0.142564
     25          6           0        8.818932   -1.683453   -0.085312
     26          6           0       -6.632702   -0.917296    0.077503
     27          6           0        7.373864   -2.092776   -0.006793
     28          6           0       -6.215786    1.493945   -0.511459
     29          6           0        7.048714   -3.633553    0.293495
     30          6           0        6.394386   -1.150071   -0.229995
     31          6           0       -4.766131    1.468873   -0.477787
     32          6           0        4.988643   -1.471922   -0.116605
     33          6           0       -3.983296    2.628882   -0.670416
     34          6           0       -2.570478    2.756997   -0.681987
     35          6           0        4.040033   -0.545823   -0.305883
     36          6           0        2.631931   -0.784933   -0.230082
     37          6           0       -2.025126    4.085986   -0.857479
     38          6           0       -1.720796    1.649614   -0.510860
     39          6           0        1.777934    0.388385   -0.346562
     40          6           0        2.152465   -2.074992   -0.016070
     41          6           0       -0.395884    1.576185   -0.622949
     42          6           0        0.311636    0.414005   -0.448700
     43          1           0      -11.103515    1.305867   -0.165142
     44          1           0      -12.533524   -1.907065    2.225298
     45          1           0      -11.075544   -2.168857    1.335389
     46          1           0      -12.809552   -3.374181    0.361023
     47          1           0      -10.075962    0.052513    2.677646
     48          1           0      -10.730829    1.489442    2.511862
     49          1           0      -11.681185    0.419054    3.440508
     50          1           0      -13.441974    0.818573    0.384811
     51          1           0      -13.588002    0.470570    2.130856
     52          1           0      -12.640551    1.875110    1.301310
     53          1           0       12.737106    1.967102   -0.059011
     54          1           0       13.131805    1.572034    1.775416
     55          1           0      -12.765853   -2.113130   -2.027870
     56          1           0       13.582862   -0.626530    1.018312
     57          1           0       -9.019406   -1.051755    0.227336
     58          1           0       13.497168   -1.405591   -1.087239
     59          1           0       13.212805    0.427058   -1.718474
     60          1           0        9.198885    2.352681    1.231745
     61          1           0       10.420702    2.682743   -0.221042
     62          1           0       10.592371    3.122952    1.555403
     63          1           0       11.351427   -0.383344    2.739054
     64          1           0        9.718904    0.353637    2.720724
     65          1           0       11.380787    1.427864    3.289794
     66          1           0      -10.056321    0.120816   -2.546277
     67          1           0      -11.500191    1.063507   -2.693450
     68          1           0      -11.391094   -0.498638   -3.374784
     69          1           0      -14.764731   -1.961336   -0.469686
     70          1           0        8.518482    0.335369    0.095131
     71          1           0       -8.719374    1.817500   -0.422303
     72          1           0       11.179691   -2.503112   -1.649396
     73          1           0       10.170013   -1.387424   -2.292634
     74          1           0       11.941652   -1.297226   -2.942794
     75          1           0       15.271242    1.157918    0.878419
     76          1           0        9.445372   -2.534987   -0.326031
     77          1           0       -5.509899   -0.930561    0.116709
     78          1           0       -7.012182   -1.388090    0.992742
     79          1           0       -6.922360   -1.613938   -0.650531
     80          1           0       -6.577753    2.468880   -0.528282
     81          1           0        6.581805   -3.692794    1.270872
     82          1           0        6.424053   -4.167741   -0.537363
     83          1           0        7.995748   -4.059238    0.313911
     84          1           0        6.842821   -0.183574   -0.230894
     85          1           0       -4.260699    0.735845   -0.240675
     86          1           0        4.785313   -2.493425    0.071399
     87          1           0       -4.526054    3.430586   -0.900565
     88          1           0        4.478977    0.556588   -0.431182
     89          1           0       -1.254889    4.167177   -1.752690
     90          1           0       -1.362270    4.318838    0.039571
     91          1           0       -2.758628    4.918798   -0.962183
     92          1           0       -2.216980    0.653170   -0.365194
     93          1           0        2.331733    1.450346   -0.388247
     94          1           0        2.754378   -2.418249    0.892490
     95          1           0        1.058649   -1.924506    0.188593
     96          1           0        2.651939   -2.757069   -0.729989
     97          1           0        0.299110    2.608325   -0.665566
     98          1           0       -0.124311   -0.571867   -0.218234
 ---------------------------------------------------------------------

 SCF Done:  E(RCAM-B3LYP) =  -1706.95209956     A.U. after   15 cycles

 Excitation energies and oscillator strengths:

 Excited State   1:      Singlet-A      2.1458 eV  577.80 nm  f=2.8495  <S**2>=0.000
     155 ->158        -0.13565
     156 ->157         0.69623
 This state for optimization and/or second-order correction.
 Total Energy, E(TD-HF/TD-DFT) =  -1706.87324269
 Copying the excited state density for this state as the 1-particle RhoCI density.

 The electronic state is 1-A.
 Alpha  occ. eigenvalues --  -19.21068 -19.19093 -10.31081 -10.29384 -10.28469
 Alpha  occ. eigenvalues --  -10.27919 -10.27723 -10.27543 -10.27500 -10.27333
 Alpha  occ. eigenvalues --  -10.27256 -10.27220 -10.27194 -10.27162 -10.27031
 Alpha  occ. eigenvalues --  -10.26950 -10.26556 -10.26460 -10.26444 -10.26437
 Alpha  occ. eigenvalues --  -10.26268 -10.26218 -10.26174 -10.26101 -10.25946
 Alpha  occ. eigenvalues --  -10.25916 -10.25879 -10.25862 -10.25830 -10.25726
 Alpha  occ. eigenvalues --  -10.25546 -10.25543 -10.25462 -10.25426 -10.25289
 Alpha  occ. eigenvalues --  -10.25137 -10.25085 -10.25058 -10.25054 -10.24572
 Alpha  occ. eigenvalues --  -10.23023 -10.22665  -1.06734  -1.06577  -0.94452
 Alpha  occ. eigenvalues --   -0.94140  -0.92665  -0.92172  -0.91173  -0.90223
 Alpha  occ. eigenvalues --   -0.87881  -0.87072  -0.86821  -0.86142  -0.84924
 Alpha  occ. eigenvalues --   -0.83008  -0.82248  -0.80620  -0.80324  -0.78817
 Alpha  occ. eigenvalues --   -0.77357  -0.76775  -0.76508  -0.75922  -0.75611
 Alpha  occ. eigenvalues --   -0.75425  -0.75157  -0.74585  -0.72844  -0.70819
 Alpha  occ. eigenvalues --   -0.69508  -0.67244  -0.66906  -0.65868  -0.64846
 Alpha  occ. eigenvalues --   -0.63785  -0.63287  -0.62525  -0.60861  -0.60150
 Alpha  occ. eigenvalues --   -0.59816  -0.58396  -0.57759  -0.56865  -0.55950
 Alpha  occ. eigenvalues --   -0.55764  -0.55382  -0.54933  -0.54656  -0.53946
 Alpha  occ. eigenvalues --   -0.53773  -0.53068  -0.52600  -0.51879  -0.51657
 Alpha  occ. eigenvalues --   -0.50632  -0.50419  -0.49957  -0.49787  -0.49075
 Alpha  occ. eigenvalues --   -0.48852  -0.48591  -0.48178  -0.48150  -0.47940
 Alpha  occ. eigenvalues --   -0.47522  -0.47360  -0.47130  -0.46864  -0.46578
 Alpha  occ. eigenvalues --   -0.46358  -0.46100  -0.45453  -0.45394  -0.45155
 Alpha  occ. eigenvalues --   -0.44723  -0.44379  -0.44161  -0.43910  -0.43459
 Alpha  occ. eigenvalues --   -0.43206  -0.42866  -0.42567  -0.42509  -0.41932
 Alpha  occ. eigenvalues --   -0.41611  -0.41462  -0.41339  -0.40908  -0.40708
 Alpha  occ. eigenvalues --   -0.40478  -0.40440  -0.40143  -0.39907  -0.39707
 Alpha  occ. eigenvalues --   -0.39426  -0.39015  -0.38559  -0.38450  -0.38241
 Alpha  occ. eigenvalues --   -0.37710  -0.37620  -0.36839  -0.36482  -0.35789
 Alpha  occ. eigenvalues --   -0.35228  -0.33857  -0.33211  -0.31936  -0.31429
 Alpha  occ. eigenvalues --   -0.30676  -0.29891  -0.28847  -0.26589  -0.23919
 Alpha  occ. eigenvalues --   -0.19370
 Alpha virt. eigenvalues --   -0.05944  -0.00724   0.02522   0.05272   0.06439
 Alpha virt. eigenvalues --    0.08616   0.10898   0.11377   0.11724   0.12060
 Alpha virt. eigenvalues --    0.12356   0.13089   0.13286   0.13549   0.13831

 Mulliken charges:
               1
     1  O   -0.565620
     2  O   -0.604915
     3  C    0.028215
     4  C   -0.132524
     5  C   -0.192675
     6  C    0.161732
     7  C    0.106111
     8  C   -0.008593
     9  C   -0.287245
    10  C   -0.268769
    11  C   -0.180532
    12  C   -0.153994
    13  C    0.161532
    14  C    0.072690
    15  C   -0.088955
    16  C   -0.218456
    17  C    0.036958
    18  C   -0.299822
    19  C   -0.291764
    20  C   -0.369155
    21  C   -0.060976
    22  C   -0.115270
    23  C   -0.352986
    24  C    0.116491
    25  C   -0.087191
    26  C   -0.388993
    27  C    0.022872
    28  C   -0.143979
    29  C   -0.365666
    30  C   -0.085560
    31  C   -0.009628
    32  C   -0.096545
    33  C   -0.134661
    34  C    0.132725
    35  C   -0.095621
    36  C    0.118449
    37  C   -0.393442
    38  C   -0.122191
    39  C   -0.137992
    40  C   -0.380358
    41  C   -0.065344
    42  C   -0.094103
    43  H    0.091380
    44  H    0.113427
    45  H    0.090214
    46  H    0.067765
    47  H    0.091289
    48  H    0.107808
    49  H    0.088865
    50  H    0.107108
    51  H    0.117385
    52  H    0.053851
    53  H    0.121787
    54  H    0.088682
    55  H    0.062564
    56  H    0.099706
    57  H    0.083702
    58  H    0.109708
    59  H    0.092479
    60  H    0.090652
    61  H    0.078221
    62  H    0.114932
    63  H    0.103063
    64  H    0.092949
    65  H    0.081214
    66  H    0.109001
    67  H    0.120915
    68  H    0.115225
    69  H    0.303551
    70  H    0.095658
    71  H    0.074967
    72  H    0.101863
    73  H    0.127527
    74  H    0.112008
    75  H    0.294095
    76  H    0.082590
    77  H    0.107445
    78  H    0.118212
    79  H    0.133797
    80  H    0.077631
    81  H    0.132304
    82  H    0.112747
    83  H    0.112808
    84  H    0.072422
    85  H    0.037684
    86  H    0.078649
    87  H    0.064378
    88  H    0.077954
    89  H    0.111442
    90  H    0.122942
    91  H    0.113040
    92  H    0.079556
    93  H    0.073018
    94  H    0.121100
    95  H    0.108491
    96  H    0.134239
    97  H    0.074659
    98  H    0.085081
 Sum of Mulliken charges =  -0.00000

 Dipole moment (field-independent basis, Debye):
    X=              1.1872    Y=              0.0190    Z=             -0.0620  Tot=              1.1889
 Quadrupole moment (field-independent basis, Debye-Ang):
   XX=           -294.9380   YY=           -243.8800   ZZ=           -263.3779
   XY=             -4.9681   XZ=             36.2716   YZ=              2.3102

 Normal termination of Gaussian 16 at Sat Jul 13 05:50:49 2019.
