 Gaussian 16, Revision A.03,
 Gaussian 16:  ES64L-G16RevA.03 25-Dec-2016

 -------------------------------------
 # td=(NStates=1) CAM-B3LYP/6-31G(d,p)
 -------------------------------------

 --
 TD
 --
 Symbolic Z-matrix:
 Charge =  0 Multiplicity = 1

                         Standard orientation:
 ---------------------------------------------------------------------
 Center     Atomic      Atomic             Coordinates (Angstroms)
 Number     Number       Type             X           Y           Z
 ---------------------------------------------------------------------
      1          8           0      -13.936868   -2.315817    0.562442
      2          8           0       14.737451    1.085177    0.352888
      3          6           0      -11.686291    0.008680    1.349982
      4          6           0      -10.850350    0.275672    0.106883
      5          6           0      -11.715095   -1.504010    1.523701
      6          6           0      -12.479820   -2.237881    0.364234
      7          6           0      -11.440626   -0.526719   -1.104756
      8          6           0       11.079608    0.905086    1.198760
      9          6           0      -11.085129    0.690718    2.569009
     10          6           0      -13.208380    0.642916    1.217226
     11          6           0       12.448945    1.477255    0.953478
     12          6           0      -12.010755   -1.712682   -0.932988
     13          6           0       13.436153    0.448602    0.546847
     14          6           0       10.602843   -0.136372    0.165301
     15          6           0       -9.384600    0.004874    0.270984
     16          6           0       12.987814   -0.276704   -0.772129
     17          6           0       11.472757   -0.642856   -0.774177
     18          6           0        9.993655    2.007447    1.304758
     19          6           0       11.034133    0.083995    2.593465
     20          6           0      -11.177905    0.107692   -2.441368
     21          6           0       -8.458860    0.924657    0.046376
     22          6           0        9.197881   -0.526705    0.121228
     23          6           0       11.141840   -1.415087   -1.989197
     24          6           0       -7.060920    0.630577   -0.103517
     25          6           0        8.705320   -1.717419   -0.071366
     26          6           0       -6.559421   -0.811718    0.060697
     27          6           0        7.321101   -2.103983   -0.164956
     28          6           0       -6.182485    1.718723   -0.307790
     29          6           0        6.961497   -3.664016   -0.044047
     30          6           0        6.280526   -1.184031   -0.320935
     31          6           0       -4.795111    1.620611   -0.426243
     32          6           0        4.917118   -1.422265   -0.425920
     33          6           0       -4.035260    2.729546   -0.670011
     34          6           0       -2.636336    2.824866   -0.889229
     35          6           0        3.930738   -0.512599   -0.660025
     36          6           0        2.554986   -0.746059   -0.572492
     37          6           0       -1.934626    4.188329   -1.037260
     38          6           0       -1.848229    1.649929   -0.715015
     39          6           0        1.690252    0.294529   -0.720168
     40          6           0        2.014262   -2.130678   -0.185682
     41          6           0       -0.412205    1.588917   -0.792182
     42          6           0        0.269399    0.335685   -0.565900
     43          1           0      -10.892631    1.251530   -0.154864
     44          1           0      -12.129825   -1.698531    2.547760
     45          1           0      -10.734521   -1.986348    1.475338
     46          1           0      -12.087306   -3.198999    0.570940
     47          1           0      -10.072187    0.156041    2.985358
     48          1           0      -10.882979    1.700325    2.303213
     49          1           0      -11.708409    0.453678    3.636609
     50          1           0      -13.497759    0.133117    0.108944
     51          1           0      -13.875370    0.370974    1.944947
     52          1           0      -13.169028    1.725908    1.092921
     53          1           0       12.309342    2.039093    0.153220
     54          1           0       12.672932    1.950970    1.964830
     55          1           0      -12.320544   -2.400567   -1.784365
     56          1           0       13.543742   -0.300254    1.254453
     57          1           0       -9.140318   -1.139113    0.441971
     58          1           0       13.652679   -1.262766   -0.669266
     59          1           0       13.197636    0.404507   -1.813615
     60          1           0        8.896902    1.519366    1.383459
     61          1           0       10.299062    2.723155    0.360321
     62          1           0       10.247086    2.657568    2.233547
     63          1           0       11.698552   -0.772569    2.411524
     64          1           0       10.147141   -0.196669    3.152850
     65          1           0       11.618191    0.961742    3.465282
     66          1           0      -10.096037    0.539270   -2.152283
     67          1           0      -11.972446    0.821461   -2.712686
     68          1           0      -11.023790   -0.557756   -3.226034
     69          1           0      -14.189639   -2.571475   -0.142085
     70          1           0        8.443004    0.150863    0.323286
     71          1           0       -8.716232    1.934205   -0.176588
     72          1           0       11.646051   -2.373743   -1.900585
     73          1           0       10.119024   -1.472142   -2.268017
     74          1           0       11.762406   -1.131371   -2.829993
     75          1           0       15.031115    1.710085    1.226696
     76          1           0        9.297892   -2.633234   -0.034663
     77          1           0       -5.587172   -1.023210    0.377599
     78          1           0       -6.941296   -1.502837    0.975690
     79          1           0       -6.964735   -1.452205   -0.774825
     80          1           0       -6.470998    2.691389   -0.633353
     81          1           0        6.833470   -3.890885    1.151578
     82          1           0        5.887893   -4.067947   -0.581886
     83          1           0        7.903270   -4.149694   -0.631679
     84          1           0        6.514039   -0.137615   -0.472169
     85          1           0       -4.279366    0.661853   -0.159819
     86          1           0        4.690626   -2.437800   -0.054135
     87          1           0       -4.542781    3.645061   -0.799841
     88          1           0        4.216266    0.517487   -0.930901
     89          1           0       -1.482410    4.210418   -2.023285
     90          1           0       -1.115643    4.098587   -0.289787
     91          1           0       -2.678668    5.109983   -0.814112
     92          1           0       -2.184949    0.679719   -0.802272
     93          1           0        2.178633    1.227797   -0.994025
     94          1           0        1.972009   -2.260086    1.185940
     95          1           0        0.922187   -2.077046   -0.481933
     96          1           0        2.525493   -2.928604   -0.641035
     97          1           0       -0.070463    2.614954   -1.154059
     98          1           0       -0.274378   -0.517650   -0.180185
 ---------------------------------------------------------------------

 SCF Done:  E(RCAM-B3LYP) =  -1706.88603181     A.U. after   15 cycles

 Excitation energies and oscillator strengths:

 Excited State   1:      Singlet-A      2.0566 eV  602.87 nm  f=2.9973  <S**2>=0.000
     155 ->158        -0.14555
     156 ->157         0.69293
 This state for optimization and/or second-order correction.
 Total Energy, E(TD-HF/TD-DFT) =  -1706.81045454
 Copying the excited state density for this state as the 1-particle RhoCI density.

 The electronic state is 1-A.
 Alpha  occ. eigenvalues --  -19.21426 -19.19285 -10.30084 -10.29962 -10.29882
 Alpha  occ. eigenvalues --  -10.28503 -10.28487 -10.28162 -10.27974 -10.27962
 Alpha  occ. eigenvalues --  -10.27912 -10.27892 -10.27841 -10.27607 -10.27558
 Alpha  occ. eigenvalues --  -10.27511 -10.27327 -10.27182 -10.27023 -10.26797
 Alpha  occ. eigenvalues --  -10.26768 -10.26483 -10.26472 -10.26425 -10.26271
 Alpha  occ. eigenvalues --  -10.26047 -10.25981 -10.25948 -10.25914 -10.25889
 Alpha  occ. eigenvalues --  -10.25872 -10.25700 -10.25581 -10.25565 -10.25525
 Alpha  occ. eigenvalues --  -10.25468 -10.25393 -10.24992 -10.24766 -10.24357
 Alpha  occ. eigenvalues --  -10.24308 -10.24259  -1.12361  -1.05574  -0.94153
 Alpha  occ. eigenvalues --   -0.93717  -0.92183  -0.91803  -0.90447  -0.89985
 Alpha  occ. eigenvalues --   -0.87571  -0.86882  -0.86285  -0.85964  -0.84650
 Alpha  occ. eigenvalues --   -0.83445  -0.82287  -0.80613  -0.79835  -0.77673
 Alpha  occ. eigenvalues --   -0.76961  -0.76467  -0.76050  -0.75392  -0.75198
 Alpha  occ. eigenvalues --   -0.74549  -0.74162  -0.73468  -0.72398  -0.70580
 Alpha  occ. eigenvalues --   -0.69079  -0.68428  -0.66237  -0.65009  -0.63489
 Alpha  occ. eigenvalues --   -0.63190  -0.62661  -0.62147  -0.61128  -0.60402
 Alpha  occ. eigenvalues --   -0.59507  -0.59235  -0.58549  -0.57619  -0.56743
 Alpha  occ. eigenvalues --   -0.55891  -0.54934  -0.54685  -0.54252  -0.53798
 Alpha  occ. eigenvalues --   -0.53424  -0.52998  -0.52613  -0.52431  -0.50870
 Alpha  occ. eigenvalues --   -0.50519  -0.50356  -0.49826  -0.49576  -0.49070
 Alpha  occ. eigenvalues --   -0.48862  -0.48524  -0.47997  -0.47768  -0.47655
 Alpha  occ. eigenvalues --   -0.47289  -0.46952  -0.46522  -0.46452  -0.46062
 Alpha  occ. eigenvalues --   -0.46002  -0.45621  -0.45401  -0.44809  -0.44710
 Alpha  occ. eigenvalues --   -0.44376  -0.44189  -0.43895  -0.43619  -0.43481
 Alpha  occ. eigenvalues --   -0.43233  -0.42721  -0.41975  -0.41864  -0.41553
 Alpha  occ. eigenvalues --   -0.41471  -0.41332  -0.41149  -0.41082  -0.40836
 Alpha  occ. eigenvalues --   -0.40121  -0.39971  -0.39575  -0.39418  -0.39288
 Alpha  occ. eigenvalues --   -0.39140  -0.38695  -0.38492  -0.38201  -0.37950
 Alpha  occ. eigenvalues --   -0.37540  -0.37172  -0.36385  -0.35956  -0.35749
 Alpha  occ. eigenvalues --   -0.35354  -0.34604  -0.33618  -0.32300  -0.32204
 Alpha  occ. eigenvalues --   -0.31900  -0.29755  -0.29153  -0.26920  -0.23584
 Alpha  occ. eigenvalues --   -0.19378
 Alpha virt. eigenvalues --   -0.06314  -0.01446   0.02383   0.05313   0.06638
 Alpha virt. eigenvalues --    0.08639   0.09620   0.10522   0.11123   0.11434
 Alpha virt. eigenvalues --    0.11994   0.12082   0.12518   0.12794   0.13227

 Mulliken charges:
               1
     1  O   -0.496545
     2  O   -0.587881
     3  C    0.032864
     4  C   -0.130589
     5  C   -0.190208
     6  C    0.122679
     7  C    0.107213
     8  C   -0.042376
     9  C   -0.284032
    10  C   -0.285280
    11  C   -0.157757
    12  C   -0.155401
    13  C    0.190484
    14  C    0.075870
    15  C   -0.065076
    16  C   -0.234285
    17  C    0.053368
    18  C   -0.279047
    19  C   -0.272042
    20  C   -0.351385
    21  C   -0.082754
    22  C   -0.112496
    23  C   -0.358330
    24  C    0.102818
    25  C   -0.080844
    26  C   -0.375473
    27  C    0.051838
    28  C   -0.133055
    29  C   -0.341795
    30  C   -0.113074
    31  C   -0.042486
    32  C   -0.085229
    33  C   -0.119661
    34  C    0.066530
    35  C   -0.117481
    36  C    0.126311
    37  C   -0.379844
    38  C   -0.109624
    39  C   -0.116049
    40  C   -0.332793
    41  C   -0.094357
    42  C   -0.122180
    43  H    0.083244
    44  H    0.095400
    45  H    0.095144
    46  H    0.087557
    47  H    0.073456
    48  H    0.102898
    49  H    0.070896
    50  H    0.077680
    51  H    0.122116
    52  H    0.089176
    53  H    0.109573
    54  H    0.083469
    55  H    0.071862
    56  H    0.091064
    57  H    0.084884
    58  H    0.103413
    59  H    0.100264
    60  H    0.103259
    61  H    0.079648
    62  H    0.092799
    63  H    0.107690
    64  H    0.122812
    65  H    0.016481
    66  H    0.097144
    67  H    0.128759
    68  H    0.122595
    69  H    0.262038
    70  H    0.079785
    71  H    0.087158
    72  H    0.112834
    73  H    0.127018
    74  H    0.110540
    75  H    0.302907
    76  H    0.075323
    77  H    0.123488
    78  H    0.088767
    79  H    0.126553
    80  H    0.084434
    81  H    0.114947
    82  H    0.097100
    83  H    0.102750
    84  H    0.072328
    85  H    0.084805
    86  H    0.075955
    87  H    0.069570
    88  H    0.079091
    89  H    0.137371
    90  H    0.136957
    91  H    0.104506
    92  H    0.086640
    93  H    0.080115
    94  H    0.064028
    95  H    0.103436
    96  H    0.126189
    97  H    0.087347
    98  H    0.102188
 Sum of Mulliken charges =  -0.00000

 Dipole moment (field-independent basis, Debye):
    X=              0.5490    Y=              0.0156    Z=             -0.8284  Tot=              0.9940
 Quadrupole moment (field-independent basis, Debye-Ang):
   XX=           -311.3556   YY=           -244.3217   ZZ=           -262.5762
   XY=             -2.2920   XZ=             37.4079   YZ=              1.8811

 Normal termination of Gaussian 16 at Sat Jul 13 05:56:05 2019.
