 Gaussian 16, Revision A.03,
 Gaussian 16:  ES64L-G16RevA.03 25-Dec-2016

 -------------------------------------
 # td=(NStates=1) CAM-B3LYP/6-31G(d,p)
 -------------------------------------

 --
 TD
 --
 Symbolic Z-matrix:
 Charge =  0 Multiplicity = 1

                         Standard orientation:
 ---------------------------------------------------------------------
 Center     Atomic      Atomic             Coordinates (Angstroms)
 Number     Number       Type             X           Y           Z
 ---------------------------------------------------------------------
      1          8           0      -13.998978   -2.111657    0.558850
      2          8           0       14.826880    1.049833    0.247860
      3          6           0      -11.626144   -0.085407    1.294242
      4          6           0      -11.020603    0.386954    0.019756
      5          6           0      -11.931896   -1.518157    1.401952
      6          6           0      -12.683070   -2.078687    0.189709
      7          6           0      -11.668689   -0.271844   -1.222123
      8          6           0       11.002633    1.006918    1.109019
      9          6           0      -10.871833    0.488725    2.518454
     10          6           0      -13.000288    0.828077    1.285820
     11          6           0       12.416547    1.441265    0.875547
     12          6           0      -12.362265   -1.360816   -1.085084
     13          6           0       13.481918    0.437769    0.405672
     14          6           0       10.649436   -0.055347   -0.031657
     15          6           0       -9.563859    0.027161   -0.024774
     16          6           0       12.983769    0.043316   -0.971731
     17          6           0       11.622823   -0.363957   -1.051384
     18          6           0       10.111437    2.188588    1.106739
     19          6           0       10.815646    0.393525    2.388111
     20          6           0      -11.363065    0.373744   -2.450318
     21          6           0       -8.532555    0.885990   -0.143112
     22          6           0        9.197650   -0.560637    0.031890
     23          6           0       11.268850   -1.320806   -2.198018
     24          6           0       -7.100482    0.549015   -0.350900
     25          6           0        8.850640   -1.860017   -0.133815
     26          6           0       -6.752075   -0.901894    0.079422
     27          6           0        7.424610   -2.208688   -0.112044
     28          6           0       -6.177770    1.489223   -0.614020
     29          6           0        7.163905   -3.701680    0.057223
     30          6           0        6.464276   -1.297725   -0.323124
     31          6           0       -4.833191    1.346400   -0.461160
     32          6           0        5.090504   -1.573019   -0.167867
     33          6           0       -4.035102    2.505644   -0.763324
     34          6           0       -2.551197    2.559385   -0.616883
     35          6           0        4.049062   -0.631814   -0.337579
     36          6           0        2.655448   -0.878045   -0.106165
     37          6           0       -2.027417    3.955091   -0.855760
     38          6           0       -1.753713    1.456671   -0.369491
     39          6           0        1.751152    0.218163   -0.274438
     40          6           0        2.177952   -2.194685    0.300284
     41          6           0       -0.392333    1.423047   -0.227756
     42          6           0        0.346916    0.258670   -0.242456
     43          1           0      -11.123800    1.388397   -0.141722
     44          1           0      -12.668096   -1.823866    2.127784
     45          1           0      -10.995365   -2.089845    1.652497
     46          1           0      -12.283522   -3.135415    0.243565
     47          1           0       -9.830913    0.161456    2.555762
     48          1           0      -10.859469    1.548571    2.479497
     49          1           0      -11.226904    0.218878    3.490023
     50          1           0      -13.542072    0.640750    0.388928
     51          1           0      -13.629253    0.434834    2.252004
     52          1           0      -12.718826    2.115486    1.387656
     53          1           0       12.234619    2.316422    0.142083
     54          1           0       12.858378    1.994694    1.725394
     55          1           0      -12.701865   -1.909159   -1.859360
     56          1           0       13.478530   -0.389709    1.172534
     57          1           0       -9.433373   -1.006845    0.284646
     58          1           0       13.416471   -0.860810   -1.409559
     59          1           0       13.298755    1.182727   -1.454431
     60          1           0        9.144006    1.815004    1.284727
     61          1           0       10.297748    2.746048    0.202409
     62          1           0       10.510728    2.910849    1.960738
     63          1           0       11.483337   -0.447201    2.596643
     64          1           0        9.895911   -0.130786    2.504501
     65          1           0       10.708217    1.094284    3.194499
     66          1           0      -10.259568    0.250520   -2.789664
     67          1           0      -11.720149    1.322166   -2.603806
     68          1           0      -11.807035   -0.253053   -3.206683
     69          1           0      -14.567192   -2.422843   -0.279342
     70          1           0        8.586146    0.370603    0.481701
     71          1           0       -8.680929    1.861909   -0.453365
     72          1           0       11.587796   -2.357107   -1.798793
     73          1           0       10.168869   -1.278606   -2.254402
     74          1           0       11.704403   -0.824241   -3.065078
     75          1           0       15.165372    1.203260    1.186257
     76          1           0        9.438117   -2.766223   -0.470818
     77          1           0       -5.736511   -1.244655   -0.079968
     78          1           0       -7.230516   -0.888321    0.981340
     79          1           0       -7.220547   -1.733072   -0.647769
     80          1           0       -6.585625    2.523224   -0.966969
     81          1           0        6.738725   -3.924473    1.119559
     82          1           0        6.219445   -4.053149   -0.655218
     83          1           0        8.109010   -4.279803   -0.246233
     84          1           0        6.555441   -0.378044   -0.239930
     85          1           0       -4.126669    0.532801   -0.461338
     86          1           0        4.867461   -2.644460    0.038862
     87          1           0       -4.553712    3.534807   -0.920083
     88          1           0        4.356280    0.393010   -0.631334
     89          1           0       -1.696706    3.978117   -2.025665
     90          1           0       -1.134897    4.018102   -0.103044
     91          1           0       -2.720613    4.800536   -0.824292
     92          1           0       -2.331871    0.464233   -0.131016
     93          1           0        2.189873    1.373240   -0.355477
     94          1           0        2.505909   -2.422844    1.308487
     95          1           0        1.017507   -2.462660   -0.003669
     96          1           0        2.755318   -2.843117   -0.318320
     97          1           0        0.114124    2.251874   -0.334428
     98          1           0       -0.309462   -0.782596   -0.057167
 ---------------------------------------------------------------------

 SCF Done:  E(RCAM-B3LYP) =  -1706.91586072     A.U. after   15 cycles

 Excitation energies and oscillator strengths:

 Excited State   1:      Singlet-A      2.1257 eV  583.26 nm  f=3.0324  <S**2>=0.000
     155 ->158        -0.15072
     156 ->157         0.69166
 This state for optimization and/or second-order correction.
 Total Energy, E(TD-HF/TD-DFT) =  -1706.83774189
 Copying the excited state density for this state as the 1-particle RhoCI density.

 The electronic state is 1-A.
 Alpha  occ. eigenvalues --  -19.22483 -19.22045 -10.31382 -10.30107 -10.28211
 Alpha  occ. eigenvalues --  -10.28164 -10.27690 -10.27635 -10.27544 -10.27339
 Alpha  occ. eigenvalues --  -10.27285 -10.27254 -10.27179 -10.27026 -10.26894
 Alpha  occ. eigenvalues --  -10.26876 -10.26840 -10.26661 -10.26380 -10.26302
 Alpha  occ. eigenvalues --  -10.26277 -10.26255 -10.26251 -10.26171 -10.26133
 Alpha  occ. eigenvalues --  -10.26122 -10.25970 -10.25951 -10.25854 -10.25732
 Alpha  occ. eigenvalues --  -10.25398 -10.25176 -10.24987 -10.24981 -10.24943
 Alpha  occ. eigenvalues --  -10.24854 -10.24571 -10.24201 -10.23848 -10.23177
 Alpha  occ. eigenvalues --  -10.22806 -10.22803  -1.10588  -1.07244  -0.94652
 Alpha  occ. eigenvalues --   -0.94231  -0.91965  -0.91570  -0.90670  -0.89603
 Alpha  occ. eigenvalues --   -0.88876  -0.87846  -0.86872  -0.85401  -0.84604
 Alpha  occ. eigenvalues --   -0.82805  -0.82272  -0.80187  -0.79935  -0.78341
 Alpha  occ. eigenvalues --   -0.77283  -0.77033  -0.76131  -0.75997  -0.75626
 Alpha  occ. eigenvalues --   -0.75426  -0.74724  -0.73312  -0.72233  -0.69544
 Alpha  occ. eigenvalues --   -0.68646  -0.67956  -0.66338  -0.64481  -0.64251
 Alpha  occ. eigenvalues --   -0.63055  -0.62539  -0.61805  -0.61098  -0.60271
 Alpha  occ. eigenvalues --   -0.59644  -0.58800  -0.58656  -0.57240  -0.56431
 Alpha  occ. eigenvalues --   -0.55812  -0.55193  -0.54564  -0.54389  -0.53857
 Alpha  occ. eigenvalues --   -0.53250  -0.53161  -0.52978  -0.52607  -0.51173
 Alpha  occ. eigenvalues --   -0.50655  -0.50313  -0.49992  -0.49751  -0.49534
 Alpha  occ. eigenvalues --   -0.49331  -0.49010  -0.48600  -0.47973  -0.47738
 Alpha  occ. eigenvalues --   -0.47481  -0.46970  -0.46906  -0.46685  -0.46494
 Alpha  occ. eigenvalues --   -0.46054  -0.45885  -0.45471  -0.45013  -0.44802
 Alpha  occ. eigenvalues --   -0.44446  -0.43519  -0.43437  -0.43425  -0.43292
 Alpha  occ. eigenvalues --   -0.43141  -0.42886  -0.42476  -0.42115  -0.42100
 Alpha  occ. eigenvalues --   -0.41674  -0.41269  -0.40819  -0.40814  -0.40122
 Alpha  occ. eigenvalues --   -0.40015  -0.39883  -0.39742  -0.39684  -0.39408
 Alpha  occ. eigenvalues --   -0.39222  -0.38908  -0.38720  -0.38456  -0.37733
 Alpha  occ. eigenvalues --   -0.37437  -0.36859  -0.36303  -0.35722  -0.35478
 Alpha  occ. eigenvalues --   -0.34239  -0.33587  -0.33345  -0.32672  -0.32080
 Alpha  occ. eigenvalues --   -0.31452  -0.30491  -0.28560  -0.26097  -0.23533
 Alpha  occ. eigenvalues --   -0.18988
 Alpha virt. eigenvalues --   -0.05617  -0.00989   0.02460   0.05418   0.06722
 Alpha virt. eigenvalues --    0.08463   0.10539   0.11008   0.11284   0.11412
 Alpha virt. eigenvalues --    0.12061   0.12751   0.12896   0.13155   0.13460

 Mulliken charges:
               1
     1  O   -0.538534
     2  O   -0.563018
     3  C    0.016706
     4  C   -0.105302
     5  C   -0.201592
     6  C    0.150703
     7  C    0.129829
     8  C   -0.003194
     9  C   -0.300302
    10  C   -0.279041
    11  C   -0.186866
    12  C   -0.128882
    13  C    0.147300
    14  C    0.031183
    15  C   -0.060887
    16  C   -0.194604
    17  C    0.026760
    18  C   -0.292104
    19  C   -0.292856
    20  C   -0.377424
    21  C   -0.110546
    22  C   -0.120216
    23  C   -0.357623
    24  C    0.083886
    25  C   -0.098247
    26  C   -0.357255
    27  C    0.075736
    28  C   -0.118639
    29  C   -0.367942
    30  C   -0.034353
    31  C   -0.050821
    32  C   -0.118725
    33  C   -0.145441
    34  C    0.084736
    35  C   -0.117615
    36  C    0.109614
    37  C   -0.360686
    38  C   -0.109448
    39  C   -0.139324
    40  C   -0.372619
    41  C   -0.062775
    42  C   -0.069959
    43  H    0.086598
    44  H    0.128020
    45  H    0.087439
    46  H    0.064209
    47  H    0.090385
    48  H    0.101050
    49  H    0.100865
    50  H    0.114562
    51  H    0.082845
    52  H    0.049322
    53  H    0.080219
    54  H    0.069879
    55  H    0.063280
    56  H    0.085195
    57  H    0.087755
    58  H    0.100048
    59  H    0.107943
    60  H    0.101933
    61  H    0.109225
    62  H    0.089157
    63  H    0.092351
    64  H    0.104016
    65  H    0.095497
    66  H    0.120754
    67  H    0.128251
    68  H    0.107699
    69  H    0.306476
    70  H    0.095772
    71  H    0.069619
    72  H    0.114819
    73  H    0.126852
    74  H    0.122529
    75  H    0.309393
    76  H    0.097610
    77  H    0.110673
    78  H    0.136833
    79  H    0.090707
    80  H    0.080082
    81  H    0.124111
    82  H    0.098532
    83  H    0.102423
    84  H    0.054156
    85  H    0.098400
    86  H    0.068857
    87  H    0.074546
    88  H    0.083973
    89  H    0.108080
    90  H    0.110132
    91  H    0.121940
    92  H    0.070738
    93  H    0.065647
    94  H    0.134478
    95  H    0.098902
    96  H    0.124054
    97  H    0.070175
    98  H    0.061384
 Sum of Mulliken charges =  -0.00000

 Dipole moment (field-independent basis, Debye):
    X=             -0.6518    Y=             -1.1493    Z=             -0.1661  Tot=              1.3316
 Quadrupole moment (field-independent basis, Debye-Ang):
   XX=           -265.0414   YY=           -243.9965   ZZ=           -262.5261
   XY=              0.3370   XZ=             47.6261   YZ=              1.1745

 Normal termination of Gaussian 16 at Tue Jul 16 12:42:08 2019.
