 Gaussian 16, Revision A.03,
 Gaussian 16:  ES64L-G16RevA.03 25-Dec-2016

 -------------------------------------
 # td=(NStates=1) CAM-B3LYP/6-31G(d,p)
 -------------------------------------

 --
 TD
 --
 Symbolic Z-matrix:
 Charge =  0 Multiplicity = 1

                         Standard orientation:
 ---------------------------------------------------------------------
 Center     Atomic      Atomic             Coordinates (Angstroms)
 Number     Number       Type             X           Y           Z
 ---------------------------------------------------------------------
      1          8           0      -14.103906   -1.904742    0.616228
      2          8           0       14.879241    0.915401    0.139922
      3          6           0      -11.732672    0.110572    1.257944
      4          6           0      -10.950371    0.290787   -0.059848
      5          6           0      -12.092170   -1.329197    1.527604
      6          6           0      -12.711998   -2.123676    0.390241
      7          6           0      -11.566811   -0.488714   -1.114568
      8          6           0       11.093828    0.894104    1.139512
      9          6           0      -10.994662    0.671107    2.555307
     10          6           0      -13.023407    0.906442    1.261263
     11          6           0       12.450515    1.406708    0.886587
     12          6           0      -12.262149   -1.539805   -0.937971
     13          6           0       13.529687    0.376731    0.369233
     14          6           0       10.656640   -0.101413    0.022645
     15          6           0       -9.457449   -0.203735   -0.032019
     16          6           0       12.965085   -0.166202   -0.978441
     17          6           0       11.451553   -0.496290   -0.973560
     18          6           0       10.236116    2.301353    1.234011
     19          6           0       11.027810    0.176967    2.524736
     20          6           0      -11.128087   -0.075625   -2.591529
     21          6           0       -8.493838    0.638126   -0.238229
     22          6           0        9.266831   -0.445429    0.193662
     23          6           0       11.094659   -1.367944   -2.136932
     24          6           0       -7.114035    0.480310   -0.182137
     25          6           0        8.696936   -1.650839   -0.092184
     26          6           0       -6.619677   -0.980448    0.048014
     27          6           0        7.339079   -2.076589    0.034943
     28          6           0       -6.130368    1.505730   -0.303294
     29          6           0        7.214666   -3.588683    0.265296
     30          6           0        6.307621   -1.194172   -0.182511
     31          6           0       -4.794689    1.393311   -0.347040
     32          6           0        4.951366   -1.572192   -0.133163
     33          6           0       -4.031129    2.549728   -0.658273
     34          6           0       -2.648168    2.660631   -0.645536
     35          6           0        3.950067   -0.665177   -0.556699
     36          6           0        2.538904   -0.727416   -0.364112
     37          6           0       -1.969437    3.974335   -1.042970
     38          6           0       -1.756702    1.524806   -0.602499
     39          6           0        1.789045    0.312278   -0.605054
     40          6           0        2.006121   -2.008505    0.202762
     41          6           0       -0.367085    1.523841   -0.694774
     42          6           0        0.350766    0.422101   -0.531925
     43          1           0      -10.964257    1.336827   -0.533464
     44          1           0      -12.653162   -1.596821    2.409257
     45          1           0      -11.155943   -1.873780    1.855572
     46          1           0      -12.393623   -3.160065    0.455384
     47          1           0       -9.812735    0.475857    2.459333
     48          1           0      -10.956453    1.816012    2.388681
     49          1           0      -11.411456    0.288182    3.583145
     50          1           0      -13.597985    0.636069    0.696589
     51          1           0      -13.299862    0.850143    2.436103
     52          1           0      -13.035444    2.115888    0.947757
     53          1           0       12.482698    2.296982    0.379637
     54          1           0       12.716852    2.004405    1.867848
     55          1           0      -12.694263   -1.980054   -1.858750
     56          1           0       13.389765   -0.343224    1.207742
     57          1           0       -9.263804   -1.280637    0.252688
     58          1           0       13.476728   -0.989011   -1.322556
     59          1           0       13.157049    0.584303   -1.750256
     60          1           0        9.316377    2.000567    1.800603
     61          1           0       10.057377    2.802100    0.359439
     62          1           0       10.813311    2.794008    2.246090
     63          1           0       11.558203   -0.604666    2.677786
     64          1           0        9.985474   -0.077338    2.486176
     65          1           0       11.331878    0.843722    3.356627
     66          1           0      -10.028478   -0.169297   -2.759846
     67          1           0      -11.711317    0.830926   -2.896195
     68          1           0      -11.732303   -0.859100   -3.349756
     69          1           0      -14.591068   -2.314473   -0.270835
     70          1           0        8.574906    0.336237    0.566050
     71          1           0       -8.806292    1.733040   -0.165632
     72          1           0       11.195063   -2.340388   -2.019594
     73          1           0       10.143494   -1.462851   -2.330221
     74          1           0       11.635971   -1.201363   -3.065247
     75          1           0       15.040277    0.996263    0.972418
     76          1           0        9.548847   -2.441568   -0.083360
     77          1           0       -5.522798   -0.997167   -0.030875
     78          1           0       -6.933104   -1.437053    1.152934
     79          1           0       -7.158242   -1.545911   -0.768211
     80          1           0       -6.641552    2.481194   -0.346907
     81          1           0        7.248753   -3.963942    1.301778
     82          1           0        6.266786   -3.879374   -0.266770
     83          1           0        7.967341   -4.080548   -0.376731
     84          1           0        6.719273   -0.183948   -0.372353
     85          1           0       -4.122361    0.440382   -0.428675
     86          1           0        4.769936   -2.463771    0.237670
     87          1           0       -4.581149    3.514575   -0.753029
     88          1           0        4.461620    0.341997   -0.672848
     89          1           0       -1.430663    3.962087   -2.028078
     90          1           0       -1.094947    4.226575   -0.332331
     91          1           0       -2.743766    4.736165   -1.168444
     92          1           0       -2.316893    0.635252   -0.484925
     93          1           0        2.275458    1.115982   -0.959253
     94          1           0        2.417428   -2.362708    1.139599
     95          1           0        0.979282   -2.056779    0.031325
     96          1           0        2.637347   -2.718346   -0.291828
     97          1           0        0.121167    2.574269   -0.914480
     98          1           0       -0.271768   -0.378596   -0.166924
 ---------------------------------------------------------------------

 SCF Done:  E(RCAM-B3LYP) =  -1706.87286462     A.U. after   15 cycles

 Excitation energies and oscillator strengths:

 Excited State   1:      Singlet-A      2.0701 eV  598.93 nm  f=2.8905  <S**2>=0.000
     155 ->158         0.14547
     156 ->157         0.69492
 This state for optimization and/or second-order correction.
 Total Energy, E(TD-HF/TD-DFT) =  -1706.79679048
 Copying the excited state density for this state as the 1-particle RhoCI density.

 The electronic state is 1-A.
 Alpha  occ. eigenvalues --  -19.22351 -19.21222 -10.31450 -10.30343 -10.27797
 Alpha  occ. eigenvalues --  -10.27423 -10.27368 -10.27281 -10.27246 -10.27243
 Alpha  occ. eigenvalues --  -10.27236 -10.27018 -10.26995 -10.26865 -10.26841
 Alpha  occ. eigenvalues --  -10.26838 -10.26788 -10.26749 -10.26602 -10.26506
 Alpha  occ. eigenvalues --  -10.26505 -10.26289 -10.26215 -10.26199 -10.26198
 Alpha  occ. eigenvalues --  -10.26184 -10.26131 -10.26082 -10.26040 -10.25948
 Alpha  occ. eigenvalues --  -10.25815 -10.25752 -10.25308 -10.25022 -10.24742
 Alpha  occ. eigenvalues --  -10.24512 -10.24504 -10.24025 -10.24017 -10.23314
 Alpha  occ. eigenvalues --  -10.23073 -10.22706  -1.11942  -1.07936  -0.94203
 Alpha  occ. eigenvalues --   -0.93726  -0.92957  -0.91947  -0.91052  -0.90235
 Alpha  occ. eigenvalues --   -0.88031  -0.87514  -0.86877  -0.85924  -0.85007
 Alpha  occ. eigenvalues --   -0.83163  -0.82240  -0.80852  -0.79931  -0.79149
 Alpha  occ. eigenvalues --   -0.77623  -0.77145  -0.76429  -0.75977  -0.75418
 Alpha  occ. eigenvalues --   -0.75227  -0.74999  -0.74006  -0.73787  -0.70939
 Alpha  occ. eigenvalues --   -0.69802  -0.67680  -0.67222  -0.65968  -0.64290
 Alpha  occ. eigenvalues --   -0.63540  -0.63011  -0.62803  -0.61565  -0.60041
 Alpha  occ. eigenvalues --   -0.59216  -0.58803  -0.57849  -0.57603  -0.56799
 Alpha  occ. eigenvalues --   -0.55982  -0.55287  -0.55083  -0.54709  -0.54220
 Alpha  occ. eigenvalues --   -0.53613  -0.52988  -0.52817  -0.52398  -0.51936
 Alpha  occ. eigenvalues --   -0.51045  -0.50763  -0.49836  -0.49623  -0.49351
 Alpha  occ. eigenvalues --   -0.49230  -0.49123  -0.48661  -0.48084  -0.47927
 Alpha  occ. eigenvalues --   -0.47349  -0.47150  -0.46985  -0.46527  -0.46155
 Alpha  occ. eigenvalues --   -0.45868  -0.45723  -0.45522  -0.45229  -0.45129
 Alpha  occ. eigenvalues --   -0.45078  -0.44814  -0.44370  -0.43598  -0.43297
 Alpha  occ. eigenvalues --   -0.43209  -0.43015  -0.42548  -0.42326  -0.42036
 Alpha  occ. eigenvalues --   -0.41963  -0.41707  -0.41473  -0.41184  -0.40560
 Alpha  occ. eigenvalues --   -0.40009  -0.39972  -0.39704  -0.39581  -0.39379
 Alpha  occ. eigenvalues --   -0.39089  -0.38924  -0.38750  -0.38260  -0.38090
 Alpha  occ. eigenvalues --   -0.37701  -0.37381  -0.37186  -0.36291  -0.35450
 Alpha  occ. eigenvalues --   -0.34835  -0.34523  -0.34136  -0.32821  -0.32639
 Alpha  occ. eigenvalues --   -0.31869  -0.30577  -0.29674  -0.27644  -0.23390
 Alpha  occ. eigenvalues --   -0.19420
 Alpha virt. eigenvalues --   -0.06345  -0.01914   0.03098   0.05873   0.07712
 Alpha virt. eigenvalues --    0.09455   0.10763   0.11086   0.11819   0.12115
 Alpha virt. eigenvalues --    0.12786   0.13296   0.13679   0.13876   0.14572

 Mulliken charges:
               1
     1  O   -0.535163
     2  O   -0.514799
     3  C    0.030213
     4  C   -0.146079
     5  C   -0.192045
     6  C    0.140699
     7  C    0.125063
     8  C   -0.043373
     9  C   -0.311354
    10  C   -0.200704
    11  C   -0.187499
    12  C   -0.134196
    13  C    0.108928
    14  C    0.071286
    15  C   -0.094969
    16  C   -0.216535
    17  C    0.044429
    18  C   -0.300900
    19  C   -0.285437
    20  C   -0.352120
    21  C   -0.078151
    22  C   -0.121949
    23  C   -0.371077
    24  C    0.080505
    25  C   -0.133010
    26  C   -0.353534
    27  C    0.075328
    28  C   -0.107607
    29  C   -0.376450
    30  C   -0.102952
    31  C   -0.069355
    32  C   -0.073567
    33  C   -0.133431
    34  C    0.090159
    35  C   -0.147715
    36  C    0.144161
    37  C   -0.376376
    38  C   -0.112532
    39  C   -0.115276
    40  C   -0.370244
    41  C   -0.050779
    42  C   -0.102114
    43  H    0.094028
    44  H    0.118493
    45  H    0.078162
    46  H    0.086741
    47  H    0.080944
    48  H    0.097111
    49  H    0.101675
    50  H    0.095927
    51  H    0.078236
    52  H    0.040119
    53  H    0.106744
    54  H    0.046509
    55  H    0.059190
    56  H    0.086516
    57  H    0.099082
    58  H    0.116828
    59  H    0.124049
    60  H    0.099252
    61  H    0.128904
    62  H    0.079672
    63  H    0.112507
    64  H    0.108309
    65  H    0.089358
    66  H    0.135022
    67  H    0.119150
    68  H    0.069809
    69  H    0.296715
    70  H    0.086697
    71  H    0.073148
    72  H    0.127723
    73  H    0.123287
    74  H    0.105687
    75  H    0.293016
    76  H    0.079879
    77  H    0.104273
    78  H    0.094462
    79  H    0.113197
    80  H    0.082257
    81  H    0.129560
    82  H    0.106173
    83  H    0.119211
    84  H    0.085179
    85  H    0.098127
    86  H    0.074412
    87  H    0.081781
    88  H    0.081140
    89  H    0.123681
    90  H    0.113937
    91  H    0.103410
    92  H    0.062342
    93  H    0.071554
    94  H    0.125860
    95  H    0.114734
    96  H    0.115908
    97  H    0.077346
    98  H    0.083489
 Sum of Mulliken charges =  -0.00000

 Dipole moment (field-independent basis, Debye):
    X=              0.4112    Y=             -1.8446    Z=             -0.0506  Tot=              1.8905
 Quadrupole moment (field-independent basis, Debye-Ang):
   XX=           -289.8709   YY=           -245.2376   ZZ=           -260.8534
   XY=             -1.2412   XZ=             36.6527   YZ=             -0.7568

 Normal termination of Gaussian 16 at Tue Jul 16 07:45:53 2019.
