 Gaussian 16, Revision A.03,
 Gaussian 16:  ES64L-G16RevA.03 25-Dec-2016

 -------------------------------------
 # td=(NStates=1) CAM-B3LYP/6-31G(d,p)
 -------------------------------------

 --
 TD
 --
 Symbolic Z-matrix:
 Charge =  0 Multiplicity = 1

                         Standard orientation:
 ---------------------------------------------------------------------
 Center     Atomic      Atomic             Coordinates (Angstroms)
 Number     Number       Type             X           Y           Z
 ---------------------------------------------------------------------
      1          8           0      -14.161284   -2.013588    0.571402
      2          8           0       14.827134    0.877752    0.045975
      3          6           0      -11.895640    0.238789    1.253279
      4          6           0      -11.089898    0.361918   -0.111858
      5          6           0      -12.072691   -1.285584    1.591527
      6          6           0      -12.669249   -1.992529    0.369997
      7          6           0      -11.577590   -0.442312   -1.175857
      8          6           0       11.153570    0.932477    1.153999
      9          6           0      -11.151497    0.952272    2.446099
     10          6           0      -13.318446    0.837148    1.009089
     11          6           0       12.579575    1.542345    0.817811
     12          6           0      -12.360424   -1.553577   -0.903100
     13          6           0       13.620161    0.444709    0.367356
     14          6           0       10.679665   -0.003092    0.057501
     15          6           0       -9.688353    0.053264    0.044413
     16          6           0       13.020995   -0.058049   -0.928425
     17          6           0       11.541908   -0.255663   -1.021520
     18          6           0       10.220145    2.194447    1.310692
     19          6           0       11.238127    0.181524    2.510482
     20          6           0      -11.209388   -0.103975   -2.525164
     21          6           0       -8.562835    0.792459   -0.286276
     22          6           0        9.290230   -0.446893    0.090261
     23          6           0       11.079244   -1.014166   -2.289183
     24          6           0       -7.112719    0.511652   -0.154578
     25          6           0        8.895285   -1.683268   -0.231773
     26          6           0       -6.680115   -0.871213    0.390641
     27          6           0        7.520932   -2.127336   -0.097737
     28          6           0       -6.215612    1.465209   -0.371519
     29          6           0        7.277279   -3.621614    0.046987
     30          6           0        6.372749   -1.180760    0.071698
     31          6           0       -4.789339    1.392331   -0.424712
     32          6           0        5.030196   -1.550090   -0.121123
     33          6           0       -4.070456    2.442148   -0.767811
     34          6           0       -2.647873    2.374034   -0.823194
     35          6           0        4.138057   -0.624758   -0.102129
     36          6           0        2.633011   -0.830947   -0.204183
     37          6           0       -2.017687    3.720840   -1.159767
     38          6           0       -1.777077    1.188803   -0.471525
     39          6           0        1.721184    0.198356   -0.271052
     40          6           0        2.211905   -2.225272    0.124355
     41          6           0       -0.408660    1.237503   -0.520825
     42          6           0        0.336444    0.134771   -0.248124
     43          1           0      -11.120248    1.388673   -0.483390
     44          1           0      -12.618540   -1.260729    2.420439
     45          1           0      -11.223257   -1.706428    2.056867
     46          1           0      -12.415843   -3.172241    0.591843
     47          1           0      -10.024540    0.569646    2.451609
     48          1           0      -11.180942    1.889057    2.169813
     49          1           0      -11.767207    0.742483    3.364787
     50          1           0      -13.790265    0.412938    0.203611
     51          1           0      -13.927268    0.700278    1.789178
     52          1           0      -13.199178    2.012269    0.722163
     53          1           0       12.396259    2.324386   -0.027370
     54          1           0       12.868168    1.975375    1.740737
     55          1           0      -12.568846   -2.081630   -1.771403
     56          1           0       13.614763   -0.403497    0.988294
     57          1           0       -9.605464   -0.929097    0.320340
     58          1           0       13.756713   -0.930741   -1.107362
     59          1           0       13.096317    0.767813   -1.754999
     60          1           0        9.168892    1.856451    1.722042
     61          1           0       10.037773    2.779662    0.389028
     62          1           0       10.709786    2.863781    2.156740
     63          1           0       11.910404   -0.842513    2.470188
     64          1           0       10.279882   -0.069432    2.891138
     65          1           0       11.677076    0.926409    3.394131
     66          1           0      -10.179261   -0.099261   -2.665808
     67          1           0      -11.449881    1.060917   -2.859723
     68          1           0      -11.814096   -0.672668   -3.446347
     69          1           0      -14.352496   -2.042455   -0.572429
     70          1           0        8.579089    0.335679    0.615330
     71          1           0       -8.730820    1.938103   -0.635849
     72          1           0       11.321076   -1.923390   -2.124841
     73          1           0       10.004321   -0.715589   -2.660994
     74          1           0       11.603602   -0.606256   -3.195816
     75          1           0       15.404018    1.566767    0.603883
     76          1           0        9.595917   -2.501583   -0.322589
     77          1           0       -5.474129   -0.928041    0.036131
     78          1           0       -6.937684   -1.194662    1.618758
     79          1           0       -7.355448   -1.688715   -0.244538
     80          1           0       -6.708647    2.370103   -0.600007
     81          1           0        6.825180   -3.900854    0.948683
     82          1           0        6.796226   -3.979311   -0.681388
     83          1           0        8.435570   -4.027213   -0.116886
     84          1           0        6.599109   -0.229447   -0.193134
     85          1           0       -4.407930    0.395542   -0.311154
     86          1           0        4.704347   -2.548453   -0.135347
     87          1           0       -4.551723    3.478472   -1.047572
     88          1           0        4.557228    0.391920   -0.217504
     89          1           0       -1.324629    3.685219   -1.803691
     90          1           0       -1.157619    3.982533   -0.264512
     91          1           0       -2.810684    4.479401   -1.201181
     92          1           0       -2.602033    0.290954   -0.277523
     93          1           0        2.196813    1.187268   -0.414472
     94          1           0        2.197524   -2.521743    1.250421
     95          1           0        1.251674   -2.412921   -0.532281
     96          1           0        2.920462   -3.081932   -0.291738
     97          1           0        0.151327    2.098525   -0.556355
     98          1           0       -0.158318   -0.868533   -0.005466
 ---------------------------------------------------------------------

 SCF Done:  E(RCAM-B3LYP) =  -1706.80203835     A.U. after   15 cycles

 Excitation energies and oscillator strengths:

 Excited State   1:      Singlet-A      2.1233 eV  583.92 nm  f=2.8532  <S**2>=0.000
     155 ->158        -0.16566
     156 ->157         0.68668
 This state for optimization and/or second-order correction.
 Total Energy, E(TD-HF/TD-DFT) =  -1706.72400784
 Copying the excited state density for this state as the 1-particle RhoCI density.

 The electronic state is 1-A.
 Alpha  occ. eigenvalues --  -19.21761 -19.21396 -10.31020 -10.30194 -10.29713
 Alpha  occ. eigenvalues --  -10.28146 -10.28064 -10.28035 -10.27969 -10.27786
 Alpha  occ. eigenvalues --  -10.27685 -10.27600 -10.27553 -10.27442 -10.27285
 Alpha  occ. eigenvalues --  -10.27270 -10.27179 -10.27174 -10.26887 -10.26743
 Alpha  occ. eigenvalues --  -10.26625 -10.26278 -10.26267 -10.26108 -10.25818
 Alpha  occ. eigenvalues --  -10.25767 -10.25714 -10.25676 -10.25649 -10.25628
 Alpha  occ. eigenvalues --  -10.25573 -10.25485 -10.25176 -10.25157 -10.24983
 Alpha  occ. eigenvalues --  -10.24962 -10.24808 -10.24622 -10.24365 -10.24355
 Alpha  occ. eigenvalues --  -10.23552 -10.22916  -1.11004  -1.04715  -0.95313
 Alpha  occ. eigenvalues --   -0.92742  -0.92410  -0.91694  -0.90449  -0.89127
 Alpha  occ. eigenvalues --   -0.87990  -0.87530  -0.86016  -0.85859  -0.84880
 Alpha  occ. eigenvalues --   -0.83424  -0.82504  -0.80684  -0.80170  -0.78067
 Alpha  occ. eigenvalues --   -0.77166  -0.76351  -0.76189  -0.75836  -0.74691
 Alpha  occ. eigenvalues --   -0.74601  -0.74458  -0.73963  -0.72383  -0.70467
 Alpha  occ. eigenvalues --   -0.69724  -0.67355  -0.66332  -0.65266  -0.64373
 Alpha  occ. eigenvalues --   -0.63254  -0.62880  -0.62375  -0.60951  -0.60365
 Alpha  occ. eigenvalues --   -0.59838  -0.58917  -0.58432  -0.57493  -0.56312
 Alpha  occ. eigenvalues --   -0.55315  -0.55153  -0.54707  -0.54434  -0.53421
 Alpha  occ. eigenvalues --   -0.53109  -0.52405  -0.52060  -0.51747  -0.51420
 Alpha  occ. eigenvalues --   -0.50674  -0.50456  -0.50182  -0.50030  -0.49383
 Alpha  occ. eigenvalues --   -0.49271  -0.48497  -0.48149  -0.48004  -0.47732
 Alpha  occ. eigenvalues --   -0.47625  -0.47091  -0.46688  -0.46568  -0.45820
 Alpha  occ. eigenvalues --   -0.45696  -0.45254  -0.45102  -0.45072  -0.44655
 Alpha  occ. eigenvalues --   -0.44367  -0.44050  -0.43662  -0.43273  -0.43021
 Alpha  occ. eigenvalues --   -0.42673  -0.42298  -0.42237  -0.42085  -0.41887
 Alpha  occ. eigenvalues --   -0.41797  -0.41297  -0.41174  -0.40903  -0.40773
 Alpha  occ. eigenvalues --   -0.40614  -0.39837  -0.39578  -0.39456  -0.39355
 Alpha  occ. eigenvalues --   -0.39074  -0.38577  -0.38506  -0.37933  -0.37840
 Alpha  occ. eigenvalues --   -0.37809  -0.37452  -0.36985  -0.36794  -0.36251
 Alpha  occ. eigenvalues --   -0.35146  -0.34070  -0.33124  -0.32130  -0.31539
 Alpha  occ. eigenvalues --   -0.30576  -0.28918  -0.28099  -0.26852  -0.23151
 Alpha  occ. eigenvalues --   -0.19269
 Alpha virt. eigenvalues --   -0.05683  -0.01654   0.01619   0.03975   0.06503
 Alpha virt. eigenvalues --    0.08392   0.09925   0.10164   0.10855   0.11458
 Alpha virt. eigenvalues --    0.12111   0.12235   0.12479   0.13024   0.13539

 Mulliken charges:
               1
     1  O   -0.554986
     2  O   -0.568045
     3  C   -0.016735
     4  C   -0.149942
     5  C   -0.170007
     6  C    0.146499
     7  C    0.160165
     8  C   -0.030934
     9  C   -0.292695
    10  C   -0.272763
    11  C   -0.199028
    12  C   -0.152939
    13  C    0.223468
    14  C    0.071336
    15  C   -0.073791
    16  C   -0.214780
    17  C    0.013511
    18  C   -0.299746
    19  C   -0.282757
    20  C   -0.368975
    21  C   -0.114923
    22  C   -0.102429
    23  C   -0.338999
    24  C    0.116548
    25  C   -0.087319
    26  C   -0.327684
    27  C    0.031250
    28  C   -0.107762
    29  C   -0.348388
    30  C   -0.139146
    31  C   -0.054722
    32  C   -0.024462
    33  C   -0.111327
    34  C    0.057929
    35  C   -0.113490
    36  C    0.077397
    37  C   -0.348412
    38  C   -0.095546
    39  C   -0.114419
    40  C   -0.372818
    41  C   -0.080622
    42  C   -0.066230
    43  H    0.086411
    44  H    0.117336
    45  H    0.094571
    46  H    0.066389
    47  H    0.095267
    48  H    0.114182
    49  H    0.096377
    50  H    0.116663
    51  H    0.112157
    52  H    0.054399
    53  H    0.085524
    54  H    0.078175
    55  H    0.087252
    56  H    0.074563
    57  H    0.086244
    58  H    0.102295
    59  H    0.101392
    60  H    0.086593
    61  H    0.114143
    62  H    0.090178
    63  H    0.088534
    64  H    0.116926
    65  H    0.065990
    66  H    0.146308
    67  H    0.088029
    68  H    0.094165
    69  H    0.286471
    70  H    0.086889
    71  H    0.061002
    72  H    0.133227
    73  H    0.111497
    74  H    0.096260
    75  H    0.322789
    76  H    0.090802
    77  H    0.080720
    78  H    0.101932
    79  H    0.091383
    80  H    0.070627
    81  H    0.136608
    82  H    0.139215
    83  H    0.068681
    84  H    0.082067
    85  H    0.080966
    86  H    0.070009
    87  H    0.093865
    88  H    0.067508
    89  H    0.137930
    90  H    0.074418
    91  H    0.108452
    92  H    0.070286
    93  H    0.074123
    94  H    0.126096
    95  H    0.103207
    96  H    0.093081
    97  H    0.088540
    98  H    0.090005
 Sum of Mulliken charges =  -0.00000

 Dipole moment (field-independent basis, Debye):
    X=              3.3743    Y=              0.9277    Z=             -0.8698  Tot=              3.6060
 Quadrupole moment (field-independent basis, Debye-Ang):
   XX=           -273.7707   YY=           -247.6184   ZZ=           -261.1668
   XY=              0.7302   XZ=             36.0629   YZ=              0.5139

 Normal termination of Gaussian 16 at Sun Jul 14 11:23:00 2019.
