 Gaussian 16, Revision A.03,
 Gaussian 16:  ES64L-G16RevA.03 25-Dec-2016

 -------------------------------------
 # td=(NStates=1) CAM-B3LYP/6-31G(d,p)
 -------------------------------------

 --
 TD
 --
 Symbolic Z-matrix:
 Charge =  0 Multiplicity = 1

                         Standard orientation:
 ---------------------------------------------------------------------
 Center     Atomic      Atomic             Coordinates (Angstroms)
 Number     Number       Type             X           Y           Z
 ---------------------------------------------------------------------
      1          8           0      -14.242517   -1.751586    0.845069
      2          8           0       14.775376    1.154084    0.109216
      3          6           0      -11.765573    0.165331    1.285521
      4          6           0      -11.005889    0.312760   -0.187572
      5          6           0      -11.988134   -1.363866    1.574671
      6          6           0      -12.821845   -2.010826    0.504413
      7          6           0      -11.705869   -0.557007   -1.246004
      8          6           0       10.937723    1.051490    1.040431
      9          6           0      -10.889891    0.859728    2.456054
     10          6           0      -13.067707    1.013487    1.206640
     11          6           0       12.466118    1.650491    0.807068
     12          6           0      -12.460600   -1.609477   -0.876831
     13          6           0       13.468053    0.556730    0.419688
     14          6           0       10.651718   -0.022946    0.132615
     15          6           0       -9.565975   -0.048530   -0.035630
     16          6           0       13.084117   -0.195163   -0.754614
     17          6           0       11.556085   -0.507091   -0.851675
     18          6           0       10.051599    2.282840    0.978574
     19          6           0       10.900967    0.482348    2.523906
     20          6           0      -11.500902   -0.082225   -2.646455
     21          6           0       -8.549924    0.763422   -0.258353
     22          6           0        9.245288   -0.425894    0.068929
     23          6           0       11.298388   -1.395822   -1.981945
     24          6           0       -7.076854    0.521310   -0.243676
     25          6           0        8.900824   -1.713883   -0.114608
     26          6           0       -6.774949   -0.871762    0.194819
     27          6           0        7.503999   -2.178016   -0.110664
     28          6           0       -6.173469    1.426939   -0.531333
     29          6           0        7.313607   -3.623688    0.212875
     30          6           0        6.438734   -1.373278   -0.313820
     31          6           0       -4.707007    1.269269   -0.575977
     32          6           0        5.032115   -1.641165   -0.210482
     33          6           0       -3.917669    2.444915   -0.678792
     34          6           0       -2.504479    2.504852   -0.815284
     35          6           0        4.017444   -0.747217   -0.396792
     36          6           0        2.642096   -0.935292   -0.296773
     37          6           0       -1.994115    3.809868   -1.018030
     38          6           0       -1.695586    1.417715   -0.449296
     39          6           0        1.858817    0.170687   -0.457909
     40          6           0        2.147581   -2.329662    0.302598
     41          6           0       -0.304903    1.419254   -0.692287
     42          6           0        0.436775    0.259517   -0.330010
     43          1           0      -10.951544    1.405265   -0.305013
     44          1           0      -12.586960   -1.333090    2.523416
     45          1           0      -11.070088   -1.840063    1.789651
     46          1           0      -12.615352   -3.174931    0.423799
     47          1           0       -9.889270    0.441421    2.276390
     48          1           0      -11.004261    1.989116    2.101877
     49          1           0      -11.351063    0.841608    3.434284
     50          1           0      -13.666544    0.830524    0.372714
     51          1           0      -13.638695    0.857457    2.139386
     52          1           0      -12.676605    1.995312    1.184427
     53          1           0       12.326467    2.395098   -0.012249
     54          1           0       12.657417    2.105635    1.914024
     55          1           0      -13.202172   -1.954899   -1.676300
     56          1           0       13.751791   -0.247357    1.165375
     57          1           0       -9.144818   -1.064253    0.418348
     58          1           0       13.725565   -1.013720   -0.903828
     59          1           0       13.170853    0.509684   -1.522919
     60          1           0        9.178471    1.607059    1.540835
     61          1           0        9.952012    2.941527    0.035771
     62          1           0       10.363666    2.832492    2.024150
     63          1           0       11.811269   -0.213749    2.585158
     64          1           0        9.945023   -0.037470    2.837148
     65          1           0       11.111287    1.267275    3.372813
     66          1           0      -10.383673   -0.051597   -2.876448
     67          1           0      -11.944956    0.853313   -2.715827
     68          1           0      -11.860544   -0.936932   -3.256092
     69          1           0      -14.702847   -2.272820    0.133486
     70          1           0        8.462063    0.232493   -0.131686
     71          1           0       -8.909079    1.701814   -0.865446
     72          1           0       11.553672   -2.479105   -1.780692
     73          1           0       10.249726   -1.431739   -2.203046
     74          1           0       11.828165   -1.192766   -2.945037
     75          1           0       15.078428    1.624051    0.960571
     76          1           0        9.651393   -2.552542    0.155660
     77          1           0       -5.590367   -0.963987    0.163999
     78          1           0       -6.982561   -0.948075    1.242827
     79          1           0       -7.417018   -1.668845   -0.379043
     80          1           0       -6.434894    2.460681   -0.844124
     81          1           0        7.336361   -3.931044    1.437184
     82          1           0        6.474350   -3.958266   -0.299643
     83          1           0        8.178442   -4.120608   -0.253421
     84          1           0        6.580371   -0.499372   -1.051862
     85          1           0       -4.213811    0.244128   -0.582043
     86          1           0        4.893308   -2.642520    0.399181
     87          1           0       -4.330490    3.479493   -0.720880
     88          1           0        4.297208    0.177727   -0.717577
     89          1           0       -1.373079    3.840397   -2.094059
     90          1           0       -1.372766    4.209470   -0.277546
     91          1           0       -2.716160    4.617842   -1.000757
     92          1           0       -2.174372    0.470012   -0.230890
     93          1           0        2.406182    1.007908   -0.729469
     94          1           0        2.087753   -2.221067    1.513718
     95          1           0        1.015596   -2.237661   -0.121123
     96          1           0        2.794331   -3.232329   -0.131816
     97          1           0        0.184191    2.132444   -1.179578
     98          1           0       -0.008487   -0.571270    0.224009
 ---------------------------------------------------------------------

 SCF Done:  E(RCAM-B3LYP) =  -1706.98175359     A.U. after   15 cycles

 Excitation energies and oscillator strengths:

 Excited State   1:      Singlet-A      2.2674 eV  546.82 nm  f=2.8686  <S**2>=0.000
     155 ->158         0.14956
     156 ->157         0.69143
 This state for optimization and/or second-order correction.
 Total Energy, E(TD-HF/TD-DFT) =  -1706.89842874
 Copying the excited state density for this state as the 1-particle RhoCI density.

 The electronic state is 1-A.
 Alpha  occ. eigenvalues --  -19.21869 -19.20348 -10.31598 -10.29933 -10.28922
 Alpha  occ. eigenvalues --  -10.27987 -10.27800 -10.27684 -10.27635 -10.27454
 Alpha  occ. eigenvalues --  -10.27277 -10.27099 -10.26973 -10.26919 -10.26910
 Alpha  occ. eigenvalues --  -10.26909 -10.26885 -10.26669 -10.26651 -10.26624
 Alpha  occ. eigenvalues --  -10.26619 -10.26491 -10.26411 -10.26283 -10.26235
 Alpha  occ. eigenvalues --  -10.26208 -10.26144 -10.26133 -10.26017 -10.26006
 Alpha  occ. eigenvalues --  -10.25891 -10.25711 -10.25672 -10.25559 -10.25522
 Alpha  occ. eigenvalues --  -10.25038 -10.25022 -10.24985 -10.24963 -10.24637
 Alpha  occ. eigenvalues --  -10.23766 -10.22436  -1.07811  -1.06540  -0.93599
 Alpha  occ. eigenvalues --   -0.92828  -0.92414  -0.91688  -0.90651  -0.90207
 Alpha  occ. eigenvalues --   -0.87230  -0.86942  -0.86327  -0.85613  -0.84991
 Alpha  occ. eigenvalues --   -0.82903  -0.82227  -0.80799  -0.80512  -0.77898
 Alpha  occ. eigenvalues --   -0.76295  -0.76166  -0.75942  -0.75105  -0.74937
 Alpha  occ. eigenvalues --   -0.74824  -0.74338  -0.74168  -0.73017  -0.70123
 Alpha  occ. eigenvalues --   -0.68424  -0.67478  -0.66409  -0.64672  -0.63450
 Alpha  occ. eigenvalues --   -0.62965  -0.62180  -0.61470  -0.60433  -0.58879
 Alpha  occ. eigenvalues --   -0.58356  -0.57937  -0.57469  -0.57354  -0.56879
 Alpha  occ. eigenvalues --   -0.55489  -0.54468  -0.54279  -0.53664  -0.53323
 Alpha  occ. eigenvalues --   -0.53087  -0.52602  -0.52286  -0.52187  -0.51455
 Alpha  occ. eigenvalues --   -0.51225  -0.50655  -0.49890  -0.49631  -0.49119
 Alpha  occ. eigenvalues --   -0.49015  -0.48392  -0.48139  -0.47864  -0.47413
 Alpha  occ. eigenvalues --   -0.47199  -0.46918  -0.46846  -0.46795  -0.46414
 Alpha  occ. eigenvalues --   -0.46358  -0.45508  -0.44997  -0.44838  -0.44548
 Alpha  occ. eigenvalues --   -0.44214  -0.43909  -0.43630  -0.43538  -0.43444
 Alpha  occ. eigenvalues --   -0.43325  -0.42882  -0.42574  -0.42225  -0.42102
 Alpha  occ. eigenvalues --   -0.41622  -0.41202  -0.41128  -0.40936  -0.40737
 Alpha  occ. eigenvalues --   -0.40693  -0.40317  -0.39998  -0.39590  -0.39530
 Alpha  occ. eigenvalues --   -0.38787  -0.38352  -0.38140  -0.37712  -0.37546
 Alpha  occ. eigenvalues --   -0.37130  -0.36714  -0.36664  -0.35994  -0.35084
 Alpha  occ. eigenvalues --   -0.35032  -0.33875  -0.33401  -0.32535  -0.31299
 Alpha  occ. eigenvalues --   -0.30781  -0.29565  -0.28553  -0.26968  -0.24213
 Alpha  occ. eigenvalues --   -0.19859
 Alpha virt. eigenvalues --   -0.05626  -0.00718   0.02879   0.05071   0.06293
 Alpha virt. eigenvalues --    0.07786   0.09815   0.11270   0.11881   0.12105
 Alpha virt. eigenvalues --    0.12264   0.12350   0.12682   0.13458   0.13550

 Mulliken charges:
               1
     1  O   -0.543955
     2  O   -0.579965
     3  C   -0.014548
     4  C   -0.153626
     5  C   -0.177417
     6  C    0.132783
     7  C    0.115992
     8  C   -0.069992
     9  C   -0.299057
    10  C   -0.277972
    11  C   -0.187743
    12  C   -0.132697
    13  C    0.160972
    14  C    0.094379
    15  C   -0.075413
    16  C   -0.205156
    17  C    0.048747
    18  C   -0.277334
    19  C   -0.316862
    20  C   -0.347950
    21  C   -0.090365
    22  C   -0.113417
    23  C   -0.370584
    24  C    0.124161
    25  C   -0.109482
    26  C   -0.379392
    27  C    0.080124
    28  C   -0.125744
    29  C   -0.357411
    30  C   -0.128259
    31  C   -0.095983
    32  C   -0.114856
    33  C   -0.129218
    34  C    0.115058
    35  C   -0.089465
    36  C    0.100954
    37  C   -0.388556
    38  C   -0.106550
    39  C   -0.114671
    40  C   -0.344676
    41  C   -0.060363
    42  C   -0.110872
    43  H    0.095410
    44  H    0.110598
    45  H    0.101221
    46  H    0.070296
    47  H    0.110268
    48  H    0.076580
    49  H    0.110632
    50  H    0.112274
    51  H    0.100700
    52  H    0.085858
    53  H    0.104922
    54  H    0.070673
    55  H    0.063938
    56  H    0.074986
    57  H    0.068745
    58  H    0.118851
    59  H    0.127378
    60  H    0.090289
    61  H    0.114825
    62  H    0.088239
    63  H    0.104602
    64  H    0.113482
    65  H    0.086021
    66  H    0.118283
    67  H    0.132993
    68  H    0.108201
    69  H    0.304856
    70  H    0.107151
    71  H    0.055032
    72  H    0.111357
    73  H    0.122753
    74  H    0.110363
    75  H    0.302120
    76  H    0.081916
    77  H    0.084898
    78  H    0.136928
    79  H    0.116696
    80  H    0.087874
    81  H    0.092471
    82  H    0.126455
    83  H    0.111960
    84  H    0.073491
    85  H    0.099392
    86  H    0.073278
    87  H    0.082837
    88  H    0.070588
    89  H    0.093731
    90  H    0.138151
    91  H    0.111758
    92  H    0.082476
    93  H    0.078168
    94  H    0.117658
    95  H    0.094610
    96  H    0.116139
    97  H    0.083705
    98  H    0.087308
 Sum of Mulliken charges =  -0.00000

 Dipole moment (field-independent basis, Debye):
    X=             -0.4423    Y=             -0.3318    Z=             -0.3795  Tot=              0.6706
 Quadrupole moment (field-independent basis, Debye-Ang):
   XX=           -286.6670   YY=           -244.8817   ZZ=           -261.0618
   XY=              3.0751   XZ=             33.5671   YZ=              0.1608

 Normal termination of Gaussian 16 at Sun Jul 14 16:11:46 2019.
