 Gaussian 16, Revision A.03,
 Gaussian 16:  ES64L-G16RevA.03 25-Dec-2016

 -------------------------------------
 # td=(NStates=1) CAM-B3LYP/6-31G(d,p)
 -------------------------------------

 --
 TD
 --
 Symbolic Z-matrix:
 Charge =  0 Multiplicity = 1

                         Standard orientation:
 ---------------------------------------------------------------------
 Center     Atomic      Atomic             Coordinates (Angstroms)
 Number     Number       Type             X           Y           Z
 ---------------------------------------------------------------------
      1          8           0      -14.111216   -2.094232    0.441895
      2          8           0       14.751225    0.896643    0.362041
      3          6           0      -11.871958   -0.034573    1.338566
      4          6           0      -11.015057    0.319200    0.124276
      5          6           0      -12.000547   -1.487483    1.457018
      6          6           0      -12.674665   -2.157984    0.330898
      7          6           0      -11.609840   -0.424006   -1.074302
      8          6           0       11.085232    1.069410    1.064413
      9          6           0      -11.051650    0.469852    2.607450
     10          6           0      -13.245448    0.654062    1.165225
     11          6           0       12.535064    1.549515    0.888991
     12          6           0      -12.284216   -1.556161   -0.940134
     13          6           0       13.426096    0.408931    0.515765
     14          6           0       10.720722   -0.034130    0.056268
     15          6           0       -9.561856   -0.061398    0.170124
     16          6           0       13.094579   -0.274546   -0.713188
     17          6           0       11.682074   -0.638032   -0.802065
     18          6           0       10.025841    2.152053    1.039715
     19          6           0       11.025888    0.459826    2.530066
     20          6           0      -11.296668    0.279454   -2.425941
     21          6           0       -8.589865    0.820027   -0.205452
     22          6           0        9.344950   -0.478215    0.086827
     23          6           0       11.366641   -1.523350   -1.903705
     24          6           0       -7.175327    0.559542   -0.178560
     25          6           0        8.788200   -1.649515   -0.053722
     26          6           0       -6.737625   -0.814622    0.362284
     27          6           0        7.454774   -2.146971   -0.099931
     28          6           0       -6.210487    1.497574   -0.341408
     29          6           0        7.282475   -3.586303    0.102593
     30          6           0        6.382143   -1.282884   -0.441036
     31          6           0       -4.805070    1.384576   -0.366812
     32          6           0        5.031281   -1.599625   -0.336993
     33          6           0       -4.003447    2.523177   -0.637519
     34          6           0       -2.634165    2.602307   -0.770984
     35          6           0        4.049627   -0.615320   -0.675342
     36          6           0        2.692047   -0.725353   -0.462626
     37          6           0       -2.066242    4.011670   -1.019866
     38          6           0       -1.781365    1.524352   -0.608275
     39          6           0        1.854709    0.445375   -0.596918
     40          6           0        2.113296   -2.051197   -0.194140
     41          6           0       -0.431498    1.502007   -0.673075
     42          6           0        0.413719    0.448766   -0.522161
     43          1           0      -10.936349    1.457982   -0.165234
     44          1           0      -12.677710   -1.675259    2.316678
     45          1           0      -10.983450   -2.025987    1.846097
     46          1           0      -12.408055   -3.210764    0.344476
     47          1           0      -10.005534    0.089616    2.756439
     48          1           0      -11.032669    1.651563    2.504993
     49          1           0      -11.586610    0.233552    3.408249
     50          1           0      -13.725642    0.524466    0.149843
     51          1           0      -14.011130    0.410007    1.876036
     52          1           0      -13.153379    1.789648    1.260701
     53          1           0       12.656806    2.173082    0.031527
     54          1           0       13.004108    1.987954    1.789192
     55          1           0      -12.819728   -1.853658   -1.883084
     56          1           0       13.451156   -0.308357    1.426339
     57          1           0       -9.212660   -1.059363    0.398191
     58          1           0       13.795936   -1.165707   -0.789212
     59          1           0       13.364771    0.389929   -1.511872
     60          1           0        9.091610    1.875003    1.677931
     61          1           0        9.743223    2.276664    0.005602
     62          1           0       10.550080    2.910778    1.580714
     63          1           0       12.116238   -0.103273    2.609259
     64          1           0       10.108263   -0.002330    2.816633
     65          1           0       11.052137    1.471660    3.397679
     66          1           0      -10.172269    0.235021   -2.765671
     67          1           0      -11.373018    1.378197   -2.187188
     68          1           0      -11.958954    0.057537   -3.211577
     69          1           0      -14.492316   -2.621441   -0.343278
     70          1           0        8.648464    0.378633    0.386127
     71          1           0       -9.033164    1.837031   -0.403506
     72          1           0       11.744751   -2.648388   -1.700008
     73          1           0       10.337934   -1.543195   -2.008456
     74          1           0       11.801232   -1.046397   -2.670771
     75          1           0       15.234325    1.288843    1.166467
     76          1           0        9.464127   -2.573237   -0.374687
     77          1           0       -5.626724   -0.900436    0.597011
     78          1           0       -7.263541   -1.213306    1.220888
     79          1           0       -7.051772   -1.407692   -0.580150
     80          1           0       -6.502300    2.459488   -0.642399
     81          1           0        6.307301   -3.679638    0.991978
     82          1           0        6.879015   -4.071971   -0.666639
     83          1           0        8.368823   -4.005124    0.544711
     84          1           0        6.661015   -0.341859   -0.289412
     85          1           0       -4.362981    0.568657   -0.361408
     86          1           0        4.768791   -2.574714   -0.089078
     87          1           0       -4.644889    3.321791   -0.765210
     88          1           0        4.576343    0.384064   -0.945699
     89          1           0       -1.868274    4.036020   -2.161439
     90          1           0       -0.898115    4.053447   -0.542503
     91          1           0       -2.806825    4.761635   -0.788673
     92          1           0       -2.384255    0.641765   -0.235231
     93          1           0        2.344182    1.434761   -0.848769
     94          1           0        2.617143   -2.531663    0.706954
     95          1           0        0.988272   -2.055380    0.029004
     96          1           0        2.268615   -2.832044   -1.054517
     97          1           0        0.175511    2.307743   -0.978029
     98          1           0       -0.182087   -0.594699   -0.085451
 ---------------------------------------------------------------------

 SCF Done:  E(RCAM-B3LYP) =  -1706.96276685     A.U. after   15 cycles

 Excitation energies and oscillator strengths:

 Excited State   1:      Singlet-A      1.9187 eV  646.19 nm  f=3.1842  <S**2>=0.000
     155 ->158        -0.14591
     156 ->157         0.69591
     156 <-157        -0.10313
 This state for optimization and/or second-order correction.
 Total Energy, E(TD-HF/TD-DFT) =  -1706.89225567
 Copying the excited state density for this state as the 1-particle RhoCI density.

 The electronic state is 1-A.
 Alpha  occ. eigenvalues --  -19.21450 -19.20813 -10.30171 -10.30141 -10.27737
 Alpha  occ. eigenvalues --  -10.27711 -10.27681 -10.27679 -10.27535 -10.27506
 Alpha  occ. eigenvalues --  -10.27293 -10.27254 -10.27111 -10.26931 -10.26838
 Alpha  occ. eigenvalues --  -10.26810 -10.26778 -10.26709 -10.26668 -10.26666
 Alpha  occ. eigenvalues --  -10.26464 -10.26350 -10.26113 -10.26080 -10.26004
 Alpha  occ. eigenvalues --  -10.25931 -10.25926 -10.25866 -10.25712 -10.25622
 Alpha  occ. eigenvalues --  -10.25423 -10.25325 -10.25054 -10.24861 -10.24835
 Alpha  occ. eigenvalues --  -10.24740 -10.24647 -10.24612 -10.24291 -10.24210
 Alpha  occ. eigenvalues --  -10.24140 -10.24114  -1.08392  -1.08336  -0.94421
 Alpha  occ. eigenvalues --   -0.94177  -0.92382  -0.91825  -0.90780  -0.90079
 Alpha  occ. eigenvalues --   -0.88411  -0.87633  -0.86380  -0.86039  -0.85233
 Alpha  occ. eigenvalues --   -0.83462  -0.82622  -0.81151  -0.80091  -0.77981
 Alpha  occ. eigenvalues --   -0.77390  -0.76103  -0.75917  -0.75748  -0.75333
 Alpha  occ. eigenvalues --   -0.75313  -0.74801  -0.74058  -0.72790  -0.70548
 Alpha  occ. eigenvalues --   -0.69428  -0.68082  -0.67004  -0.64949  -0.64279
 Alpha  occ. eigenvalues --   -0.63343  -0.62905  -0.62310  -0.60508  -0.60038
 Alpha  occ. eigenvalues --   -0.59770  -0.59381  -0.58462  -0.57883  -0.56617
 Alpha  occ. eigenvalues --   -0.55637  -0.55402  -0.54888  -0.54571  -0.53683
 Alpha  occ. eigenvalues --   -0.53483  -0.53027  -0.52405  -0.51749  -0.50916
 Alpha  occ. eigenvalues --   -0.50780  -0.50675  -0.50101  -0.49725  -0.49237
 Alpha  occ. eigenvalues --   -0.48922  -0.48780  -0.48445  -0.47612  -0.47374
 Alpha  occ. eigenvalues --   -0.47315  -0.47270  -0.47075  -0.46566  -0.46183
 Alpha  occ. eigenvalues --   -0.45812  -0.45489  -0.45184  -0.45095  -0.44817
 Alpha  occ. eigenvalues --   -0.44007  -0.43916  -0.43816  -0.43644  -0.43462
 Alpha  occ. eigenvalues --   -0.43051  -0.42967  -0.42258  -0.42121  -0.41854
 Alpha  occ. eigenvalues --   -0.41702  -0.41604  -0.41423  -0.41128  -0.40759
 Alpha  occ. eigenvalues --   -0.40724  -0.40105  -0.39987  -0.39948  -0.39467
 Alpha  occ. eigenvalues --   -0.39007  -0.38195  -0.38121  -0.38004  -0.37842
 Alpha  occ. eigenvalues --   -0.37516  -0.37226  -0.36798  -0.36702  -0.35530
 Alpha  occ. eigenvalues --   -0.35308  -0.35058  -0.33539  -0.32584  -0.31757
 Alpha  occ. eigenvalues --   -0.31524  -0.29742  -0.28521  -0.26469  -0.23228
 Alpha  occ. eigenvalues --   -0.18604
 Alpha virt. eigenvalues --   -0.06556  -0.01500   0.02731   0.05128   0.06916
 Alpha virt. eigenvalues --    0.08550   0.10646   0.11025   0.11230   0.11700
 Alpha virt. eigenvalues --    0.12303   0.12581   0.12833   0.13655   0.14024

 Mulliken charges:
               1
     1  O   -0.559265
     2  O   -0.592522
     3  C    0.020184
     4  C   -0.131743
     5  C   -0.189222
     6  C    0.149443
     7  C    0.112123
     8  C   -0.006078
     9  C   -0.300800
    10  C   -0.303030
    11  C   -0.181367
    12  C   -0.121096
    13  C    0.172515
    14  C    0.057569
    15  C   -0.055658
    16  C   -0.212979
    17  C    0.043176
    18  C   -0.303482
    19  C   -0.262402
    20  C   -0.353726
    21  C   -0.101280
    22  C   -0.123876
    23  C   -0.340610
    24  C    0.088052
    25  C   -0.108868
    26  C   -0.367070
    27  C    0.086845
    28  C   -0.133157
    29  C   -0.352440
    30  C   -0.093438
    31  C   -0.012572
    32  C   -0.079937
    33  C   -0.146006
    34  C    0.121509
    35  C   -0.129483
    36  C    0.141241
    37  C   -0.360656
    38  C   -0.116200
    39  C   -0.145931
    40  C   -0.375727
    41  C   -0.065875
    42  C   -0.081072
    43  H    0.078652
    44  H    0.115939
    45  H    0.083020
    46  H    0.086039
    47  H    0.105610
    48  H    0.080072
    49  H    0.107567
    50  H    0.118691
    51  H    0.112350
    52  H    0.078804
    53  H    0.103348
    54  H    0.085527
    55  H    0.060160
    56  H    0.064541
    57  H    0.086595
    58  H    0.113418
    59  H    0.125558
    60  H    0.096362
    61  H    0.110577
    62  H    0.108880
    63  H    0.079790
    64  H    0.122798
    65  H    0.032719
    66  H    0.116795
    67  H    0.100081
    68  H    0.113949
    69  H    0.308732
    70  H    0.077944
    71  H    0.074575
    72  H    0.094983
    73  H    0.123504
    74  H    0.120046
    75  H    0.309457
    76  H    0.066359
    77  H    0.106990
    78  H    0.123302
    79  H    0.113917
    80  H    0.069813
    81  H    0.072758
    82  H    0.148204
    83  H    0.097735
    84  H    0.075993
    85  H    0.053646
    86  H    0.076977
    87  H    0.071352
    88  H    0.079780
    89  H    0.117860
    90  H    0.097105
    91  H    0.119819
    92  H    0.074889
    93  H    0.087957
    94  H    0.112538
    95  H    0.107607
    96  H    0.114863
    97  H    0.075922
    98  H    0.052439
 Sum of Mulliken charges =  -0.00000

 Dipole moment (field-independent basis, Debye):
    X=              0.2146    Y=             -0.8892    Z=             -0.1917  Tot=              0.9346
 Quadrupole moment (field-independent basis, Debye-Ang):
   XX=           -248.1996   YY=           -246.1587   ZZ=           -262.8715
   XY=             11.4689   XZ=             27.1415   YZ=              0.7041

 Normal termination of Gaussian 16 at Mon Jul 15 14:58:17 2019.
