 Gaussian 16, Revision A.03,
 Gaussian 16:  ES64L-G16RevA.03 25-Dec-2016

 -------------------------------------
 # td=(NStates=1) CAM-B3LYP/6-31G(d,p)
 -------------------------------------

 --
 TD
 --
 Symbolic Z-matrix:
 Charge =  0 Multiplicity = 1

                         Standard orientation:
 ---------------------------------------------------------------------
 Center     Atomic      Atomic             Coordinates (Angstroms)
 Number     Number       Type             X           Y           Z
 ---------------------------------------------------------------------
      1          8           0      -13.967387   -2.125657    0.982628
      2          8           0       14.694393    0.954803    0.480525
      3          6           0      -11.695747    0.223757    1.254031
      4          6           0      -10.962659    0.299266   -0.075070
      5          6           0      -11.799145   -1.224253    1.690696
      6          6           0      -12.439684   -2.186416    0.657551
      7          6           0      -11.533747   -0.625626   -1.128918
      8          6           0       10.904105    1.041661    1.143852
      9          6           0      -10.828023    0.968530    2.345287
     10          6           0      -12.979313    0.970913    1.056017
     11          6           0       12.287544    1.600964    0.994417
     12          6           0      -12.251405   -1.740905   -0.788010
     13          6           0       13.368379    0.499337    0.602926
     14          6           0       10.548515    0.052557    0.038361
     15          6           0       -9.423730   -0.027699    0.146251
     16          6           0       12.927687   -0.212978   -0.632010
     17          6           0       11.433242   -0.573970   -0.797851
     18          6           0        9.931117    2.252665    1.235896
     19          6           0       10.778695    0.265285    2.499396
     20          6           0      -11.342367   -0.240681   -2.569816
     21          6           0       -8.417985    0.814667   -0.181380
     22          6           0        9.137841   -0.327537   -0.049198
     23          6           0       11.223187   -1.395129   -2.035438
     24          6           0       -6.973492    0.604545   -0.032001
     25          6           0        8.803850   -1.726594   -0.167410
     26          6           0       -6.481697   -0.779091    0.229458
     27          6           0        7.370917   -2.155309   -0.208906
     28          6           0       -6.189726    1.618807   -0.384813
     29          6           0        7.169051   -3.657259   -0.055025
     30          6           0        6.247497   -1.301973   -0.391109
     31          6           0       -4.724874    1.596643   -0.546080
     32          6           0        5.007841   -1.679375   -0.328644
     33          6           0       -3.913625    2.635444   -0.845112
     34          6           0       -2.533529    2.602493   -0.862660
     35          6           0        3.926784   -0.702221   -0.532694
     36          6           0        2.541832   -0.912653   -0.302021
     37          6           0       -1.870114    3.956103   -1.338433
     38          6           0       -1.816706    1.430090   -0.697055
     39          6           0        1.746387    0.205954   -0.520361
     40          6           0        2.101969   -2.298841    0.095717
     41          6           0       -0.385672    1.429833   -0.654742
     42          6           0        0.346942    0.247755   -0.443458
     43          1           0      -11.099902    1.353108   -0.578332
     44          1           0      -12.420057   -1.324510    2.617447
     45          1           0      -10.783963   -1.720745    1.803154
     46          1           0      -11.934819   -3.444045    0.734952
     47          1           0       -9.989524    0.230135    2.802501
     48          1           0      -10.587967    2.005052    2.018902
     49          1           0      -11.411569    1.081099    3.266440
     50          1           0      -13.452817    0.451523    0.176032
     51          1           0      -13.795131    0.916502    1.853946
     52          1           0      -12.935279    2.005175    0.731334
     53          1           0       12.551792    2.387799    0.069540
     54          1           0       12.732585    1.973134    2.018508
     55          1           0      -12.660574   -2.454687   -1.618710
     56          1           0       13.242553   -0.230487    1.455222
     57          1           0       -9.185733   -0.967978    0.799636
     58          1           0       13.551398   -1.267217   -0.723258
     59          1           0       13.266325    0.412536   -1.638438
     60          1           0        8.788636    2.117149    1.592895
     61          1           0        9.856424    2.954643    0.395749
     62          1           0       10.384107    2.950013    1.916173
     63          1           0       11.633321   -0.469389    2.427648
     64          1           0        9.903252   -0.352724    2.583594
     65          1           0       10.584083    1.159055    3.336888
     66          1           0      -10.336218   -0.241877   -3.002015
     67          1           0      -11.880234    0.644064   -2.940138
     68          1           0      -11.715305   -1.067465   -3.212853
     69          1           0      -14.472800   -2.962846    0.326332
     70          1           0        8.199084    0.403384   -0.050414
     71          1           0       -8.754908    1.761851   -0.577178
     72          1           0       11.805279   -2.356090   -1.863445
     73          1           0       10.101284   -1.515284   -2.257396
     74          1           0       11.876409   -0.876714   -2.853555
     75          1           0       14.918514    1.542121    1.361364
     76          1           0        9.527991   -2.340321   -0.256553
     77          1           0       -5.409380   -0.900539    0.165464
     78          1           0       -6.731648   -1.169041    1.128617
     79          1           0       -7.149051   -1.458513   -0.585235
     80          1           0       -6.753486    2.659162   -0.748097
     81          1           0        7.114328   -3.980608    0.938823
     82          1           0        6.334886   -4.000033   -0.631357
     83          1           0        7.975961   -4.144764   -0.224121
     84          1           0        6.474976   -0.148968   -0.570666
     85          1           0       -4.260792    0.831884   -0.167428
     86          1           0        4.675216   -2.741948   -0.277929
     87          1           0       -4.394581    3.541697   -1.191367
     88          1           0        4.236351    0.408214   -0.632776
     89          1           0       -1.372232    3.978838   -2.371638
     90          1           0       -1.162361    4.374335   -0.744181
     91          1           0       -2.532825    4.623134   -1.307903
     92          1           0       -2.320086    0.677118   -0.241732
     93          1           0        2.305941    1.206709   -0.844139
     94          1           0        2.305557   -2.476521    1.081407
     95          1           0        0.957686   -2.450554   -0.124250
     96          1           0        2.788339   -3.053777   -0.576262
     97          1           0        0.208273    2.297049   -0.995244
     98          1           0       -0.054221   -0.754556   -0.031040
 ---------------------------------------------------------------------

 SCF Done:  E(RCAM-B3LYP) =  -1706.90017116     A.U. after   16 cycles

 Excitation energies and oscillator strengths:

 Excited State   1:      Singlet-A      1.9755 eV  627.60 nm  f=2.9661  <S**2>=0.000
     155 ->158         0.14480
     156 ->157         0.69629
     156 <-157        -0.10750
 This state for optimization and/or second-order correction.
 Total Energy, E(TD-HF/TD-DFT) =  -1706.82757231
 Copying the excited state density for this state as the 1-particle RhoCI density.

 The electronic state is 1-A.
 Alpha  occ. eigenvalues --  -19.22974 -19.22491 -10.33746 -10.30865 -10.28518
 Alpha  occ. eigenvalues --  -10.27944 -10.27685 -10.27574 -10.27565 -10.27558
 Alpha  occ. eigenvalues --  -10.27390 -10.27333 -10.27243 -10.27219 -10.27081
 Alpha  occ. eigenvalues --  -10.26976 -10.26938 -10.26916 -10.26883 -10.26854
 Alpha  occ. eigenvalues --  -10.26845 -10.26841 -10.26790 -10.26670 -10.26587
 Alpha  occ. eigenvalues --  -10.26583 -10.26424 -10.26209 -10.26180 -10.25973
 Alpha  occ. eigenvalues --  -10.25967 -10.25880 -10.25682 -10.25540 -10.25335
 Alpha  occ. eigenvalues --  -10.25310 -10.25164 -10.25117 -10.24921 -10.23725
 Alpha  occ. eigenvalues --  -10.23652 -10.23372  -1.08647  -1.02573  -0.93601
 Alpha  occ. eigenvalues --   -0.93507  -0.92202  -0.91530  -0.90378  -0.89718
 Alpha  occ. eigenvalues --   -0.87240  -0.86379  -0.86312  -0.84926  -0.83767
 Alpha  occ. eigenvalues --   -0.82815  -0.81903  -0.80303  -0.79838  -0.79235
 Alpha  occ. eigenvalues --   -0.77049  -0.76705  -0.76241  -0.75940  -0.75535
 Alpha  occ. eigenvalues --   -0.74975  -0.74184  -0.74142  -0.72835  -0.70426
 Alpha  occ. eigenvalues --   -0.68505  -0.66521  -0.65737  -0.64368  -0.63309
 Alpha  occ. eigenvalues --   -0.62955  -0.62871  -0.61966  -0.60387  -0.59955
 Alpha  occ. eigenvalues --   -0.59218  -0.57555  -0.57385  -0.56297  -0.55697
 Alpha  occ. eigenvalues --   -0.55260  -0.54490  -0.54111  -0.53365  -0.52866
 Alpha  occ. eigenvalues --   -0.52530  -0.52216  -0.51525  -0.51326  -0.50719
 Alpha  occ. eigenvalues --   -0.50668  -0.49696  -0.49514  -0.49019  -0.48810
 Alpha  occ. eigenvalues --   -0.48419  -0.48300  -0.48234  -0.47628  -0.47365
 Alpha  occ. eigenvalues --   -0.47182  -0.46949  -0.46743  -0.46675  -0.45611
 Alpha  occ. eigenvalues --   -0.45531  -0.45496  -0.45312  -0.45234  -0.45087
 Alpha  occ. eigenvalues --   -0.44182  -0.44086  -0.43338  -0.43070  -0.43018
 Alpha  occ. eigenvalues --   -0.42637  -0.42567  -0.42264  -0.41879  -0.41713
 Alpha  occ. eigenvalues --   -0.41495  -0.41325  -0.41164  -0.40954  -0.40685
 Alpha  occ. eigenvalues --   -0.40632  -0.40385  -0.39698  -0.39490  -0.39452
 Alpha  occ. eigenvalues --   -0.39300  -0.39120  -0.38652  -0.38512  -0.37942
 Alpha  occ. eigenvalues --   -0.37759  -0.37605  -0.37245  -0.36847  -0.36147
 Alpha  occ. eigenvalues --   -0.35162  -0.34731  -0.33651  -0.32080  -0.31818
 Alpha  occ. eigenvalues --   -0.31153  -0.29150  -0.28582  -0.27046  -0.23490
 Alpha  occ. eigenvalues --   -0.18354
 Alpha virt. eigenvalues --   -0.06076  -0.01077   0.03169   0.04900   0.06387
 Alpha virt. eigenvalues --    0.08107   0.09099   0.09375   0.10385   0.11291
 Alpha virt. eigenvalues --    0.11425   0.11884   0.12512   0.13092   0.13273

 Mulliken charges:
               1
     1  O   -0.547804
     2  O   -0.559784
     3  C    0.043123
     4  C   -0.143503
     5  C   -0.181714
     6  C    0.122386
     7  C    0.125479
     8  C    0.006835
     9  C   -0.289869
    10  C   -0.311629
    11  C   -0.194037
    12  C   -0.099802
    13  C    0.182654
    14  C    0.056926
    15  C   -0.089861
    16  C   -0.208734
    17  C    0.060570
    18  C   -0.317810
    19  C   -0.291567
    20  C   -0.378048
    21  C   -0.094318
    22  C   -0.124428
    23  C   -0.349038
    24  C    0.135635
    25  C   -0.089244
    26  C   -0.362517
    27  C    0.041544
    28  C   -0.134781
    29  C   -0.361693
    30  C   -0.087439
    31  C   -0.059461
    32  C   -0.084695
    33  C   -0.109133
    34  C    0.074168
    35  C   -0.143796
    36  C    0.119090
    37  C   -0.361378
    38  C   -0.103505
    39  C   -0.119809
    40  C   -0.361769
    41  C   -0.101227
    42  C   -0.082870
    43  H    0.084558
    44  H    0.126356
    45  H    0.097346
    46  H    0.040195
    47  H    0.078666
    48  H    0.103099
    49  H    0.096909
    50  H    0.113957
    51  H    0.099132
    52  H    0.097926
    53  H    0.087814
    54  H    0.067597
    55  H    0.074883
    56  H    0.067186
    57  H    0.079070
    58  H    0.080027
    59  H    0.089565
    60  H    0.087607
    61  H    0.106853
    62  H    0.107141
    63  H    0.102250
    64  H    0.124853
    65  H    0.083620
    66  H    0.125189
    67  H    0.119262
    68  H    0.103309
    69  H    0.286469
    70  H    0.090850
    71  H    0.077528
    72  H    0.112116
    73  H    0.124312
    74  H    0.109361
    75  H    0.312151
    76  H    0.077745
    77  H    0.111317
    78  H    0.130908
    79  H    0.097224
    80  H    0.064886
    81  H    0.124070
    82  H    0.115913
    83  H    0.113257
    84  H    0.073337
    85  H    0.060100
    86  H    0.083909
    87  H    0.078442
    88  H    0.074442
    89  H    0.111471
    90  H    0.121469
    91  H    0.111557
    92  H    0.082141
    93  H    0.072883
    94  H    0.147376
    95  H    0.100510
    96  H    0.100214
    97  H    0.091964
    98  H    0.074565
 Sum of Mulliken charges =  -0.00000

 Dipole moment (field-independent basis, Debye):
    X=              0.7949    Y=             -0.8154    Z=              0.3778  Tot=              1.1998
 Quadrupole moment (field-independent basis, Debye-Ang):
   XX=           -284.1763   YY=           -238.5984   ZZ=           -263.2960
   XY=             10.9235   XZ=             33.8744   YZ=              0.0110

 Normal termination of Gaussian 16 at Mon Jul 15 04:36:12 2019.
