 Gaussian 16, Revision A.03,
 Gaussian 16:  ES64L-G16RevA.03 25-Dec-2016

 -------------------------------------
 # td=(NStates=1) CAM-B3LYP/6-31G(d,p)
 -------------------------------------

 --
 TD
 --
 Symbolic Z-matrix:
 Charge =  0 Multiplicity = 1

                         Standard orientation:
 ---------------------------------------------------------------------
 Center     Atomic      Atomic             Coordinates (Angstroms)
 Number     Number       Type             X           Y           Z
 ---------------------------------------------------------------------
      1          8           0      -14.114634   -2.042849    0.670009
      2          8           0       14.774236    0.845147    0.281181
      3          6           0      -11.713421    0.091203    1.375300
      4          6           0      -11.035339    0.371696   -0.008265
      5          6           0      -11.873517   -1.424425    1.514548
      6          6           0      -12.638305   -2.171809    0.395239
      7          6           0      -11.681749   -0.435119   -1.102332
      8          6           0       11.048748    0.902616    1.222531
      9          6           0      -10.896046    0.668297    2.456023
     10          6           0      -13.086848    0.820900    1.387086
     11          6           0       12.563225    1.328227    1.069935
     12          6           0      -12.452450   -1.463134   -0.912730
     13          6           0       13.546797    0.269329    0.583983
     14          6           0       10.683168    0.016136   -0.041290
     15          6           0       -9.557745   -0.108466   -0.001309
     16          6           0       13.111777   -0.175998   -0.771154
     17          6           0       11.588620   -0.572486   -0.918930
     18          6           0       10.233560    2.167279    1.196445
     19          6           0       10.902141    0.104272    2.552536
     20          6           0      -11.395909    0.146433   -2.507636
     21          6           0       -8.481727    0.711088   -0.227770
     22          6           0        9.183753   -0.336440   -0.030269
     23          6           0       11.184793   -1.259698   -2.195501
     24          6           0       -7.094993    0.410340   -0.318291
     25          6           0        8.780820   -1.554560   -0.127477
     26          6           0       -6.630173   -0.958768   -0.106442
     27          6           0        7.433772   -2.010953   -0.227753
     28          6           0       -6.195976    1.423541   -0.378148
     29          6           0        7.128866   -3.537140    0.136320
     30          6           0        6.383635   -1.164597   -0.335403
     31          6           0       -4.796217    1.301905   -0.327961
     32          6           0        5.009659   -1.474200   -0.260923
     33          6           0       -4.067007    2.446586   -0.602121
     34          6           0       -2.641439    2.636687   -0.776803
     35          6           0        4.005826   -0.561258   -0.290818
     36          6           0        2.602526   -0.710720   -0.282292
     37          6           0       -2.093648    3.978558   -1.115636
     38          6           0       -1.821686    1.542161   -0.513411
     39          6           0        1.741444    0.421641   -0.423643
     40          6           0        2.122245   -2.177249   -0.016871
     41          6           0       -0.414886    1.546969   -0.615840
     42          6           0        0.359823    0.437578   -0.524835
     43          1           0      -10.886462    1.314907   -0.292790
     44          1           0      -12.420702   -1.694449    2.442181
     45          1           0      -10.937579   -1.948948    1.630494
     46          1           0      -12.310803   -3.236749    0.420762
     47          1           0       -9.987277    0.240364    2.555205
     48          1           0      -10.580752    1.762410    2.216337
     49          1           0      -11.334654    0.752214    3.386880
     50          1           0      -13.715816    0.421250    0.599287
     51          1           0      -13.427031    0.564848    2.428158
     52          1           0      -12.920147    1.975128    1.492932
     53          1           0       12.653179    2.088514    0.021138
     54          1           0       12.931011    1.847504    1.914698
     55          1           0      -12.860488   -1.998851   -1.871544
     56          1           0       13.641147   -0.517446    1.268056
     57          1           0       -9.292438   -1.261179   -0.193549
     58          1           0       13.837235   -0.876086   -1.536988
     59          1           0       13.254000    0.591667   -1.430597
     60          1           0        9.205256    2.059046    1.608942
     61          1           0       10.179873    2.701990    0.210517
     62          1           0       10.873190    3.045099    1.844133
     63          1           0       11.795241   -0.568431    2.660572
     64          1           0        9.962462   -0.270097    2.941584
     65          1           0       11.194898    0.771914    3.368019
     66          1           0      -10.193291   -0.101787   -2.716442
     67          1           0      -11.633336    1.231920   -2.512660
     68          1           0      -12.204784   -0.289576   -3.242095
     69          1           0      -14.448410   -2.535762   -0.131581
     70          1           0        8.451352    0.442294    0.068854
     71          1           0       -8.690644    1.848202    0.033803
     72          1           0       11.430254   -2.369094   -2.357704
     73          1           0       10.174270   -1.146546   -2.377080
     74          1           0       11.681419   -0.692173   -2.927402
     75          1           0       15.070891    1.138635    1.057110
     76          1           0        9.568749   -2.328669   -0.116378
     77          1           0       -5.518763   -1.217613   -0.277071
     78          1           0       -6.677215   -1.371171    0.973270
     79          1           0       -7.185319   -1.521612   -0.606547
     80          1           0       -6.471082    2.372778   -0.376213
     81          1           0        6.715367   -3.663282    1.146526
     82          1           0        6.239511   -3.747439   -0.541874
     83          1           0        7.905510   -4.312726   -0.030384
     84          1           0        6.892896   -0.256417   -0.537432
     85          1           0       -4.258377    0.606253    0.051199
     86          1           0        4.774037   -2.584477   -0.368393
     87          1           0       -4.761081    3.195553   -0.794344
     88          1           0        4.317950    0.464437   -0.393847
     89          1           0       -1.360450    3.858236   -2.056644
     90          1           0       -1.320169    4.482909   -0.364144
     91          1           0       -2.922630    4.689695   -1.429269
     92          1           0       -2.146105    0.412255   -0.287146
     93          1           0        2.105651    1.291735   -0.595715
     94          1           0        2.921933   -2.914720    0.620595
     95          1           0        1.072782   -2.121642    0.431552
     96          1           0        2.125390   -2.808948   -0.909494
     97          1           0        0.075534    2.491292   -0.743669
     98          1           0       -0.138689   -0.604089   -0.551881
 ---------------------------------------------------------------------

 SCF Done:  E(RCAM-B3LYP) =  -1706.95889922     A.U. after   15 cycles

 Excitation energies and oscillator strengths:

 Excited State   1:      Singlet-A      2.2070 eV  561.78 nm  f=2.9673  <S**2>=0.000
     155 ->158         0.14405
     156 ->157         0.69260
 This state for optimization and/or second-order correction.
 Total Energy, E(TD-HF/TD-DFT) =  -1706.87779420
 Copying the excited state density for this state as the 1-particle RhoCI density.

 The electronic state is 1-A.
 Alpha  occ. eigenvalues --  -19.21014 -19.20897 -10.31242 -10.30108 -10.28601
 Alpha  occ. eigenvalues --  -10.28584 -10.28318 -10.28225 -10.27771 -10.27456
 Alpha  occ. eigenvalues --  -10.27447 -10.27228 -10.27090 -10.26907 -10.26893
 Alpha  occ. eigenvalues --  -10.26761 -10.26686 -10.26631 -10.26595 -10.26579
 Alpha  occ. eigenvalues --  -10.26304 -10.26287 -10.26273 -10.26125 -10.25919
 Alpha  occ. eigenvalues --  -10.25754 -10.25742 -10.25737 -10.25686 -10.25604
 Alpha  occ. eigenvalues --  -10.25235 -10.25223 -10.25174 -10.24923 -10.24864
 Alpha  occ. eigenvalues --  -10.24778 -10.24535 -10.24477 -10.24372 -10.24368
 Alpha  occ. eigenvalues --  -10.23821 -10.22493  -1.13235  -1.06783  -0.93856
 Alpha  occ. eigenvalues --   -0.92842  -0.92610  -0.91838  -0.91129  -0.90012
 Alpha  occ. eigenvalues --   -0.87849  -0.86982  -0.86463  -0.85804  -0.84722
 Alpha  occ. eigenvalues --   -0.83472  -0.82362  -0.80482  -0.80171  -0.78176
 Alpha  occ. eigenvalues --   -0.77231  -0.76409  -0.75900  -0.75747  -0.75442
 Alpha  occ. eigenvalues --   -0.74849  -0.74654  -0.74560  -0.73112  -0.70627
 Alpha  occ. eigenvalues --   -0.69007  -0.67883  -0.67176  -0.65590  -0.64468
 Alpha  occ. eigenvalues --   -0.63825  -0.63004  -0.62238  -0.61730  -0.60272
 Alpha  occ. eigenvalues --   -0.59874  -0.58700  -0.58012  -0.57389  -0.56266
 Alpha  occ. eigenvalues --   -0.56053  -0.55534  -0.54648  -0.54184  -0.53928
 Alpha  occ. eigenvalues --   -0.53054  -0.52990  -0.52503  -0.52325  -0.51681
 Alpha  occ. eigenvalues --   -0.50272  -0.49968  -0.49593  -0.49385  -0.49221
 Alpha  occ. eigenvalues --   -0.48587  -0.48521  -0.48134  -0.47771  -0.47246
 Alpha  occ. eigenvalues --   -0.47114  -0.46735  -0.46675  -0.46482  -0.46309
 Alpha  occ. eigenvalues --   -0.46211  -0.45820  -0.45298  -0.45163  -0.44469
 Alpha  occ. eigenvalues --   -0.43994  -0.43762  -0.43578  -0.43527  -0.43346
 Alpha  occ. eigenvalues --   -0.43155  -0.43015  -0.42908  -0.42632  -0.42399
 Alpha  occ. eigenvalues --   -0.41962  -0.41806  -0.41547  -0.40805  -0.40370
 Alpha  occ. eigenvalues --   -0.40162  -0.40114  -0.39794  -0.39701  -0.39201
 Alpha  occ. eigenvalues --   -0.39021  -0.38930  -0.38753  -0.38268  -0.38013
 Alpha  occ. eigenvalues --   -0.37603  -0.37298  -0.37116  -0.36401  -0.36007
 Alpha  occ. eigenvalues --   -0.35589  -0.34489  -0.33741  -0.33085  -0.32919
 Alpha  occ. eigenvalues --   -0.31553  -0.29808  -0.28875  -0.26990  -0.24028
 Alpha  occ. eigenvalues --   -0.19858
 Alpha virt. eigenvalues --   -0.06038  -0.00676   0.02878   0.05819   0.07498
 Alpha virt. eigenvalues --    0.08498   0.11078   0.11468   0.12133   0.12531
 Alpha virt. eigenvalues --    0.12815   0.13211   0.13664   0.13949   0.14310

 Mulliken charges:
               1
     1  O   -0.545578
     2  O   -0.513740
     3  C    0.028998
     4  C   -0.094569
     5  C   -0.190886
     6  C    0.097165
     7  C    0.112920
     8  C    0.033539
     9  C   -0.302916
    10  C   -0.285451
    11  C   -0.203377
    12  C   -0.124286
    13  C    0.153448
    14  C    0.010532
    15  C   -0.114979
    16  C   -0.214467
    17  C    0.047264
    18  C   -0.294326
    19  C   -0.314386
    20  C   -0.341018
    21  C   -0.110932
    22  C   -0.133607
    23  C   -0.360610
    24  C    0.118352
    25  C   -0.071389
    26  C   -0.359375
    27  C    0.056437
    28  C   -0.122293
    29  C   -0.371566
    30  C   -0.081473
    31  C   -0.010969
    32  C   -0.096841
    33  C   -0.141976
    34  C    0.114014
    35  C   -0.104428
    36  C    0.106551
    37  C   -0.377429
    38  C   -0.120582
    39  C   -0.097646
    40  C   -0.372929
    41  C   -0.075252
    42  C   -0.084521
    43  H    0.089011
    44  H    0.110132
    45  H    0.100379
    46  H    0.094236
    47  H    0.113428
    48  H    0.075503
    49  H    0.103403
    50  H    0.127499
    51  H    0.092956
    52  H    0.078043
    53  H    0.070026
    54  H    0.084337
    55  H    0.062774
    56  H    0.089491
    57  H    0.067949
    58  H    0.071384
    59  H    0.139258
    60  H    0.105326
    61  H    0.113221
    62  H    0.064266
    63  H    0.098250
    64  H    0.121017
    65  H    0.096942
    66  H    0.111292
    67  H    0.115800
    68  H    0.095818
    69  H    0.302946
    70  H    0.090070
    71  H    0.069714
    72  H    0.105233
    73  H    0.127862
    74  H    0.115054
    75  H    0.285480
    76  H    0.087908
    77  H    0.099947
    78  H    0.107332
    79  H    0.120152
    80  H    0.073884
    81  H    0.127617
    82  H    0.104614
    83  H    0.106531
    84  H    0.070821
    85  H    0.069193
    86  H    0.080034
    87  H    0.064165
    88  H    0.076183
    89  H    0.109459
    90  H    0.119786
    91  H    0.116471
    92  H    0.081661
    93  H    0.064508
    94  H    0.092940
    95  H    0.110080
    96  H    0.130866
    97  H    0.078890
    98  H    0.073438
 Sum of Mulliken charges =  -0.00000

 Dipole moment (field-independent basis, Debye):
    X=              2.0231    Y=             -0.4115    Z=              0.1250  Tot=              2.0683
 Quadrupole moment (field-independent basis, Debye-Ang):
   XX=           -292.8154   YY=           -242.5877   ZZ=           -260.8385
   XY=              9.7508   XZ=             35.5042   YZ=              2.3046

 Normal termination of Gaussian 16 at Mon Jul 15 10:54:49 2019.
