 Gaussian 16, Revision A.03,
 Gaussian 16:  ES64L-G16RevA.03 25-Dec-2016

 -------------------------------------
 # td=(NStates=1) CAM-B3LYP/6-31G(d,p)
 -------------------------------------

 --
 TD
 --
 Symbolic Z-matrix:
 Charge =  0 Multiplicity = 1

                         Standard orientation:
 ---------------------------------------------------------------------
 Center     Atomic      Atomic             Coordinates (Angstroms)
 Number     Number       Type             X           Y           Z
 ---------------------------------------------------------------------
      1          8           0      -14.141280   -1.895829    0.870738
      2          8           0       14.699391    0.915831    0.217156
      3          6           0      -11.600035    0.211639    1.304872
      4          6           0      -10.931885    0.251417   -0.073980
      5          6           0      -11.955310   -1.302062    1.589549
      6          6           0      -12.758475   -2.074780    0.453972
      7          6           0      -11.619990   -0.529736   -1.072498
      8          6           0       11.026439    1.147798    1.093865
      9          6           0      -10.776538    0.897238    2.330406
     10          6           0      -12.990842    1.040366    1.174196
     11          6           0       12.529180    1.529991    0.859635
     12          6           0      -12.464360   -1.609434   -0.973512
     13          6           0       13.447050    0.399177    0.299139
     14          6           0       10.654480   -0.031446    0.093752
     15          6           0       -9.480728   -0.064317   -0.150193
     16          6           0       12.938645   -0.162930   -0.975764
     17          6           0       11.510620   -0.536389   -0.894257
     18          6           0       10.109205    2.413790    1.070195
     19          6           0       10.919382    0.468345    2.388742
     20          6           0      -11.385151   -0.234397   -2.510231
     21          6           0       -8.402077    0.737179   -0.312088
     22          6           0        9.203121   -0.375315    0.140237
     23          6           0       11.018082   -1.459599   -1.945909
     24          6           0       -7.021568    0.372758   -0.192431
     25          6           0        8.806772   -1.681417   -0.087278
     26          6           0       -6.674143   -0.998498    0.318049
     27          6           0        7.407212   -2.225442   -0.038022
     28          6           0       -6.166886    1.456603   -0.527718
     29          6           0        7.190660   -3.682399    0.185999
     30          6           0        6.320968   -1.416403   -0.128866
     31          6           0       -4.668461    1.443800   -0.507116
     32          6           0        4.988388   -1.722674   -0.053651
     33          6           0       -3.878022    2.547303   -0.704426
     34          6           0       -2.597162    2.626907   -0.767714
     35          6           0        4.013001   -0.646247   -0.286025
     36          6           0        2.559279   -0.816477   -0.324439
     37          6           0       -1.991264    3.920715   -1.035135
     38          6           0       -1.809313    1.492003   -0.518904
     39          6           0        1.737060    0.301591   -0.537152
     40          6           0        2.095976   -2.203055    0.112106
     41          6           0       -0.399698    1.475093   -0.657569
     42          6           0        0.419012    0.348959   -0.435882
     43          1           0      -10.847460    1.427551   -0.585655
     44          1           0      -12.577197   -1.247657    2.508606
     45          1           0      -10.918567   -1.740173    1.801880
     46          1           0      -12.525199   -3.221127    0.557407
     47          1           0       -9.732389    0.491749    2.478662
     48          1           0      -10.484437    1.845784    2.210295
     49          1           0      -11.232831    0.983783    3.358018
     50          1           0      -13.730262    0.482073    0.485029
     51          1           0      -13.226267    1.212423    2.399826
     52          1           0      -12.834022    2.087167    0.865659
     53          1           0       12.541724    2.087279    0.040382
     54          1           0       12.969390    1.931612    1.738364
     55          1           0      -13.075246   -2.156062   -1.845383
     56          1           0       13.600352   -0.333373    1.257347
     57          1           0       -9.100276   -1.099115    0.089927
     58          1           0       13.519741   -1.060427   -1.140236
     59          1           0       13.090979    0.509343   -1.669728
     60          1           0        9.214563    2.300085    1.541723
     61          1           0        9.953267    2.515947   -0.033864
     62          1           0       10.623409    3.192915    1.625570
     63          1           0       11.674446   -0.354975    2.640029
     64          1           0        9.855989    0.054716    2.396925
     65          1           0       11.115715    1.059599    3.154605
     66          1           0      -10.182029   -0.305585   -2.812720
     67          1           0      -11.586575    0.776221   -2.816523
     68          1           0      -11.941302   -0.790340   -3.402494
     69          1           0      -14.450516   -2.233460    0.031858
     70          1           0        8.497389    0.162502    0.539952
     71          1           0       -8.446588    1.710492   -0.806276
     72          1           0       11.070420   -2.515471   -1.747121
     73          1           0       10.057943   -1.197421   -2.187412
     74          1           0       11.597479   -1.252576   -2.854359
     75          1           0       15.235134    1.310368    1.145583
     76          1           0        9.605591   -2.444988   -0.209423
     77          1           0       -5.654121   -1.409476    0.555801
     78          1           0       -6.976246   -0.953903    1.565914
     79          1           0       -7.251031   -1.850691   -0.203904
     80          1           0       -6.764504    2.264612   -0.647344
     81          1           0        7.170794   -3.931759    1.367844
     82          1           0        6.190900   -4.070278   -0.107649
     83          1           0        8.025593   -4.185155   -0.306645
     84          1           0        6.449510   -0.371442   -0.367143
     85          1           0       -4.127817    0.442666   -0.516008
     86          1           0        4.370078   -2.568434    0.268097
     87          1           0       -4.392530    3.489957   -0.864579
     88          1           0        4.569361    0.328532   -0.721162
     89          1           0       -1.296786    3.733617   -1.986248
     90          1           0       -1.430705    4.339932   -0.289011
     91          1           0       -2.683286    4.359584   -1.609621
     92          1           0       -2.147303    0.625550   -0.361898
     93          1           0        2.337559    1.254997   -0.784137
     94          1           0        2.563932   -2.458384    1.015103
     95          1           0        0.919583   -2.254166    0.081494
     96          1           0        2.419298   -2.924751   -0.725567
     97          1           0        0.049230    2.512307   -0.868388
     98          1           0       -0.074494   -0.580133   -0.178275
 ---------------------------------------------------------------------

 SCF Done:  E(RCAM-B3LYP) =  -1706.86957347     A.U. after   15 cycles

 Excitation energies and oscillator strengths:

 Excited State   1:      Singlet-A      1.8177 eV  682.10 nm  f=3.0136  <S**2>=0.000
     155 ->158         0.13229
     156 ->157         0.70197
     156 <-157        -0.12312
 This state for optimization and/or second-order correction.
 Total Energy, E(TD-HF/TD-DFT) =  -1706.80277472
 Copying the excited state density for this state as the 1-particle RhoCI density.

 The electronic state is 1-A.
 Alpha  occ. eigenvalues --  -19.21177 -19.21114 -10.31783 -10.30461 -10.28717
 Alpha  occ. eigenvalues --  -10.28581 -10.28256 -10.28145 -10.27908 -10.27803
 Alpha  occ. eigenvalues --  -10.27607 -10.27535 -10.27292 -10.27098 -10.26965
 Alpha  occ. eigenvalues --  -10.26962 -10.26826 -10.26659 -10.26604 -10.26599
 Alpha  occ. eigenvalues --  -10.26522 -10.26434 -10.26433 -10.26350 -10.26327
 Alpha  occ. eigenvalues --  -10.26300 -10.26008 -10.26003 -10.25970 -10.25711
 Alpha  occ. eigenvalues --  -10.25711 -10.25113 -10.25048 -10.24873 -10.24635
 Alpha  occ. eigenvalues --  -10.24400 -10.24274 -10.24080 -10.23617 -10.23574
 Alpha  occ. eigenvalues --  -10.22687 -10.22580  -1.09656  -1.08564  -0.94228
 Alpha  occ. eigenvalues --   -0.94041  -0.92946  -0.91570  -0.90820  -0.90265
 Alpha  occ. eigenvalues --   -0.87899  -0.87001  -0.86867  -0.85213  -0.84422
 Alpha  occ. eigenvalues --   -0.82652  -0.82090  -0.80463  -0.79764  -0.79673
 Alpha  occ. eigenvalues --   -0.77466  -0.76885  -0.76669  -0.76515  -0.75241
 Alpha  occ. eigenvalues --   -0.74892  -0.74558  -0.73802  -0.72741  -0.70867
 Alpha  occ. eigenvalues --   -0.68452  -0.66816  -0.66168  -0.65214  -0.63727
 Alpha  occ. eigenvalues --   -0.63502  -0.63291  -0.62151  -0.60976  -0.60056
 Alpha  occ. eigenvalues --   -0.59910  -0.58412  -0.57826  -0.57072  -0.56492
 Alpha  occ. eigenvalues --   -0.55613  -0.55279  -0.54858  -0.54523  -0.54127
 Alpha  occ. eigenvalues --   -0.53820  -0.52968  -0.52511  -0.52265  -0.51880
 Alpha  occ. eigenvalues --   -0.51349  -0.51018  -0.50423  -0.50104  -0.49707
 Alpha  occ. eigenvalues --   -0.49274  -0.49086  -0.48483  -0.48278  -0.47441
 Alpha  occ. eigenvalues --   -0.47292  -0.47126  -0.46973  -0.46658  -0.46428
 Alpha  occ. eigenvalues --   -0.45877  -0.45518  -0.45331  -0.45201  -0.45031
 Alpha  occ. eigenvalues --   -0.44822  -0.44351  -0.43844  -0.43750  -0.43345
 Alpha  occ. eigenvalues --   -0.43319  -0.43171  -0.42707  -0.42518  -0.42385
 Alpha  occ. eigenvalues --   -0.42127  -0.41302  -0.41251  -0.40757  -0.40384
 Alpha  occ. eigenvalues --   -0.40306  -0.40049  -0.39952  -0.39656  -0.39333
 Alpha  occ. eigenvalues --   -0.38595  -0.38473  -0.38165  -0.37793  -0.37670
 Alpha  occ. eigenvalues --   -0.37630  -0.37510  -0.36981  -0.35550  -0.35204
 Alpha  occ. eigenvalues --   -0.34586  -0.34269  -0.34027  -0.32038  -0.31627
 Alpha  occ. eigenvalues --   -0.29416  -0.29231  -0.28702  -0.26593  -0.23442
 Alpha  occ. eigenvalues --   -0.18414
 Alpha virt. eigenvalues --   -0.07094  -0.01143   0.02621   0.04486   0.05961
 Alpha virt. eigenvalues --    0.07427   0.08752   0.10486   0.11317   0.11797
 Alpha virt. eigenvalues --    0.12675   0.13037   0.13722   0.13949   0.14216

 Mulliken charges:
               1
     1  O   -0.519163
     2  O   -0.582175
     3  C    0.029528
     4  C   -0.129363
     5  C   -0.180949
     6  C    0.098395
     7  C    0.160191
     8  C   -0.027141
     9  C   -0.321548
    10  C   -0.286690
    11  C   -0.173609
    12  C   -0.155885
    13  C    0.192189
    14  C    0.055726
    15  C   -0.091129
    16  C   -0.206248
    17  C    0.022135
    18  C   -0.304456
    19  C   -0.274885
    20  C   -0.358674
    21  C   -0.097254
    22  C   -0.100483
    23  C   -0.373637
    24  C    0.145522
    25  C   -0.113086
    26  C   -0.380409
    27  C    0.087052
    28  C   -0.135839
    29  C   -0.362700
    30  C   -0.121176
    31  C   -0.097384
    32  C   -0.065704
    33  C   -0.104767
    34  C    0.107411
    35  C   -0.145460
    36  C    0.080095
    37  C   -0.368597
    38  C   -0.060285
    39  C   -0.087402
    40  C   -0.382056
    41  C   -0.100719
    42  C   -0.088767
    43  H    0.070309
    44  H    0.123075
    45  H    0.088309
    46  H    0.075514
    47  H    0.094676
    48  H    0.119244
    49  H    0.092540
    50  H    0.124761
    51  H    0.064586
    52  H    0.095799
    53  H    0.097179
    54  H    0.067938
    55  H    0.093872
    56  H    0.029332
    57  H    0.076794
    58  H    0.121604
    59  H    0.129934
    60  H    0.110160
    61  H    0.107570
    62  H    0.107874
    63  H    0.087544
    64  H    0.089350
    65  H    0.091986
    66  H    0.089242
    67  H    0.113866
    68  H    0.098071
    69  H    0.296590
    70  H    0.081093
    71  H    0.077630
    72  H    0.119501
    73  H    0.139976
    74  H    0.094899
    75  H    0.318790
    76  H    0.084369
    77  H    0.121608
    78  H    0.092014
    79  H    0.121784
    80  H    0.079257
    81  H    0.102102
    82  H    0.118524
    83  H    0.111541
    84  H    0.079079
    85  H    0.090477
    86  H    0.080249
    87  H    0.071306
    88  H    0.069647
    89  H    0.098539
    90  H    0.145076
    91  H    0.119361
    92  H    0.046928
    93  H    0.081670
    94  H    0.144426
    95  H    0.099025
    96  H    0.123441
    97  H    0.073792
    98  H    0.075568
 Sum of Mulliken charges =  -0.00000

 Dipole moment (field-independent basis, Debye):
    X=              1.3493    Y=             -0.0200    Z=             -0.5228  Tot=              1.4472
 Quadrupole moment (field-independent basis, Debye-Ang):
   XX=           -289.1623   YY=           -245.2466   ZZ=           -260.7818
   XY=              5.3312   XZ=             40.4293   YZ=              3.6321

 Normal termination of Gaussian 16 at Sun Jul 14 06:53:02 2019.
