 Gaussian 16, Revision A.03,
 Gaussian 16:  ES64L-G16RevA.03 25-Dec-2016

 -------------------------------------
 # td=(NStates=1) CAM-B3LYP/6-31G(d,p)
 -------------------------------------

 --
 TD
 --
 Symbolic Z-matrix:
 Charge =  0 Multiplicity = 1

                         Standard orientation:
 ---------------------------------------------------------------------
 Center     Atomic      Atomic             Coordinates (Angstroms)
 Number     Number       Type             X           Y           Z
 ---------------------------------------------------------------------
      1          8           0      -14.039812   -2.055094    0.251069
      2          8           0       14.742930    0.779547   -0.107304
      3          6           0      -11.792004    0.088884    1.268913
      4          6           0      -10.878547    0.246708   -0.068789
      5          6           0      -11.995492   -1.538631    1.429716
      6          6           0      -12.621894   -2.171710    0.178959
      7          6           0      -11.360551   -0.540776   -1.235309
      8          6           0       11.107033    0.942505    1.031576
      9          6           0      -11.179285    0.522695    2.493640
     10          6           0      -13.148484    0.698609    0.984684
     11          6           0       12.526729    1.480926    0.603150
     12          6           0      -12.168727   -1.562397   -1.078212
     13          6           0       13.436142    0.330399    0.256544
     14          6           0       10.587586   -0.135406    0.078968
     15          6           0       -9.464037   -0.039160    0.162416
     16          6           0       12.805911   -0.360078   -1.023236
     17          6           0       11.381970   -0.643844   -0.913929
     18          6           0       10.216083    2.115007    1.118042
     19          6           0       11.100331    0.286713    2.454430
     20          6           0      -10.996746    0.016031   -2.590615
     21          6           0       -8.446582    0.752092   -0.016195
     22          6           0        9.212015   -0.529834    0.249407
     23          6           0       10.974101   -1.422366   -1.998944
     24          6           0       -6.996935    0.507110    0.028782
     25          6           0        8.744090   -1.764626   -0.092613
     26          6           0       -6.651383   -0.937594    0.220110
     27          6           0        7.373886   -2.062362    0.008753
     28          6           0       -6.143099    1.606894   -0.127335
     29          6           0        7.079408   -3.585769    0.180771
     30          6           0        6.347331   -1.175910   -0.219881
     31          6           0       -4.717740    1.535510   -0.269675
     32          6           0        4.962738   -1.359300    0.020309
     33          6           0       -3.901415    2.691667   -0.489711
     34          6           0       -2.524338    2.772768   -0.649289
     35          6           0        3.943620   -0.426317   -0.249499
     36          6           0        2.568553   -0.685815   -0.167401
     37          6           0       -1.977888    4.085671   -0.927549
     38          6           0       -1.740809    1.595296   -0.449305
     39          6           0        1.752889    0.462799   -0.315488
     40          6           0        1.980860   -2.097245    0.264639
     41          6           0       -0.342442    1.597211   -0.562904
     42          6           0        0.395726    0.400175   -0.311539
     43          1           0      -11.036187    1.352494   -0.361547
     44          1           0      -12.658507   -1.686005    2.147581
     45          1           0      -11.179268   -2.049831    1.585349
     46          1           0      -12.444146   -3.174512    0.229643
     47          1           0      -10.190998   -0.061466    2.490375
     48          1           0      -10.905719    1.343093    2.002395
     49          1           0      -11.658869    0.758065    3.432599
     50          1           0      -13.586238    0.554729    0.033948
     51          1           0      -13.971414    0.569918    1.794238
     52          1           0      -12.773171    1.863074    0.815908
     53          1           0       12.436157    2.231005   -0.141413
     54          1           0       12.978988    2.083954    1.509961
     55          1           0      -12.417729   -2.246022   -1.899499
     56          1           0       13.546832   -0.709555    0.801389
     57          1           0       -9.292999   -1.099345    0.472411
     58          1           0       13.534309   -1.253823   -0.984472
     59          1           0       12.870421    0.322431   -1.753479
     60          1           0        9.205166    1.688282    1.600188
     61          1           0       10.079580    2.574080    0.059794
     62          1           0       10.587603    2.938640    1.827656
     63          1           0       11.833811   -0.432989    2.431291
     64          1           0       10.016342    0.084950    2.908458
     65          1           0       11.646980    0.992788    3.267522
     66          1           0       -9.860927    0.006222   -2.813285
     67          1           0      -11.447375    1.091283   -2.705545
     68          1           0      -11.337609   -0.569098   -3.608460
     69          1           0      -14.602789   -2.453826   -0.451369
     70          1           0        8.474651    0.206237    0.928331
     71          1           0       -8.801858    1.886704   -0.502780
     72          1           0       10.992821   -2.548322   -2.046337
     73          1           0        9.878903   -1.506176   -2.193409
     74          1           0       11.563508   -1.088499   -2.934730
     75          1           0       15.355531    1.251563    0.461428
     76          1           0        9.432159   -2.379151   -0.347801
     77          1           0       -5.467630   -1.128903    0.162035
     78          1           0       -6.919337   -1.143476    1.332527
     79          1           0       -7.139222   -1.692078   -0.348680
     80          1           0       -6.643405    2.611858   -0.282243
     81          1           0        6.589287   -3.787376    1.172308
     82          1           0        6.156943   -3.675583   -0.549299
     83          1           0        7.944752   -4.215020   -0.284287
     84          1           0        6.522873   -0.134481   -0.529035
     85          1           0       -4.318698    0.619755   -0.130277
     86          1           0        4.618048   -2.303431    0.420437
     87          1           0       -4.636239    3.544424   -0.751535
     88          1           0        4.273031    0.528316   -0.680826
     89          1           0       -1.311085    4.019675   -1.656884
     90          1           0       -1.430739    4.619571   -0.108339
     91          1           0       -2.662072    4.914341   -1.295510
     92          1           0       -2.316787    0.699096   -0.458874
     93          1           0        2.437932    1.417934   -0.676186
     94          1           0        2.127603   -2.394088    1.317685
     95          1           0        0.929820   -2.029963   -0.200715
     96          1           0        2.561578   -3.008767   -0.300977
     97          1           0        0.248920    2.475240   -1.017999
     98          1           0       -0.150109   -0.452733    0.001868
 ---------------------------------------------------------------------

 SCF Done:  E(RCAM-B3LYP) =  -1706.90218705     A.U. after   15 cycles

 Excitation energies and oscillator strengths:

 Excited State   1:      Singlet-A      1.8381 eV  674.52 nm  f=3.0137  <S**2>=0.000
     155 ->158        -0.13650
     156 ->157         0.70031
     156 <-157        -0.11750
 This state for optimization and/or second-order correction.
 Total Energy, E(TD-HF/TD-DFT) =  -1706.83463785
 Copying the excited state density for this state as the 1-particle RhoCI density.

 The electronic state is 1-A.
 Alpha  occ. eigenvalues --  -19.20232 -19.19602 -10.31434 -10.28519 -10.28215
 Alpha  occ. eigenvalues --  -10.28193 -10.27657 -10.27560 -10.27424 -10.27384
 Alpha  occ. eigenvalues --  -10.27314 -10.27296 -10.27116 -10.27050 -10.27040
 Alpha  occ. eigenvalues --  -10.27034 -10.26904 -10.26902 -10.26860 -10.26743
 Alpha  occ. eigenvalues --  -10.26655 -10.26452 -10.26223 -10.26221 -10.26121
 Alpha  occ. eigenvalues --  -10.26092 -10.26004 -10.25980 -10.25976 -10.25826
 Alpha  occ. eigenvalues --  -10.25741 -10.25602 -10.25493 -10.25330 -10.25200
 Alpha  occ. eigenvalues --  -10.24702 -10.24614 -10.24370 -10.24101 -10.24092
 Alpha  occ. eigenvalues --  -10.22480 -10.21467  -1.08017  -1.07613  -0.94432
 Alpha  occ. eigenvalues --   -0.93947  -0.92137  -0.91222  -0.90403  -0.89923
 Alpha  occ. eigenvalues --   -0.88398  -0.87646  -0.86965  -0.85657  -0.84759
 Alpha  occ. eigenvalues --   -0.83133  -0.82212  -0.80859  -0.80028  -0.78227
 Alpha  occ. eigenvalues --   -0.76585  -0.76337  -0.76292  -0.75476  -0.75363
 Alpha  occ. eigenvalues --   -0.75183  -0.74775  -0.74716  -0.72294  -0.70474
 Alpha  occ. eigenvalues --   -0.69177  -0.68196  -0.66517  -0.64973  -0.63261
 Alpha  occ. eigenvalues --   -0.62958  -0.62342  -0.61780  -0.60674  -0.59788
 Alpha  occ. eigenvalues --   -0.59169  -0.58741  -0.58184  -0.58010  -0.56342
 Alpha  occ. eigenvalues --   -0.56072  -0.55328  -0.54607  -0.54302  -0.53969
 Alpha  occ. eigenvalues --   -0.53519  -0.53478  -0.52979  -0.52169  -0.51379
 Alpha  occ. eigenvalues --   -0.50662  -0.50491  -0.50248  -0.49872  -0.49224
 Alpha  occ. eigenvalues --   -0.48981  -0.48531  -0.48357  -0.48215  -0.47805
 Alpha  occ. eigenvalues --   -0.47725  -0.47118  -0.46696  -0.46456  -0.46302
 Alpha  occ. eigenvalues --   -0.45629  -0.45340  -0.44811  -0.44656  -0.44642
 Alpha  occ. eigenvalues --   -0.44246  -0.44037  -0.43513  -0.43295  -0.43157
 Alpha  occ. eigenvalues --   -0.42780  -0.42480  -0.42305  -0.42258  -0.41962
 Alpha  occ. eigenvalues --   -0.41459  -0.41000  -0.40898  -0.40469  -0.40053
 Alpha  occ. eigenvalues --   -0.39903  -0.39670  -0.39610  -0.39410  -0.39260
 Alpha  occ. eigenvalues --   -0.39114  -0.38815  -0.38028  -0.37777  -0.37644
 Alpha  occ. eigenvalues --   -0.37083  -0.36529  -0.36319  -0.35925  -0.34658
 Alpha  occ. eigenvalues --   -0.33948  -0.33190  -0.32567  -0.32058  -0.31874
 Alpha  occ. eigenvalues --   -0.30607  -0.29444  -0.29106  -0.26607  -0.23413
 Alpha  occ. eigenvalues --   -0.18277
 Alpha virt. eigenvalues --   -0.06751  -0.01200   0.02519   0.05668   0.07388
 Alpha virt. eigenvalues --    0.09057   0.11093   0.11650   0.11801   0.12430
 Alpha virt. eigenvalues --    0.12605   0.13009   0.13300   0.13430   0.13687

 Mulliken charges:
               1
     1  O   -0.577813
     2  O   -0.594874
     3  C    0.004984
     4  C   -0.169958
     5  C   -0.172679
     6  C    0.148775
     7  C    0.133683
     8  C   -0.038622
     9  C   -0.277379
    10  C   -0.271791
    11  C   -0.191351
    12  C   -0.113169
    13  C    0.177051
    14  C    0.104400
    15  C   -0.077982
    16  C   -0.227430
    17  C    0.078770
    18  C   -0.272454
    19  C   -0.281441
    20  C   -0.351580
    21  C   -0.078047
    22  C   -0.107036
    23  C   -0.396473
    24  C    0.108691
    25  C   -0.091312
    26  C   -0.374276
    27  C    0.067058
    28  C   -0.129725
    29  C   -0.373443
    30  C   -0.110017
    31  C   -0.056038
    32  C   -0.093039
    33  C   -0.139354
    34  C    0.108981
    35  C   -0.116372
    36  C    0.093254
    37  C   -0.385215
    38  C   -0.113979
    39  C   -0.100843
    40  C   -0.358576
    41  C   -0.096013
    42  C   -0.094223
    43  H    0.079745
    44  H    0.106928
    45  H    0.087381
    46  H    0.077478
    47  H    0.088508
    48  H    0.112261
    49  H    0.114712
    50  H    0.126663
    51  H    0.101154
    52  H    0.038066
    53  H    0.115778
    54  H    0.068113
    55  H    0.067146
    56  H    0.077861
    57  H    0.083890
    58  H    0.111318
    59  H    0.128287
    60  H    0.074193
    61  H    0.088319
    62  H    0.097494
    63  H    0.113789
    64  H    0.102285
    65  H    0.064175
    66  H    0.115413
    67  H    0.107998
    68  H    0.089227
    69  H    0.302839
    70  H    0.079553
    71  H    0.050785
    72  H    0.114631
    73  H    0.121364
    74  H    0.099663
    75  H    0.309699
    76  H    0.077090
    77  H    0.091190
    78  H    0.120314
    79  H    0.136627
    80  H    0.085402
    81  H    0.127662
    82  H    0.105568
    83  H    0.109892
    84  H    0.078719
    85  H    0.068996
    86  H    0.066490
    87  H    0.077566
    88  H    0.076246
    89  H    0.130940
    90  H    0.123504
    91  H    0.108337
    92  H    0.091852
    93  H    0.080151
    94  H    0.137045
    95  H    0.112297
    96  H    0.095880
    97  H    0.092763
    98  H    0.095612
 Sum of Mulliken charges =  -0.00000

 Dipole moment (field-independent basis, Debye):
    X=              0.9453    Y=             -0.9627    Z=             -0.6964  Tot=              1.5184
 Quadrupole moment (field-independent basis, Debye-Ang):
   XX=           -261.5631   YY=           -243.0176   ZZ=           -263.0406
   XY=             17.9898   XZ=             28.9796   YZ=             -0.4305

 Normal termination of Gaussian 16 at Mon Jul 15 06:22:48 2019.
