 Gaussian 16, Revision A.03,
 Gaussian 16:  ES64L-G16RevA.03 25-Dec-2016

 -------------------------------------
 # td=(NStates=1) CAM-B3LYP/6-31G(d,p)
 -------------------------------------

 --
 TD
 --
 Symbolic Z-matrix:
 Charge =  0 Multiplicity = 1

                         Standard orientation:
 ---------------------------------------------------------------------
 Center     Atomic      Atomic             Coordinates (Angstroms)
 Number     Number       Type             X           Y           Z
 ---------------------------------------------------------------------
      1          8           0      -14.005090   -1.997326    0.616100
      2          8           0       14.736354    0.841166    0.370195
      3          6           0      -11.701350    0.033684    1.439635
      4          6           0      -10.965314    0.343511    0.112300
      5          6           0      -11.975594   -1.510373    1.547696
      6          6           0      -12.616880   -2.133997    0.285106
      7          6           0      -11.567743   -0.243047   -1.145103
      8          6           0       11.006592    0.951039    1.189242
      9          6           0      -10.857547    0.445469    2.663980
     10          6           0      -12.994622    0.801730    1.434214
     11          6           0       12.458701    1.436330    0.931618
     12          6           0      -12.307724   -1.361153   -0.998657
     13          6           0       13.441850    0.394887    0.459494
     14          6           0       10.574474    0.016475    0.038230
     15          6           0       -9.525304    0.003184    0.069611
     16          6           0       12.923643   -0.192303   -0.839084
     17          6           0       11.446383   -0.356216   -0.841255
     18          6           0       10.127078    2.191876    1.319856
     19          6           0       10.971976    0.190803    2.569223
     20          6           0      -11.351232    0.385033   -2.404829
     21          6           0       -8.447591    0.780337   -0.291788
     22          6           0        9.199729   -0.295309    0.158207
     23          6           0       11.153067   -1.034599   -2.217385
     24          6           0       -7.073889    0.525379   -0.339273
     25          6           0        8.712517   -1.596155   -0.216211
     26          6           0       -6.578058   -0.924656   -0.065675
     27          6           0        7.414303   -2.142121   -0.137520
     28          6           0       -6.150517    1.537566   -0.538387
     29          6           0        7.253669   -3.589164    0.048009
     30          6           0        6.327945   -1.190956   -0.221128
     31          6           0       -4.758662    1.470643   -0.513309
     32          6           0        5.008415   -1.476247   -0.149801
     33          6           0       -4.019227    2.608965   -0.652035
     34          6           0       -2.547332    2.504482   -0.709312
     35          6           0        4.062743   -0.694448   -0.443148
     36          6           0        2.646720   -0.904377   -0.396728
     37          6           0       -1.952007    3.903988   -0.886169
     38          6           0       -1.753291    1.390084   -0.564026
     39          6           0        1.778697    0.201278   -0.547034
     40          6           0        2.091558   -2.205517   -0.101689
     41          6           0       -0.442918    1.341977   -0.609764
     42          6           0        0.413541    0.170137   -0.592133
     43          1           0      -10.880305    1.485168   -0.053907
     44          1           0      -12.553763   -1.937614    2.319256
     45          1           0      -11.029181   -1.975472    1.748840
     46          1           0      -12.480500   -3.213320    0.118800
     47          1           0       -9.956347   -0.259712    3.027818
     48          1           0      -10.374210    1.457756    2.574771
     49          1           0      -11.502560    0.331257    3.490323
     50          1           0      -13.583932    0.559093    0.528538
     51          1           0      -13.557160    0.453903    2.269400
     52          1           0      -12.796608    2.008243    1.673677
     53          1           0       12.548898    2.205918    0.178751
     54          1           0       12.626785    1.780224    1.855730
     55          1           0      -12.888964   -1.719072   -2.116407
     56          1           0       13.248566   -0.518326    1.269262
     57          1           0       -9.241998   -1.083350    0.209671
     58          1           0       13.295552   -1.218233   -1.193655
     59          1           0       13.086808    0.512872   -1.556260
     60          1           0        9.224677    1.811787    1.769134
     61          1           0        9.932902    2.675189    0.317866
     62          1           0       10.660265    2.981702    1.796962
     63          1           0       11.813686   -0.675954    2.515035
     64          1           0        9.843572   -0.314955    2.718796
     65          1           0       11.130304    0.771187    3.532978
     66          1           0      -10.437855    0.286135   -2.837653
     67          1           0      -11.885818    1.284564   -2.489949
     68          1           0      -11.744901   -0.412677   -3.108716
     69          1           0      -14.416333   -2.610188   -0.198070
     70          1           0        8.356901    0.566048    0.412924
     71          1           0       -8.745592    1.849215   -0.520833
     72          1           0       11.212098   -2.127013   -2.164205
     73          1           0       10.123277   -1.010428   -2.568332
     74          1           0       11.666320   -0.706717   -3.067403
     75          1           0       15.162831    1.365802    1.163317
     76          1           0        9.677432   -2.277442   -0.234580
     77          1           0       -5.615711   -1.070608   -0.015170
     78          1           0       -7.064045   -1.159895    0.855980
     79          1           0       -6.816992   -1.517545   -0.941462
     80          1           0       -6.668088    2.550520   -0.754078
     81          1           0        6.880902   -3.777568    1.083572
     82          1           0        6.198206   -3.857553   -0.604302
     83          1           0        8.132223   -4.185215   -0.334475
     84          1           0        6.493916   -0.183674   -0.478702
     85          1           0       -4.170300    0.492144   -0.588810
     86          1           0        4.556751   -2.555866   -0.196596
     87          1           0       -4.278961    3.638325   -0.696489
     88          1           0        4.198162    0.339089   -0.694038
     89          1           0       -1.452119    3.598958   -1.823704
     90          1           0       -1.453276    4.200125   -0.126865
     91          1           0       -2.659137    4.579459   -1.181130
     92          1           0       -2.284211    0.410109   -0.625580
     93          1           0        2.226049    1.239621   -0.619234
     94          1           0        2.311874   -2.510448    0.916856
     95          1           0        1.026016   -2.241946   -0.120078
     96          1           0        2.663294   -3.198182   -0.634665
     97          1           0        0.132283    2.183199   -0.544189
     98          1           0       -0.302585   -0.718673   -0.218944
 ---------------------------------------------------------------------

 SCF Done:  E(RCAM-B3LYP) =  -1706.91036682     A.U. after   15 cycles

 Excitation energies and oscillator strengths:

 Excited State   1:      Singlet-A      1.9039 eV  651.22 nm  f=3.1318  <S**2>=0.000
     155 ->158         0.14581
     156 ->157         0.69500
     156 <-157        -0.10396
 This state for optimization and/or second-order correction.
 Total Energy, E(TD-HF/TD-DFT) =  -1706.84040014
 Copying the excited state density for this state as the 1-particle RhoCI density.

 The electronic state is 1-A.
 Alpha  occ. eigenvalues --  -19.22281 -19.21859 -10.31484 -10.30778 -10.27593
 Alpha  occ. eigenvalues --  -10.27499 -10.27434 -10.27344 -10.27270 -10.27201
 Alpha  occ. eigenvalues --  -10.27102 -10.27032 -10.26994 -10.26862 -10.26840
 Alpha  occ. eigenvalues --  -10.26817 -10.26775 -10.26774 -10.26749 -10.26524
 Alpha  occ. eigenvalues --  -10.26497 -10.26479 -10.26303 -10.26247 -10.25976
 Alpha  occ. eigenvalues --  -10.25717 -10.25200 -10.25186 -10.25132 -10.25003
 Alpha  occ. eigenvalues --  -10.24797 -10.24549 -10.24497 -10.24480 -10.24359
 Alpha  occ. eigenvalues --  -10.24202 -10.24120 -10.24099 -10.24069 -10.23841
 Alpha  occ. eigenvalues --  -10.23415 -10.22938  -1.09273  -1.08215  -0.93998
 Alpha  occ. eigenvalues --   -0.93817  -0.92779  -0.92284  -0.90780  -0.89746
 Alpha  occ. eigenvalues --   -0.88057  -0.87552  -0.87010  -0.85926  -0.84592
 Alpha  occ. eigenvalues --   -0.83731  -0.82538  -0.80994  -0.79637  -0.79186
 Alpha  occ. eigenvalues --   -0.77878  -0.76907  -0.76217  -0.75866  -0.75664
 Alpha  occ. eigenvalues --   -0.75283  -0.74819  -0.73984  -0.72686  -0.70278
 Alpha  occ. eigenvalues --   -0.69238  -0.67549  -0.66680  -0.65358  -0.63580
 Alpha  occ. eigenvalues --   -0.63464  -0.62693  -0.61328  -0.60389  -0.60060
 Alpha  occ. eigenvalues --   -0.59280  -0.57866  -0.57580  -0.57360  -0.56376
 Alpha  occ. eigenvalues --   -0.56214  -0.55066  -0.54822  -0.54507  -0.54364
 Alpha  occ. eigenvalues --   -0.53828  -0.53045  -0.52807  -0.52535  -0.52074
 Alpha  occ. eigenvalues --   -0.51952  -0.50313  -0.50010  -0.49702  -0.49596
 Alpha  occ. eigenvalues --   -0.49302  -0.48654  -0.48429  -0.48189  -0.47852
 Alpha  occ. eigenvalues --   -0.47460  -0.47400  -0.47085  -0.46746  -0.46307
 Alpha  occ. eigenvalues --   -0.46159  -0.45996  -0.45496  -0.45366  -0.44808
 Alpha  occ. eigenvalues --   -0.44681  -0.44463  -0.43995  -0.43398  -0.43326
 Alpha  occ. eigenvalues --   -0.43136  -0.42847  -0.42321  -0.41902  -0.41579
 Alpha  occ. eigenvalues --   -0.41331  -0.40944  -0.40901  -0.40544  -0.40429
 Alpha  occ. eigenvalues --   -0.40000  -0.39585  -0.39487  -0.39163  -0.38965
 Alpha  occ. eigenvalues --   -0.38636  -0.38297  -0.38083  -0.37822  -0.37690
 Alpha  occ. eigenvalues --   -0.37311  -0.36896  -0.36739  -0.35852  -0.35664
 Alpha  occ. eigenvalues --   -0.35190  -0.34706  -0.33518  -0.32948  -0.32237
 Alpha  occ. eigenvalues --   -0.30586  -0.29870  -0.29308  -0.26098  -0.23120
 Alpha  occ. eigenvalues --   -0.18275
 Alpha virt. eigenvalues --   -0.06350  -0.01479   0.02263   0.05870   0.07654
 Alpha virt. eigenvalues --    0.09368   0.10455   0.11036   0.11141   0.11979
 Alpha virt. eigenvalues --    0.12202   0.12425   0.12830   0.13187   0.14121

 Mulliken charges:
               1
     1  O   -0.532117
     2  O   -0.573430
     3  C    0.033081
     4  C   -0.149067
     5  C   -0.186516
     6  C    0.097896
     7  C    0.127144
     8  C   -0.039165
     9  C   -0.306064
    10  C   -0.278613
    11  C   -0.189275
    12  C   -0.107343
    13  C    0.207330
    14  C    0.120438
    15  C   -0.075238
    16  C   -0.199771
    17  C    0.013042
    18  C   -0.298912
    19  C   -0.298062
    20  C   -0.360205
    21  C   -0.108093
    22  C   -0.117443
    23  C   -0.378149
    24  C    0.100546
    25  C   -0.140761
    26  C   -0.354434
    27  C    0.096751
    28  C   -0.133286
    29  C   -0.362821
    30  C   -0.114732
    31  C   -0.073859
    32  C   -0.057408
    33  C   -0.085950
    34  C    0.018527
    35  C   -0.092066
    36  C    0.133945
    37  C   -0.356134
    38  C   -0.089392
    39  C   -0.140048
    40  C   -0.390564
    41  C   -0.086275
    42  C   -0.101244
    43  H    0.082803
    44  H    0.124256
    45  H    0.094487
    46  H    0.090476
    47  H    0.078939
    48  H    0.103904
    49  H    0.109709
    50  H    0.123380
    51  H    0.110024
    52  H    0.062211
    53  H    0.091183
    54  H    0.086977
    55  H    0.034100
    56  H    0.020838
    57  H    0.077260
    58  H    0.113103
    59  H    0.125079
    60  H    0.108387
    61  H    0.096398
    62  H    0.103386
    63  H    0.090111
    64  H    0.086069
    65  H    0.098644
    66  H    0.138088
    67  H    0.130647
    68  H    0.093952
    69  H    0.295194
    70  H    0.083869
    71  H    0.064344
    72  H    0.111206
    73  H    0.114771
    74  H    0.115521
    75  H    0.320757
    76  H    0.075021
    77  H    0.111079
    78  H    0.125430
    79  H    0.120232
    80  H    0.075961
    81  H    0.138442
    82  H    0.085034
    83  H    0.120817
    84  H    0.086567
    85  H    0.098910
    86  H    0.058206
    87  H    0.089101
    88  H    0.059886
    89  H    0.130457
    90  H    0.135669
    91  H    0.107523
    92  H    0.065417
    93  H    0.086393
    94  H    0.131786
    95  H    0.115811
    96  H    0.082959
    97  H    0.075181
    98  H    0.071783
 Sum of Mulliken charges =  -0.00000

 Dipole moment (field-independent basis, Debye):
    X=             -1.6657    Y=             -0.0501    Z=             -0.0589  Tot=              1.6675
 Quadrupole moment (field-independent basis, Debye-Ang):
   XX=           -268.8342   YY=           -240.6081   ZZ=           -260.3533
   XY=             21.9742   XZ=             29.8753   YZ=              2.3640

 Normal termination of Gaussian 16 at Tue Jul 16 00:11:11 2019.
