 Gaussian 16, Revision A.03,
 Gaussian 16:  ES64L-G16RevA.03 25-Dec-2016

 -------------------------------------
 # td=(NStates=1) CAM-B3LYP/6-31G(d,p)
 -------------------------------------

 --
 TD
 --
 Symbolic Z-matrix:
 Charge =  0 Multiplicity = 1

                         Standard orientation:
 ---------------------------------------------------------------------
 Center     Atomic      Atomic             Coordinates (Angstroms)
 Number     Number       Type             X           Y           Z
 ---------------------------------------------------------------------
      1          8           0      -14.116307   -1.696196    0.896206
      2          8           0       14.736142    1.118454    0.482220
      3          6           0      -11.745790    0.278015    1.350943
      4          6           0      -10.934263    0.315891    0.017163
      5          6           0      -11.971194   -1.199482    1.616879
      6          6           0      -12.726967   -1.962550    0.542089
      7          6           0      -11.520490   -0.621914   -1.074281
      8          6           0       10.941426    1.120424    1.109015
      9          6           0      -10.916518    0.864270    2.421667
     10          6           0      -13.038211    1.014057    1.163686
     11          6           0       12.382320    1.672390    0.907270
     12          6           0      -12.327681   -1.658117   -0.839516
     13          6           0       13.361225    0.575277    0.607417
     14          6           0       10.633186   -0.006933    0.088350
     15          6           0       -9.465482   -0.029231    0.047225
     16          6           0       12.968693   -0.059765   -0.766216
     17          6           0       11.522547   -0.462195   -0.749426
     18          6           0       10.046301    2.265556    0.960879
     19          6           0       10.870797    0.480753    2.513668
     20          6           0      -11.217053   -0.196992   -2.498990
     21          6           0       -8.436290    0.770792   -0.334466
     22          6           0        9.235138   -0.411731    0.049876
     23          6           0       11.318298   -1.409277   -1.998606
     24          6           0       -7.108277    0.507148   -0.328600
     25          6           0        8.838495   -1.679644   -0.073957
     26          6           0       -6.663292   -0.873361    0.315019
     27          6           0        7.394851   -2.165935   -0.048865
     28          6           0       -6.142646    1.527372   -0.498437
     29          6           0        7.222314   -3.659189    0.107531
     30          6           0        6.343850   -1.385541   -0.205968
     31          6           0       -4.729675    1.377683   -0.452051
     32          6           0        5.019325   -1.655124   -0.196217
     33          6           0       -3.908369    2.425058   -0.818081
     34          6           0       -2.538942    2.486942   -0.868125
     35          6           0        4.052773   -0.709170   -0.472781
     36          6           0        2.663511   -1.027816   -0.366477
     37          6           0       -1.863310    3.679594   -1.460752
     38          6           0       -1.812810    1.348985   -0.606200
     39          6           0        1.736759    0.052314   -0.585048
     40          6           0        2.151248   -2.283488    0.031358
     41          6           0       -0.403054    1.192556   -0.710160
     42          6           0        0.336888    0.059992   -0.445999
     43          1           0      -11.054528    1.337613   -0.336807
     44          1           0      -12.759684   -1.089841    2.367245
     45          1           0      -11.117346   -1.676727    1.989797
     46          1           0      -12.540941   -3.008894    0.813439
     47          1           0      -10.011851    0.451762    2.786606
     48          1           0      -10.708879    1.942931    2.165282
     49          1           0      -11.474167    0.882168    3.438877
     50          1           0      -13.822403    0.830137    0.464258
     51          1           0      -13.715115    0.732091    1.973650
     52          1           0      -13.091444    2.016465    1.088528
     53          1           0       12.574700    2.444712    0.085309
     54          1           0       12.519791    2.161360    1.861080
     55          1           0      -12.811844   -2.078850   -1.680694
     56          1           0       13.575192   -0.195103    1.291738
     57          1           0       -9.042551   -0.889670    0.281855
     58          1           0       13.634872   -0.925088   -0.941995
     59          1           0       13.212970    0.584721   -1.609883
     60          1           0        9.094620    2.048161    1.356767
     61          1           0        9.996453    2.603817    0.011309
     62          1           0       10.340807    3.022845    1.763854
     63          1           0       11.384773   -0.509140    2.615464
     64          1           0        9.895404    0.087480    2.516556
     65          1           0       11.116981    1.127594    3.403322
     66          1           0      -10.218275   -0.067927   -2.644632
     67          1           0      -11.720912    0.692840   -2.688844
     68          1           0      -11.733831   -0.961624   -3.220558
     69          1           0      -14.689471   -1.872738    0.044129
     70          1           0        8.504656    0.292789    0.384953
     71          1           0       -8.623927    1.869005   -0.640059
     72          1           0       11.460373   -2.517020   -1.735688
     73          1           0       10.309007   -1.349156   -2.458927
     74          1           0       12.073871   -1.200240   -2.834963
     75          1           0       14.678052    1.876049    1.223062
     76          1           0        9.589555   -2.492871   -0.113112
     77          1           0       -5.617999   -0.996915   -0.002940
     78          1           0       -7.036628   -0.933150    1.368972
     79          1           0       -7.304344   -1.503092   -0.224595
     80          1           0       -6.728765    2.391538   -1.025388
     81          1           0        6.706698   -3.814414    1.039992
     82          1           0        6.634003   -3.892567   -0.729557
     83          1           0        8.204303   -4.135290    0.185024
     84          1           0        6.762563   -0.268350   -0.100841
     85          1           0       -4.400404    0.411305   -0.043327
     86          1           0        4.677107   -2.615993    0.041868
     87          1           0       -4.443630    3.246142   -1.331693
     88          1           0        4.149714    0.408724   -0.701533
     89          1           0       -1.112571    3.444923   -2.360893
     90          1           0       -1.123637    4.246232   -0.720831
     91          1           0       -2.471282    4.597234   -1.632159
     92          1           0       -2.442600    0.321728   -0.429161
     93          1           0        2.199424    1.120323   -0.951050
     94          1           0        2.652240   -2.747231    0.814893
     95          1           0        1.105714   -2.252571    0.063310
     96          1           0        2.190344   -3.147205   -0.881041
     97          1           0        0.233328    1.942310   -1.125175
     98          1           0       -0.034912   -0.717081   -0.007093
 ---------------------------------------------------------------------

 SCF Done:  E(RCAM-B3LYP) =  -1707.02716579     A.U. after   15 cycles

 Excitation energies and oscillator strengths:

 Excited State   1:      Singlet-A      2.0677 eV  599.63 nm  f=3.0402  <S**2>=0.000
     155 ->158        -0.13913
     156 ->157         0.69526
 This state for optimization and/or second-order correction.
 Total Energy, E(TD-HF/TD-DFT) =  -1706.95118044
 Copying the excited state density for this state as the 1-particle RhoCI density.

 The electronic state is 1-A.
 Alpha  occ. eigenvalues --  -19.21256 -19.20374 -10.29771 -10.29277 -10.27672
 Alpha  occ. eigenvalues --  -10.27616 -10.27477 -10.27383 -10.27336 -10.27163
 Alpha  occ. eigenvalues --  -10.27022 -10.26935 -10.26874 -10.26826 -10.26688
 Alpha  occ. eigenvalues --  -10.26561 -10.26526 -10.26469 -10.26412 -10.26410
 Alpha  occ. eigenvalues --  -10.26373 -10.26318 -10.26269 -10.25842 -10.25767
 Alpha  occ. eigenvalues --  -10.25552 -10.25508 -10.25508 -10.25503 -10.25466
 Alpha  occ. eigenvalues --  -10.25405 -10.25125 -10.24978 -10.24923 -10.24861
 Alpha  occ. eigenvalues --  -10.24560 -10.24464 -10.24351 -10.24225 -10.23933
 Alpha  occ. eigenvalues --  -10.23132 -10.21935  -1.07075  -1.05548  -0.94403
 Alpha  occ. eigenvalues --   -0.93896  -0.92842  -0.92327  -0.91147  -0.90644
 Alpha  occ. eigenvalues --   -0.88016  -0.87646  -0.87427  -0.85821  -0.85067
 Alpha  occ. eigenvalues --   -0.83157  -0.82589  -0.80486  -0.80111  -0.78159
 Alpha  occ. eigenvalues --   -0.77713  -0.77058  -0.76945  -0.76697  -0.76170
 Alpha  occ. eigenvalues --   -0.76124  -0.75705  -0.75099  -0.73191  -0.71440
 Alpha  occ. eigenvalues --   -0.68957  -0.67854  -0.67017  -0.65537  -0.64400
 Alpha  occ. eigenvalues --   -0.63970  -0.63314  -0.62932  -0.60871  -0.59755
 Alpha  occ. eigenvalues --   -0.58783  -0.58288  -0.57987  -0.57519  -0.56454
 Alpha  occ. eigenvalues --   -0.56101  -0.55249  -0.54505  -0.54307  -0.53744
 Alpha  occ. eigenvalues --   -0.53600  -0.53141  -0.52869  -0.52608  -0.51637
 Alpha  occ. eigenvalues --   -0.51409  -0.50517  -0.50321  -0.49960  -0.49388
 Alpha  occ. eigenvalues --   -0.48997  -0.48808  -0.48689  -0.48483  -0.47970
 Alpha  occ. eigenvalues --   -0.47831  -0.47771  -0.47443  -0.46904  -0.46597
 Alpha  occ. eigenvalues --   -0.45818  -0.45790  -0.45570  -0.45143  -0.44888
 Alpha  occ. eigenvalues --   -0.44802  -0.44290  -0.43962  -0.43666  -0.43371
 Alpha  occ. eigenvalues --   -0.43024  -0.42854  -0.42551  -0.42461  -0.42326
 Alpha  occ. eigenvalues --   -0.41853  -0.41642  -0.41603  -0.41508  -0.41245
 Alpha  occ. eigenvalues --   -0.40502  -0.40421  -0.40231  -0.40018  -0.39861
 Alpha  occ. eigenvalues --   -0.39677  -0.39263  -0.39246  -0.38469  -0.38200
 Alpha  occ. eigenvalues --   -0.37080  -0.36989  -0.36796  -0.36313  -0.35837
 Alpha  occ. eigenvalues --   -0.35422  -0.34678  -0.34025  -0.32108  -0.31706
 Alpha  occ. eigenvalues --   -0.31200  -0.30038  -0.29567  -0.27021  -0.23634
 Alpha  occ. eigenvalues --   -0.19330
 Alpha virt. eigenvalues --   -0.06336  -0.01133   0.02634   0.05620   0.07198
 Alpha virt. eigenvalues --    0.09076   0.11429   0.11969   0.12168   0.12486
 Alpha virt. eigenvalues --    0.13182   0.13239   0.13483   0.14001   0.14281

 Mulliken charges:
               1
     1  O   -0.563830
     2  O   -0.588320
     3  C    0.043487
     4  C   -0.128304
     5  C   -0.201505
     6  C    0.150605
     7  C    0.101925
     8  C   -0.033769
     9  C   -0.304683
    10  C   -0.318232
    11  C   -0.204115
    12  C   -0.134545
    13  C    0.166493
    14  C    0.069279
    15  C   -0.068695
    16  C   -0.235007
    17  C    0.043613
    18  C   -0.289567
    19  C   -0.312988
    20  C   -0.349581
    21  C   -0.075544
    22  C   -0.111505
    23  C   -0.363555
    24  C    0.060132
    25  C   -0.099296
    26  C   -0.369873
    27  C    0.045537
    28  C   -0.113868
    29  C   -0.370302
    30  C   -0.077608
    31  C   -0.067822
    32  C   -0.117454
    33  C   -0.140240
    34  C    0.156248
    35  C   -0.088216
    36  C    0.140350
    37  C   -0.388642
    38  C   -0.130559
    39  C   -0.159583
    40  C   -0.379105
    41  C   -0.088848
    42  C   -0.040648
    43  H    0.092014
    44  H    0.124413
    45  H    0.095189
    46  H    0.081121
    47  H    0.113123
    48  H    0.092250
    49  H    0.082124
    50  H    0.109906
    51  H    0.106451
    52  H    0.097095
    53  H    0.101856
    54  H    0.082086
    55  H    0.071056
    56  H    0.100621
    57  H    0.059550
    58  H    0.110540
    59  H    0.122193
    60  H    0.103116
    61  H    0.121913
    62  H    0.087891
    63  H    0.107601
    64  H    0.113008
    65  H    0.098589
    66  H    0.129565
    67  H    0.124584
    68  H    0.087909
    69  H    0.297740
    70  H    0.089831
    71  H    0.055742
    72  H    0.107255
    73  H    0.120094
    74  H    0.102613
    75  H    0.297260
    76  H    0.085416
    77  H    0.106339
    78  H    0.129676
    79  H    0.127584
    80  H    0.070856
    81  H    0.125085
    82  H    0.134033
    83  H    0.104085
    84  H    0.056219
    85  H    0.091230
    86  H    0.089250
    87  H    0.086550
    88  H    0.086811
    89  H    0.117469
    90  H    0.104299
    91  H    0.115585
    92  H    0.074844
    93  H    0.062946
    94  H    0.130379
    95  H    0.120174
    96  H    0.084034
    97  H    0.079415
    98  H    0.069563
 Sum of Mulliken charges =  -0.00000

 Dipole moment (field-independent basis, Debye):
    X=             -1.2378    Y=             -0.1216    Z=             -0.3256  Tot=              1.2856
 Quadrupole moment (field-independent basis, Debye-Ang):
   XX=           -302.2724   YY=           -244.3161   ZZ=           -260.6933
   XY=              1.3578   XZ=             36.2293   YZ=             -0.2561

 Normal termination of Gaussian 16 at Mon Jul 15 00:32:13 2019.
