 Gaussian 16, Revision A.03,
 Gaussian 16:  ES64L-G16RevA.03 25-Dec-2016

 -------------------------------------
 # td=(NStates=1) CAM-B3LYP/6-31G(d,p)
 -------------------------------------

 --
 TD
 --
 Symbolic Z-matrix:
 Charge =  0 Multiplicity = 1

                         Standard orientation:
 ---------------------------------------------------------------------
 Center     Atomic      Atomic             Coordinates (Angstroms)
 Number     Number       Type             X           Y           Z
 ---------------------------------------------------------------------
      1          8           0      -14.075239   -2.016706    0.500084
      2          8           0       14.750845    0.947069    0.271432
      3          6           0      -11.739691    0.112711    1.275102
      4          6           0      -10.941697    0.343471   -0.134335
      5          6           0      -12.014716   -1.313886    1.401044
      6          6           0      -12.674152   -2.047852    0.284391
      7          6           0      -11.578105   -0.386892   -1.293448
      8          6           0       11.079451    1.173348    0.852316
      9          6           0      -11.038115    0.586127    2.444371
     10          6           0      -13.066807    0.874818    1.067934
     11          6           0       12.587496    1.534905    0.729070
     12          6           0      -12.309712   -1.458336   -1.025384
     13          6           0       13.510253    0.348903    0.496879
     14          6           0       10.641209    0.038360   -0.138254
     15          6           0       -9.543747   -0.034216    0.012165
     16          6           0       12.989868   -0.246402   -0.875556
     17          6           0       11.543230   -0.561613   -0.917999
     18          6           0       10.088976    2.357932    0.830529
     19          6           0       10.831038    0.599404    2.330351
     20          6           0      -11.222499    0.051271   -2.614416
     21          6           0       -8.579091    0.906884   -0.029468
     22          6           0        9.260733   -0.323417    0.047275
     23          6           0       11.163791   -1.474356   -2.045340
     24          6           0       -7.158605    0.457754   -0.018903
     25          6           0        8.871536   -1.688512    0.038227
     26          6           0       -6.675001   -0.879855    0.307655
     27          6           0        7.484362   -2.145548   -0.018797
     28          6           0       -6.192685    1.447329   -0.305469
     29          6           0        7.304115   -3.605631    0.250955
     30          6           0        6.430195   -1.308507   -0.246289
     31          6           0       -4.812105    1.405596   -0.339528
     32          6           0        5.093521   -1.650220   -0.074249
     33          6           0       -3.913695    2.478664   -0.567034
     34          6           0       -2.551485    2.458542   -0.640664
     35          6           0        3.952751   -0.733789   -0.230201
     36          6           0        2.528516   -0.870863   -0.116032
     37          6           0       -1.873227    3.748407   -1.059459
     38          6           0       -1.822754    1.374122   -0.341371
     39          6           0        1.691317    0.302903   -0.312086
     40          6           0        2.074528   -2.176065    0.312120
     41          6           0       -0.435208    1.369160   -0.590438
     42          6           0        0.386385    0.174242   -0.362589
     43          1           0      -10.859679    1.448140   -0.282723
     44          1           0      -12.485263   -1.425624    2.310432
     45          1           0      -10.911455   -1.817567    1.624467
     46          1           0      -12.390641   -3.197479    0.322687
     47          1           0      -10.013389    0.390453    2.680185
     48          1           0      -10.758642    1.741988    2.245822
     49          1           0      -11.985172    0.878596    3.371280
     50          1           0      -13.705910    0.202500    0.445943
     51          1           0      -13.455731    0.849784    1.971960
     52          1           0      -12.959498    2.043483    0.615142
     53          1           0       12.772464    2.111074   -0.162956
     54          1           0       12.833281    2.096718    1.533914
     55          1           0      -12.803436   -1.762011   -1.967669
     56          1           0       13.511847   -0.482341    1.230478
     57          1           0       -9.375283   -1.191969    0.178510
     58          1           0       13.512910   -1.190303   -1.209150
     59          1           0       13.338052    0.491426   -1.614112
     60          1           0        9.154980    2.269284    1.168494
     61          1           0        9.969207    2.669556   -0.254296
     62          1           0       10.471850    3.229969    1.347757
     63          1           0       11.517196   -0.211602    2.453563
     64          1           0        9.943516    0.350937    2.688439
     65          1           0       10.930048    1.376020    2.866562
     66          1           0      -10.236421    0.223053   -2.921195
     67          1           0      -11.745371    0.998205   -2.747634
     68          1           0      -11.451836   -0.676571   -3.501449
     69          1           0      -14.549022   -2.504505   -0.289590
     70          1           0        8.489505    0.458264   -0.066126
     71          1           0       -8.870943    1.938961   -0.453398
     72          1           0       11.762312   -2.530145   -2.056521
     73          1           0       10.021124   -1.513552   -2.040264
     74          1           0       11.389587   -0.878535   -3.055961
     75          1           0       15.113366    1.206743    1.183881
     76          1           0        9.554077   -2.498367    0.143117
     77          1           0       -5.716867   -1.001800    0.195577
     78          1           0       -6.988361   -1.080387    1.297254
     79          1           0       -7.380809   -1.489157   -0.291610
     80          1           0       -6.712311    2.371642   -0.567245
     81          1           0        7.076172   -3.962531    1.191437
     82          1           0        6.640218   -4.200168   -0.435933
     83          1           0        8.165983   -4.254786    0.236065
     84          1           0        6.595316   -0.128194   -0.703955
     85          1           0       -4.167372    0.524823   -0.272271
     86          1           0        4.924321   -2.632831    0.264991
     87          1           0       -4.544275    3.274313   -0.803207
     88          1           0        4.175253    0.354722   -0.320233
     89          1           0       -1.226783    3.626201   -1.935565
     90          1           0       -1.352356    4.226772   -0.108512
     91          1           0       -2.578126    4.717502   -1.447917
     92          1           0       -2.214422    0.424661   -0.003897
     93          1           0        2.184038    1.309330   -0.664343
     94          1           0        2.928598   -2.688163    1.200886
     95          1           0        0.822062   -2.127011    0.725268
     96          1           0        2.083546   -2.886328   -0.753386
     97          1           0        0.114483    2.231479   -0.891437
     98          1           0       -0.181836   -0.580938   -0.142131
 ---------------------------------------------------------------------

 SCF Done:  E(RCAM-B3LYP) =  -1706.84232756     A.U. after   16 cycles

 Excitation energies and oscillator strengths:

 Excited State   1:      Singlet-A      1.6978 eV  730.28 nm  f=3.0561  <S**2>=0.000
     155 ->158         0.12264
     156 ->157         0.70736
     156 <-157        -0.14205
 This state for optimization and/or second-order correction.
 Total Energy, E(TD-HF/TD-DFT) =  -1706.77993588
 Copying the excited state density for this state as the 1-particle RhoCI density.

 The electronic state is 1-A.
 Alpha  occ. eigenvalues --  -19.22316 -19.21638 -10.32010 -10.30459 -10.30413
 Alpha  occ. eigenvalues --  -10.28048 -10.27848 -10.27440 -10.27335 -10.27154
 Alpha  occ. eigenvalues --  -10.27037 -10.26938 -10.26932 -10.26903 -10.26888
 Alpha  occ. eigenvalues --  -10.26820 -10.26742 -10.26614 -10.26560 -10.26404
 Alpha  occ. eigenvalues --  -10.26327 -10.26312 -10.26190 -10.26093 -10.25857
 Alpha  occ. eigenvalues --  -10.25805 -10.25743 -10.25701 -10.25595 -10.25373
 Alpha  occ. eigenvalues --  -10.25146 -10.25062 -10.24949 -10.24838 -10.24756
 Alpha  occ. eigenvalues --  -10.24691 -10.24506 -10.24275 -10.23828 -10.23469
 Alpha  occ. eigenvalues --  -10.23439 -10.20727  -1.09793  -1.09315  -0.95122
 Alpha  occ. eigenvalues --   -0.92898  -0.92637  -0.91463  -0.90814  -0.89931
 Alpha  occ. eigenvalues --   -0.89114  -0.86853  -0.86412  -0.85749  -0.84378
 Alpha  occ. eigenvalues --   -0.83445  -0.81966  -0.81435  -0.79498  -0.78513
 Alpha  occ. eigenvalues --   -0.77538  -0.76766  -0.76753  -0.75867  -0.75445
 Alpha  occ. eigenvalues --   -0.75386  -0.74621  -0.73757  -0.71935  -0.70227
 Alpha  occ. eigenvalues --   -0.69140  -0.68072  -0.66392  -0.65216  -0.63856
 Alpha  occ. eigenvalues --   -0.63259  -0.63138  -0.62684  -0.60510  -0.60412
 Alpha  occ. eigenvalues --   -0.59398  -0.58256  -0.58046  -0.57422  -0.56831
 Alpha  occ. eigenvalues --   -0.56255  -0.55112  -0.54848  -0.54496  -0.53859
 Alpha  occ. eigenvalues --   -0.53804  -0.53338  -0.52336  -0.51771  -0.51701
 Alpha  occ. eigenvalues --   -0.51028  -0.50237  -0.50051  -0.49314  -0.49105
 Alpha  occ. eigenvalues --   -0.49024  -0.49004  -0.48772  -0.48376  -0.48170
 Alpha  occ. eigenvalues --   -0.47688  -0.47510  -0.47304  -0.46288  -0.46103
 Alpha  occ. eigenvalues --   -0.45986  -0.45577  -0.45347  -0.44932  -0.44582
 Alpha  occ. eigenvalues --   -0.44137  -0.43877  -0.43747  -0.43309  -0.42816
 Alpha  occ. eigenvalues --   -0.42664  -0.42455  -0.42295  -0.42008  -0.41729
 Alpha  occ. eigenvalues --   -0.41463  -0.41344  -0.41219  -0.41086  -0.40471
 Alpha  occ. eigenvalues --   -0.40416  -0.40109  -0.39636  -0.39255  -0.39201
 Alpha  occ. eigenvalues --   -0.38839  -0.38586  -0.38438  -0.37938  -0.37627
 Alpha  occ. eigenvalues --   -0.37193  -0.37129  -0.36377  -0.36120  -0.36021
 Alpha  occ. eigenvalues --   -0.34546  -0.34157  -0.32783  -0.32494  -0.32070
 Alpha  occ. eigenvalues --   -0.31383  -0.29732  -0.28377  -0.26157  -0.23171
 Alpha  occ. eigenvalues --   -0.17498
 Alpha virt. eigenvalues --   -0.07131  -0.01037   0.02549   0.05423   0.06967
 Alpha virt. eigenvalues --    0.08514   0.10365   0.10714   0.11038   0.11328
 Alpha virt. eigenvalues --    0.12016   0.12190   0.12904   0.13104   0.13392

 Mulliken charges:
               1
     1  O   -0.547380
     2  O   -0.550864
     3  C    0.037251
     4  C   -0.165538
     5  C   -0.152631
     6  C    0.140259
     7  C    0.149365
     8  C   -0.030052
     9  C   -0.305641
    10  C   -0.279059
    11  C   -0.169345
    12  C   -0.130028
    13  C    0.145917
    14  C    0.079693
    15  C   -0.051904
    16  C   -0.229458
    17  C    0.059394
    18  C   -0.327202
    19  C   -0.290957
    20  C   -0.376969
    21  C   -0.125931
    22  C   -0.121683
    23  C   -0.353006
    24  C    0.094460
    25  C   -0.113253
    26  C   -0.347169
    27  C    0.104667
    28  C   -0.140587
    29  C   -0.404798
    30  C   -0.100601
    31  C   -0.063280
    32  C   -0.099839
    33  C   -0.132727
    34  C    0.128811
    35  C   -0.131084
    36  C    0.124966
    37  C   -0.367854
    38  C   -0.121597
    39  C   -0.121370
    40  C   -0.336338
    41  C   -0.107518
    42  C   -0.032029
    43  H    0.077570
    44  H    0.117168
    45  H    0.064222
    46  H    0.076458
    47  H    0.124527
    48  H    0.075621
    49  H    0.065925
    50  H    0.127393
    51  H    0.100474
    52  H    0.064989
    53  H    0.111639
    54  H    0.079805
    55  H    0.061837
    56  H    0.083039
    57  H    0.090862
    58  H    0.090030
    59  H    0.119891
    60  H    0.120379
    61  H    0.088144
    62  H    0.098222
    63  H    0.089400
    64  H    0.108574
    65  H    0.094583
    66  H    0.136175
    67  H    0.122015
    68  H    0.096661
    69  H    0.310740
    70  H    0.095591
    71  H    0.099511
    72  H    0.088376
    73  H    0.121585
    74  H    0.093393
    75  H    0.310151
    76  H    0.090476
    77  H    0.119099
    78  H    0.129503
    79  H    0.113787
    80  H    0.068344
    81  H    0.130814
    82  H    0.114162
    83  H    0.107928
    84  H    0.066831
    85  H    0.067603
    86  H    0.082976
    87  H    0.069435
    88  H    0.069347
    89  H    0.130273
    90  H    0.118976
    91  H    0.084080
    92  H    0.090839
    93  H    0.090891
    94  H    0.092061
    95  H    0.074099
    96  H    0.100500
    97  H    0.083701
    98  H    0.062229
 Sum of Mulliken charges =  -0.00000

 Dipole moment (field-independent basis, Debye):
    X=             -2.5237    Y=             -0.6800    Z=             -0.0693  Tot=              2.6146
 Quadrupole moment (field-independent basis, Debye-Ang):
   XX=           -261.3185   YY=           -244.5010   ZZ=           -261.3802
   XY=              9.0134   XZ=             45.3075   YZ=             -0.1245

 Normal termination of Gaussian 16 at Sat Jul 13 04:47:25 2019.
