 Gaussian 16, Revision A.03,
 Gaussian 16:  ES64L-G16RevA.03 25-Dec-2016

 -------------------------------------
 # td=(NStates=1) CAM-B3LYP/6-31G(d,p)
 -------------------------------------

 --
 TD
 --
 Symbolic Z-matrix:
 Charge =  0 Multiplicity = 1

                         Standard orientation:
 ---------------------------------------------------------------------
 Center     Atomic      Atomic             Coordinates (Angstroms)
 Number     Number       Type             X           Y           Z
 ---------------------------------------------------------------------
      1          8           0       14.097684   -2.032871   -0.388657
      2          8           0      -14.914995    0.608870   -0.145267
      3          6           0       11.992279    0.243455   -1.134581
      4          6           0       11.087107    0.265689    0.155277
      5          6           0       11.979727   -1.306784   -1.444158
      6          6           0       12.708105   -2.253968   -0.373299
      7          6           0       11.474803   -0.602527    1.214161
      8          6           0      -11.204714    1.118449   -0.921300
      9          6           0       11.216796    0.686346   -2.327716
     10          6           0       13.272062    0.854268   -0.955890
     11          6           0      -12.672893    1.397852   -0.667957
     12          6           0       12.149523   -1.738393    1.039111
     13          6           0      -13.607226    0.188737   -0.423042
     14          6           0      -10.782143   -0.007836    0.105322
     15          6           0        9.629735   -0.105510   -0.023196
     16          6           0      -13.176621   -0.478294    0.979194
     17          6           0      -11.643661   -0.757747    0.941261
     18          6           0      -10.387428    2.355759   -0.726261
     19          6           0      -11.063416    0.595373   -2.259230
     20          6           0       11.193564   -0.195503    2.737174
     21          6           0        8.539050    0.794252   -0.007491
     22          6           0       -9.375097   -0.450232    0.075642
     23          6           0      -11.259083   -1.696609    2.028416
     24          6           0        7.166759    0.493574   -0.025085
     25          6           0       -8.780386   -1.635739   -0.024925
     26          6           0        6.720910   -0.841922   -0.564097
     27          6           0       -7.362798   -2.039080    0.002350
     28          6           0        6.263339    1.463558    0.299428
     29          6           0       -7.083047   -3.476960   -0.398840
     30          6           0       -6.371010   -1.069565    0.003531
     31          6           0        4.861005    1.433853    0.356865
     32          6           0       -4.989401   -1.368626   -0.169207
     33          6           0        4.072725    2.609815    0.512646
     34          6           0        2.710700    2.519040    0.655564
     35          6           0       -4.062250   -0.419415    0.102353
     36          6           0       -2.574889   -0.572566    0.065257
     37          6           0        2.141829    3.794335    1.145116
     38          6           0        1.804634    1.514178    0.463770
     39          6           0       -1.781014    0.470444    0.250725
     40          6           0       -2.101030   -2.065410   -0.136394
     41          6           0        0.420453    1.608733    0.404271
     42          6           0       -0.420397    0.565511    0.209889
     43          1           0       11.068207    1.250631    0.598810
     44          1           0       12.670268   -1.505313   -2.284328
     45          1           0       11.096454   -1.822854   -1.520013
     46          1           0       12.579036   -3.337292   -0.472672
     47          1           0       10.269549    0.133777   -2.534267
     48          1           0       10.921056    1.811030   -2.167159
     49          1           0       12.169307    0.529857   -3.061838
     50          1           0       13.907421    0.578125   -0.070182
     51          1           0       13.923244    0.625901   -1.739127
     52          1           0       13.258958    1.986839   -1.024856
     53          1           0      -12.930955    1.832560    0.383324
     54          1           0      -13.101002    2.031618   -1.585066
     55          1           0       12.355145   -2.551194    1.887068
     56          1           0      -13.648633   -0.624263   -1.292932
     57          1           0        9.423077   -1.089637   -0.324554
     58          1           0      -13.781788   -1.361550    1.127052
     59          1           0      -13.322678    0.206507    1.665383
     60          1           0       -9.385501    2.485232   -1.296359
     61          1           0      -10.142376    2.646218    0.323005
     62          1           0      -10.842164    3.427251   -0.853979
     63          1           0      -11.666978   -0.406574   -2.320398
     64          1           0      -10.065933    0.359005   -2.487246
     65          1           0      -11.353198    1.412834   -2.892568
     66          1           0       10.065364   -0.199607    2.849708
     67          1           0       11.658449    0.760867    3.041159
     68          1           0       11.548159   -0.792293    3.709722
     69          1           0       14.465631   -2.570061    0.403099
     70          1           0       -8.669017    0.453284    0.087202
     71          1           0        8.632384    1.782895    0.576488
     72          1           0      -11.575553   -2.756880    1.773646
     73          1           0      -10.151668   -1.551236    2.300217
     74          1           0      -11.719374   -1.594715    2.903398
     75          1           0      -15.216196    1.177246   -0.972876
     76          1           0       -9.427509   -2.401529    0.064130
     77          1           0        5.719886   -0.730309   -0.899618
     78          1           0        7.302309   -0.932976   -1.583983
     79          1           0        6.988926   -1.635613    0.058693
     80          1           0        6.609481    2.390706    0.553572
     81          1           0       -6.504435   -3.410602   -1.276152
     82          1           0       -6.462419   -4.015462    0.339270
     83          1           0       -8.004414   -4.018336   -0.410418
     84          1           0       -6.610866   -0.041982    0.045986
     85          1           0        4.429818    0.473877    0.158181
     86          1           0       -4.413475   -2.471190   -0.100364
     87          1           0        4.613755    3.612765    0.736535
     88          1           0       -4.567777    0.736561    0.094764
     89          1           0        1.726114    3.650689    2.231690
     90          1           0        1.218851    4.190344    0.556188
     91          1           0        2.881486    4.623672    1.117537
     92          1           0        2.306449    0.574741   -0.046335
     93          1           0       -2.284962    1.282453    0.573062
     94          1           0       -2.977962   -2.489336   -0.958198
     95          1           0       -0.897952   -1.955004   -0.654232
     96          1           0       -1.964570   -2.716278    0.850146
     97          1           0        0.053258    2.552853    0.771062
     98          1           0        0.126210   -0.549441    0.333086
 ---------------------------------------------------------------------

 SCF Done:  E(RCAM-B3LYP) =  -1706.90979380     A.U. after   15 cycles

 Excitation energies and oscillator strengths:

 Excited State   1:      Singlet-A      2.1973 eV  564.26 nm  f=3.0246  <S**2>=0.000
     155 ->158        -0.14500
     156 ->157         0.69002
 This state for optimization and/or second-order correction.
 Total Energy, E(TD-HF/TD-DFT) =  -1706.82904448
 Copying the excited state density for this state as the 1-particle RhoCI density.

 The electronic state is 1-A.
 Alpha  occ. eigenvalues --  -19.21933 -19.21330 -10.31282 -10.30587 -10.30019
 Alpha  occ. eigenvalues --  -10.27843 -10.27702 -10.27674 -10.27560 -10.27319
 Alpha  occ. eigenvalues --  -10.27186 -10.27178 -10.27088 -10.26978 -10.26964
 Alpha  occ. eigenvalues --  -10.26921 -10.26865 -10.26818 -10.26756 -10.26755
 Alpha  occ. eigenvalues --  -10.26747 -10.26718 -10.26550 -10.26175 -10.26124
 Alpha  occ. eigenvalues --  -10.26101 -10.25988 -10.25962 -10.25940 -10.25684
 Alpha  occ. eigenvalues --  -10.25605 -10.25386 -10.25384 -10.25176 -10.24723
 Alpha  occ. eigenvalues --  -10.24708 -10.24609 -10.24401 -10.24389 -10.24261
 Alpha  occ. eigenvalues --  -10.23951 -10.23772  -1.09011  -1.08738  -0.94596
 Alpha  occ. eigenvalues --   -0.93526  -0.92944  -0.91797  -0.91102  -0.90065
 Alpha  occ. eigenvalues --   -0.87796  -0.87628  -0.86858  -0.85179  -0.83917
 Alpha  occ. eigenvalues --   -0.82606  -0.81717  -0.80178  -0.79985  -0.78025
 Alpha  occ. eigenvalues --   -0.77231  -0.76605  -0.76132  -0.75983  -0.75538
 Alpha  occ. eigenvalues --   -0.75336  -0.73908  -0.73459  -0.73216  -0.70648
 Alpha  occ. eigenvalues --   -0.68234  -0.66962  -0.66508  -0.64881  -0.64063
 Alpha  occ. eigenvalues --   -0.63537  -0.62463  -0.61482  -0.60165  -0.59706
 Alpha  occ. eigenvalues --   -0.58765  -0.58515  -0.57813  -0.57445  -0.56256
 Alpha  occ. eigenvalues --   -0.55882  -0.55209  -0.54875  -0.54166  -0.53716
 Alpha  occ. eigenvalues --   -0.53323  -0.52677  -0.52413  -0.51831  -0.51562
 Alpha  occ. eigenvalues --   -0.50633  -0.50508  -0.50444  -0.49605  -0.49533
 Alpha  occ. eigenvalues --   -0.49127  -0.48647  -0.48364  -0.48246  -0.47649
 Alpha  occ. eigenvalues --   -0.47545  -0.47381  -0.47040  -0.46883  -0.46320
 Alpha  occ. eigenvalues --   -0.46158  -0.45572  -0.44820  -0.44235  -0.44163
 Alpha  occ. eigenvalues --   -0.43988  -0.43706  -0.43651  -0.43303  -0.43169
 Alpha  occ. eigenvalues --   -0.42658  -0.42615  -0.42319  -0.42241  -0.41974
 Alpha  occ. eigenvalues --   -0.41653  -0.41607  -0.41454  -0.40998  -0.40932
 Alpha  occ. eigenvalues --   -0.40875  -0.40057  -0.39984  -0.39574  -0.39076
 Alpha  occ. eigenvalues --   -0.38905  -0.38523  -0.38176  -0.38088  -0.37774
 Alpha  occ. eigenvalues --   -0.37189  -0.36505  -0.36271  -0.35759  -0.35121
 Alpha  occ. eigenvalues --   -0.34534  -0.33924  -0.33351  -0.32114  -0.32001
 Alpha  occ. eigenvalues --   -0.30816  -0.29408  -0.28619  -0.26974  -0.23539
 Alpha  occ. eigenvalues --   -0.19861
 Alpha virt. eigenvalues --   -0.06090  -0.01300   0.02480   0.05494   0.07372
 Alpha virt. eigenvalues --    0.08874   0.10005   0.10872   0.11162   0.11921
 Alpha virt. eigenvalues --    0.12390   0.12714   0.13442   0.13657   0.13826

 Mulliken charges:
               1
     1  O   -0.540326
     2  O   -0.549296
     3  C    0.052606
     4  C   -0.138537
     5  C   -0.205146
     6  C    0.128893
     7  C    0.119641
     8  C    0.042658
     9  C   -0.261096
    10  C   -0.311140
    11  C   -0.183365
    12  C   -0.153150
    13  C    0.151163
    14  C    0.020364
    15  C   -0.100642
    16  C   -0.214870
    17  C    0.039576
    18  C   -0.335975
    19  C   -0.280906
    20  C   -0.352372
    21  C   -0.115196
    22  C   -0.129497
    23  C   -0.361047
    24  C    0.117502
    25  C   -0.075730
    26  C   -0.369689
    27  C    0.061701
    28  C   -0.112746
    29  C   -0.366182
    30  C   -0.113766
    31  C   -0.068939
    32  C   -0.095387
    33  C   -0.150802
    34  C    0.151960
    35  C   -0.097513
    36  C    0.090870
    37  C   -0.393002
    38  C   -0.123096
    39  C   -0.078968
    40  C   -0.349283
    41  C   -0.076199
    42  C   -0.092460
    43  H    0.090058
    44  H    0.100639
    45  H    0.110531
    46  H    0.073360
    47  H    0.111706
    48  H    0.078744
    49  H    0.081526
    50  H    0.126836
    51  H    0.116636
    52  H    0.089277
    53  H    0.100274
    54  H    0.058887
    55  H    0.060379
    56  H    0.058702
    57  H    0.094843
    58  H    0.111800
    59  H    0.132092
    60  H    0.099834
    61  H    0.113570
    62  H    0.093753
    63  H    0.096025
    64  H    0.116354
    65  H    0.099174
    66  H    0.112294
    67  H    0.113160
    68  H    0.096199
    69  H    0.305604
    70  H    0.064301
    71  H    0.075076
    72  H    0.104603
    73  H    0.113538
    74  H    0.123591
    75  H    0.302170
    76  H    0.067045
    77  H    0.117574
    78  H    0.104032
    79  H    0.134079
    80  H    0.067208
    81  H    0.139964
    82  H    0.115443
    83  H    0.112677
    84  H    0.087803
    85  H    0.087502
    86  H    0.083292
    87  H    0.097525
    88  H    0.057953
    89  H    0.116166
    90  H    0.107940
    91  H    0.101073
    92  H    0.061313
    93  H    0.076674
    94  H    0.100778
    95  H    0.082298
    96  H    0.124999
    97  H    0.087869
    98  H    0.062647
 Sum of Mulliken charges =  -0.00000

 Dipole moment (field-independent basis, Debye):
    X=              0.5807    Y=             -0.2941    Z=              0.7436  Tot=              0.9882
 Quadrupole moment (field-independent basis, Debye-Ang):
   XX=           -267.7172   YY=           -241.9988   ZZ=           -263.0334
   XY=            -14.3215   XZ=             27.3916   YZ=             -1.8286

 Normal termination of Gaussian 16 at Sun Jul 14 09:36:56 2019.
