 Gaussian 16, Revision A.03,
 Gaussian 16:  ES64L-G16RevA.03 25-Dec-2016

 -------------------------------------
 # td=(NStates=1) CAM-B3LYP/6-31G(d,p)
 -------------------------------------

 --
 TD
 --
 Symbolic Z-matrix:
 Charge =  0 Multiplicity = 1

                         Standard orientation:
 ---------------------------------------------------------------------
 Center     Atomic      Atomic             Coordinates (Angstroms)
 Number     Number       Type             X           Y           Z
 ---------------------------------------------------------------------
      1          8           0       14.149016   -2.003896   -0.306364
      2          8           0      -14.797311    0.930083    0.074932
      3          6           0       11.829916    0.068793   -1.183386
      4          6           0       11.015264    0.340116    0.030654
      5          6           0       12.078394   -1.469269   -1.373551
      6          6           0       12.726970   -2.135632   -0.193958
      7          6           0       11.549719   -0.412954    1.324798
      8          6           0      -11.102900    1.042867   -0.991439
      9          6           0       10.939406    0.601223   -2.315624
     10          6           0       13.167992    0.778396   -1.095850
     11          6           0      -12.512823    1.597602   -0.611048
     12          6           0       12.315949   -1.502115    1.138720
     13          6           0      -13.391267    0.517862   -0.150344
     14          6           0      -10.695831   -0.069577    0.032361
     15          6           0        9.587522    0.058214   -0.009306
     16          6           0      -12.931349   -0.099580    1.180772
     17          6           0      -11.531102   -0.552464    0.982790
     18          6           0      -10.078335    2.169212   -0.904847
     19          6           0      -11.269731    0.435658   -2.460932
     20          6           0       11.226756    0.224568    2.743349
     21          6           0        8.451912    0.881170    0.186094
     22          6           0       -9.251900   -0.479855   -0.021644
     23          6           0      -10.995926   -1.400525    2.235655
     24          6           0        7.145323    0.515402    0.171976
     25          6           0       -8.786293   -1.770797   -0.100970
     26          6           0        6.777282   -0.823923   -0.233469
     27          6           0       -7.382333   -2.144218   -0.119882
     28          6           0        6.169953    1.586819    0.319448
     29          6           0       -7.152868   -3.681031   -0.410720
     30          6           0       -6.361524   -1.390648    0.111253
     31          6           0        4.773278    1.547848    0.285301
     32          6           0       -5.013890   -1.590306    0.046075
     33          6           0        3.957219    2.572574    0.483762
     34          6           0        2.609308    2.477046    0.504375
     35          6           0       -4.152753   -0.651990    0.175180
     36          6           0       -2.637757   -0.863251    0.002579
     37          6           0        1.909624    3.922308    0.675643
     38          6           0        1.691836    1.483838    0.300636
     39          6           0       -1.852302    0.273003    0.073639
     40          6           0       -2.105254   -2.278105   -0.217406
     41          6           0        0.287060    1.465693    0.277314
     42          6           0       -0.327102    0.244205    0.112352
     43          1           0       11.011228    1.491879    0.241741
     44          1           0       12.691810   -1.761581   -2.175588
     45          1           0       11.105316   -1.984416   -1.271886
     46          1           0       12.601798   -3.241685   -0.192268
     47          1           0        9.947700    0.198494   -2.594560
     48          1           0       10.706494    1.739040   -2.364611
     49          1           0       11.415717    0.466992   -3.342658
     50          1           0       13.717500    0.515296   -0.010558
     51          1           0       13.538352    0.492252   -2.060995
     52          1           0       13.238874    1.784437   -1.109693
     53          1           0      -12.518224    2.206737    0.377220
     54          1           0      -13.038523    1.912541   -1.512903
     55          1           0       12.775382   -2.028926    1.742913
     56          1           0      -13.385055   -0.566638   -0.719315
     57          1           0        9.366382   -0.982222   -0.258003
     58          1           0      -13.605883   -0.736902    1.487421
     59          1           0      -12.899577    0.602378    1.901626
     60          1           0       -9.206715    1.888664   -1.416324
     61          1           0      -10.018505    2.391762    0.330090
     62          1           0      -10.416403    3.125831   -1.613847
     63          1           0      -12.083985   -0.361399   -2.292139
     64          1           0      -10.293345    0.117797   -2.675433
     65          1           0      -11.536454    1.085307   -3.251910
     66          1           0       10.225664    0.629317    2.860757
     67          1           0       11.919661    1.086043    3.184786
     68          1           0       11.518534   -0.691291    3.494137
     69          1           0       14.652929   -2.563415    0.465651
     70          1           0       -8.556591    0.448340    0.052375
     71          1           0        8.652562    1.956965    0.372077
     72          1           0      -11.190897   -2.499888    2.046221
     73          1           0      -10.156244   -1.048676    2.403730
     74          1           0      -11.516295   -1.080129    2.930345
     75          1           0      -15.054574    1.611207   -0.747871
     76          1           0       -9.410051   -2.729415   -0.155085
     77          1           0        5.762900   -1.104658   -0.541431
     78          1           0        7.300519   -1.083201   -1.272050
     79          1           0        7.326767   -1.692825    0.443815
     80          1           0        6.468969    2.699638    0.567758
     81          1           0       -6.899101   -4.003991   -1.425875
     82          1           0       -6.430972   -4.240455    0.120485
     83          1           0       -8.245822   -4.173763   -0.149824
     84          1           0       -6.534873   -0.425790    0.436106
     85          1           0        4.226604    0.546134    0.022013
     86          1           0       -4.490884   -2.481726    0.002672
     87          1           0        4.403883    3.629199    0.679875
     88          1           0       -4.456521    0.265304    0.575086
     89          1           0        1.214345    3.893718    1.702622
     90          1           0        1.311516    4.160531   -0.238156
     91          1           0        2.676296    4.573283    1.005269
     92          1           0        2.140419    0.503627    0.105907
     93          1           0       -2.427172    1.495461    0.118372
     94          1           0       -2.719489   -2.738604   -1.231417
     95          1           0       -0.994866   -2.234111   -0.416129
     96          1           0       -2.519156   -3.087172    0.557232
     97          1           0       -0.324255    2.408743    0.696165
     98          1           0        0.134005   -0.722593   -0.034577
 ---------------------------------------------------------------------

 SCF Done:  E(RCAM-B3LYP) =  -1706.80011212     A.U. after   15 cycles

 Excitation energies and oscillator strengths:

 Excited State   1:      Singlet-A      2.3974 eV  517.16 nm  f=2.9049  <S**2>=0.000
     155 ->158        -0.13531
     156 ->157         0.69233
 This state for optimization and/or second-order correction.
 Total Energy, E(TD-HF/TD-DFT) =  -1706.71200886
 Copying the excited state density for this state as the 1-particle RhoCI density.

 The electronic state is 1-A.
 Alpha  occ. eigenvalues --  -19.21787 -19.21445 -10.30614 -10.30515 -10.29384
 Alpha  occ. eigenvalues --  -10.29015 -10.28277 -10.28245 -10.28085 -10.27975
 Alpha  occ. eigenvalues --  -10.27851 -10.27669 -10.27638 -10.27591 -10.27583
 Alpha  occ. eigenvalues --  -10.27352 -10.27254 -10.27162 -10.26881 -10.26869
 Alpha  occ. eigenvalues --  -10.26606 -10.26446 -10.26431 -10.26420 -10.26299
 Alpha  occ. eigenvalues --  -10.26192 -10.26072 -10.26006 -10.25975 -10.25886
 Alpha  occ. eigenvalues --  -10.25875 -10.25407 -10.25130 -10.24986 -10.24935
 Alpha  occ. eigenvalues --  -10.24389 -10.23935 -10.23611 -10.23525 -10.23490
 Alpha  occ. eigenvalues --  -10.22664 -10.22102  -1.07505  -1.05460  -0.93933
 Alpha  occ. eigenvalues --   -0.93343  -0.92531  -0.92337  -0.90806  -0.89372
 Alpha  occ. eigenvalues --   -0.87681  -0.87098  -0.86034  -0.85461  -0.84452
 Alpha  occ. eigenvalues --   -0.83585  -0.82248  -0.80136  -0.79905  -0.77583
 Alpha  occ. eigenvalues --   -0.76924  -0.76277  -0.75985  -0.75828  -0.75698
 Alpha  occ. eigenvalues --   -0.75492  -0.75343  -0.74944  -0.72951  -0.70167
 Alpha  occ. eigenvalues --   -0.68653  -0.67133  -0.65826  -0.64507  -0.64303
 Alpha  occ. eigenvalues --   -0.63602  -0.62835  -0.62315  -0.61423  -0.59685
 Alpha  occ. eigenvalues --   -0.59413  -0.58587  -0.57635  -0.57041  -0.55900
 Alpha  occ. eigenvalues --   -0.55589  -0.54923  -0.54628  -0.54344  -0.53584
 Alpha  occ. eigenvalues --   -0.53267  -0.53149  -0.52948  -0.51429  -0.51330
 Alpha  occ. eigenvalues --   -0.50640  -0.50168  -0.49562  -0.49029  -0.48926
 Alpha  occ. eigenvalues --   -0.48395  -0.48317  -0.48149  -0.47474  -0.47210
 Alpha  occ. eigenvalues --   -0.46923  -0.46721  -0.46627  -0.46554  -0.46366
 Alpha  occ. eigenvalues --   -0.46012  -0.45879  -0.45388  -0.44964  -0.44676
 Alpha  occ. eigenvalues --   -0.44125  -0.43600  -0.43520  -0.43188  -0.42907
 Alpha  occ. eigenvalues --   -0.42819  -0.42708  -0.42284  -0.42210  -0.41888
 Alpha  occ. eigenvalues --   -0.41699  -0.41454  -0.41203  -0.40889  -0.40683
 Alpha  occ. eigenvalues --   -0.40501  -0.40185  -0.39929  -0.39776  -0.39654
 Alpha  occ. eigenvalues --   -0.38932  -0.38704  -0.38184  -0.37885  -0.37317
 Alpha  occ. eigenvalues --   -0.37115  -0.36455  -0.36348  -0.35387  -0.35249
 Alpha  occ. eigenvalues --   -0.35035  -0.34311  -0.33807  -0.31932  -0.31542
 Alpha  occ. eigenvalues --   -0.31264  -0.29804  -0.29134  -0.26942  -0.23885
 Alpha  occ. eigenvalues --   -0.19989
 Alpha virt. eigenvalues --   -0.05296  -0.00729   0.02759   0.05715   0.07203
 Alpha virt. eigenvalues --    0.08796   0.10092   0.10285   0.10532   0.11305
 Alpha virt. eigenvalues --    0.11650   0.11953   0.12316   0.12888   0.13096

 Mulliken charges:
               1
     1  O   -0.559254
     2  O   -0.580833
     3  C    0.031125
     4  C   -0.137931
     5  C   -0.177633
     6  C    0.118323
     7  C    0.094160
     8  C   -0.010033
     9  C   -0.326031
    10  C   -0.272401
    11  C   -0.169343
    12  C   -0.056954
    13  C    0.153981
    14  C    0.034027
    15  C   -0.072318
    16  C   -0.197490
    17  C   -0.013334
    18  C   -0.289372
    19  C   -0.310687
    20  C   -0.351311
    21  C   -0.110113
    22  C   -0.148465
    23  C   -0.302545
    24  C    0.171043
    25  C   -0.079376
    26  C   -0.393345
    27  C    0.100660
    28  C   -0.157837
    29  C   -0.373925
    30  C   -0.122377
    31  C   -0.051100
    32  C   -0.013706
    33  C   -0.111520
    34  C    0.088946
    35  C   -0.107566
    36  C    0.094263
    37  C   -0.364016
    38  C   -0.123717
    39  C   -0.128686
    40  C   -0.361847
    41  C   -0.064720
    42  C   -0.094677
    43  H    0.084690
    44  H    0.117041
    45  H    0.098976
    46  H    0.078462
    47  H    0.115936
    48  H    0.093105
    49  H    0.078889
    50  H    0.104239
    51  H    0.100255
    52  H    0.102213
    53  H    0.101834
    54  H    0.084720
    55  H    0.040251
    56  H    0.060066
    57  H    0.074911
    58  H    0.120353
    59  H    0.115087
    60  H    0.118934
    61  H    0.085717
    62  H    0.075743
    63  H    0.105247
    64  H    0.113304
    65  H    0.105133
    66  H    0.130967
    67  H    0.104292
    68  H    0.091475
    69  H    0.300448
    70  H    0.102060
    71  H    0.076400
    72  H    0.109751
    73  H    0.119039
    74  H    0.105920
    75  H    0.295603
    76  H    0.087125
    77  H    0.120807
    78  H    0.108161
    79  H    0.103170
    80  H    0.076695
    81  H    0.121127
    82  H    0.122527
    83  H    0.072740
    84  H    0.063233
    85  H    0.077228
    86  H    0.056342
    87  H    0.082242
    88  H    0.074747
    89  H    0.081815
    90  H    0.129493
    91  H    0.106736
    92  H    0.062086
    93  H    0.064576
    94  H    0.096621
    95  H    0.111534
    96  H    0.121876
    97  H    0.097754
    98  H    0.098241
 Sum of Mulliken charges =  -0.00000

 Dipole moment (field-independent basis, Debye):
    X=              1.7469    Y=             -0.9135    Z=              0.2042  Tot=              1.9819
 Quadrupole moment (field-independent basis, Debye-Ang):
   XX=           -283.5058   YY=           -242.4555   ZZ=           -261.2611
   XY=            -21.6816   XZ=             25.4438   YZ=             -2.2723

 Normal termination of Gaussian 16 at Mon Jul 15 10:23:45 2019.
