 Gaussian 16, Revision A.03,
 Gaussian 16:  ES64L-G16RevA.03 25-Dec-2016

 -------------------------------------
 # td=(NStates=1) CAM-B3LYP/6-31G(d,p)
 -------------------------------------

 --
 TD
 --
 Symbolic Z-matrix:
 Charge =  0 Multiplicity = 1

                         Standard orientation:
 ---------------------------------------------------------------------
 Center     Atomic      Atomic             Coordinates (Angstroms)
 Number     Number       Type             X           Y           Z
 ---------------------------------------------------------------------
      1          8           0      -14.235142   -2.001058    0.534896
      2          8           0       14.930785    0.902488    0.198570
      3          6           0      -11.821414   -0.002589    1.227684
      4          6           0      -11.083985    0.329958    0.019826
      5          6           0      -12.070576   -1.561383    1.371930
      6          6           0      -12.809016   -2.170647    0.216906
      7          6           0      -11.721962   -0.354430   -1.160946
      8          6           0       11.170314    0.975281    0.967815
      9          6           0      -11.039657    0.552898    2.428512
     10          6           0      -13.175816    0.777014    1.207969
     11          6           0       12.556312    1.531546    0.678288
     12          6           0      -12.464657   -1.479124   -1.059407
     13          6           0       13.593218    0.451314    0.396079
     14          6           0       10.766851   -0.140362   -0.056469
     15          6           0       -9.549286   -0.095561    0.068181
     16          6           0       13.217257   -0.343526   -0.843602
     17          6           0       11.655727   -0.615110   -0.929383
     18          6           0       10.236634    2.182232    0.888055
     19          6           0       11.092969    0.430169    2.365006
     20          6           0      -11.430574    0.295353   -2.568680
     21          6           0       -8.635758    0.836915   -0.107797
     22          6           0        9.323340   -0.342570   -0.103451
     23          6           0       11.345148   -1.580690   -1.985905
     24          6           0       -7.139276    0.545522   -0.119510
     25          6           0        8.845036   -1.554550   -0.124095
     26          6           0       -6.808310   -0.979776   -0.029290
     27          6           0        7.484494   -2.078133   -0.062847
     28          6           0       -6.220101    1.458680   -0.406272
     29          6           0        7.259814   -3.591522    0.131901
     30          6           0        6.454203   -1.201526   -0.198989
     31          6           0       -4.870590    1.412052   -0.474466
     32          6           0        5.063400   -1.520280   -0.097027
     33          6           0       -4.037940    2.523123   -0.715998
     34          6           0       -2.603073    2.574123   -0.678856
     35          6           0        4.048152   -0.549073   -0.158235
     36          6           0        2.636921   -0.737968   -0.039734
     37          6           0       -1.876577    3.921111   -0.918870
     38          6           0       -1.843932    1.460976   -0.487371
     39          6           0        1.769213    0.344127   -0.153792
     40          6           0        2.053676   -2.128885    0.141452
     41          6           0       -0.401650    1.486675   -0.393984
     42          6           0        0.434544    0.342131   -0.221902
     43          1           0      -10.952267    1.482612   -0.054680
     44          1           0      -12.471376   -1.952410    2.297312
     45          1           0      -10.953635   -1.938064    1.269886
     46          1           0      -12.691785   -3.171090    0.265616
     47          1           0      -10.073677   -0.095912    2.640858
     48          1           0      -10.678706    1.775384    2.196963
     49          1           0      -11.562664    0.610073    3.429426
     50          1           0      -13.784841    0.823130    0.125517
     51          1           0      -13.856365    0.415370    2.145424
     52          1           0      -13.053946    1.876993    1.371714
     53          1           0       12.494360    2.161832   -0.292069
     54          1           0       12.731622    2.303959    1.392504
     55          1           0      -12.794418   -2.054792   -2.046985
     56          1           0       13.449267   -0.121633    1.412976
     57          1           0       -9.215297   -1.053565    0.275916
     58          1           0       13.720580   -1.248212   -0.814649
     59          1           0       13.386615    0.260776   -1.833821
     60          1           0        9.076446    1.884549    1.424661
     61          1           0        9.998249    2.672677   -0.107679
     62          1           0       10.524572    2.846270    1.616353
     63          1           0       11.766400   -0.279600    2.421860
     64          1           0       10.023514    0.082066    2.666921
     65          1           0       11.566027    1.017053    3.197549
     66          1           0      -10.350368    0.233674   -2.828391
     67          1           0      -11.994135    1.299513   -2.613209
     68          1           0      -11.880431   -0.403423   -3.420818
     69          1           0      -15.014179   -2.293076   -0.091912
     70          1           0        8.694233    0.524626    0.065557
     71          1           0       -9.023859    1.811058   -0.326942
     72          1           0       11.859659   -2.638691   -1.667327
     73          1           0       10.142535   -1.528918   -2.229610
     74          1           0       11.898985   -1.331279   -3.023603
     75          1           0       15.145121    1.558556    0.989705
     76          1           0        9.668140   -2.412660   -0.049078
     77          1           0       -5.793342   -0.887060    0.113921
     78          1           0       -7.296867   -1.409280    0.892714
     79          1           0       -7.063774   -1.623024   -0.876280
     80          1           0       -6.650310    2.563543   -0.476659
     81          1           0        6.736898   -3.772771    1.114352
     82          1           0        6.614310   -3.931503   -0.550622
     83          1           0        8.199348   -4.046893    0.192753
     84          1           0        6.592032   -0.095976   -0.423147
     85          1           0       -4.425122    0.508560   -0.151505
     86          1           0        4.697550   -2.566746    0.106751
     87          1           0       -4.589883    3.627833   -0.704774
     88          1           0        4.342981    0.495311   -0.328246
     89          1           0       -1.024480    3.730366   -1.741607
     90          1           0       -1.426414    4.400646    0.054088
     91          1           0       -2.912725    4.418748   -1.256652
     92          1           0       -2.385383    0.603043   -0.119240
     93          1           0        2.231167    1.413990   -0.153112
     94          1           0        2.340322   -2.438350    1.191890
     95          1           0        1.010120   -2.306261    0.135984
     96          1           0        2.809588   -3.019108   -0.404717
     97          1           0        0.200844    2.388022   -0.427582
     98          1           0        0.015174   -0.802352    0.061652
 ---------------------------------------------------------------------

 SCF Done:  E(RCAM-B3LYP) =  -1706.94884250     A.U. after   15 cycles

 Excitation energies and oscillator strengths:

 Excited State   1:      Singlet-A      2.1577 eV  574.60 nm  f=3.0529  <S**2>=0.000
     155 ->158         0.13976
     156 ->157         0.69512
 This state for optimization and/or second-order correction.
 Total Energy, E(TD-HF/TD-DFT) =  -1706.86954714
 Copying the excited state density for this state as the 1-particle RhoCI density.

 The electronic state is 1-A.
 Alpha  occ. eigenvalues --  -19.22232 -19.19557 -10.31352 -10.29790 -10.28459
 Alpha  occ. eigenvalues --  -10.28325 -10.28115 -10.27727 -10.27681 -10.27630
 Alpha  occ. eigenvalues --  -10.27598 -10.27415 -10.27369 -10.27331 -10.27321
 Alpha  occ. eigenvalues --  -10.27245 -10.27228 -10.27192 -10.27001 -10.26935
 Alpha  occ. eigenvalues --  -10.26847 -10.26829 -10.26466 -10.26455 -10.26397
 Alpha  occ. eigenvalues --  -10.26260 -10.26254 -10.26136 -10.26131 -10.26067
 Alpha  occ. eigenvalues --  -10.25954 -10.25887 -10.25857 -10.25652 -10.25524
 Alpha  occ. eigenvalues --  -10.25517 -10.25503 -10.25280 -10.25117 -10.24991
 Alpha  occ. eigenvalues --  -10.24958 -10.24120  -1.08232  -1.05173  -0.94032
 Alpha  occ. eigenvalues --   -0.93883  -0.92202  -0.91756  -0.90679  -0.89882
 Alpha  occ. eigenvalues --   -0.87672  -0.86756  -0.85939  -0.85198  -0.84828
 Alpha  occ. eigenvalues --   -0.83047  -0.81955  -0.80545  -0.80322  -0.78008
 Alpha  occ. eigenvalues --   -0.77145  -0.76616  -0.76085  -0.75443  -0.74942
 Alpha  occ. eigenvalues --   -0.74798  -0.73926  -0.72933  -0.72533  -0.70635
 Alpha  occ. eigenvalues --   -0.68764  -0.67781  -0.66243  -0.65016  -0.63478
 Alpha  occ. eigenvalues --   -0.63054  -0.62142  -0.61137  -0.59912  -0.59640
 Alpha  occ. eigenvalues --   -0.59501  -0.58306  -0.57858  -0.57022  -0.56091
 Alpha  occ. eigenvalues --   -0.55754  -0.55149  -0.54713  -0.54166  -0.53809
 Alpha  occ. eigenvalues --   -0.53529  -0.52611  -0.52162  -0.51653  -0.51128
 Alpha  occ. eigenvalues --   -0.50037  -0.49975  -0.49759  -0.49181  -0.48886
 Alpha  occ. eigenvalues --   -0.48784  -0.48499  -0.48232  -0.47930  -0.47759
 Alpha  occ. eigenvalues --   -0.46998  -0.46605  -0.46349  -0.46070  -0.45894
 Alpha  occ. eigenvalues --   -0.45469  -0.45287  -0.45212  -0.45066  -0.44382
 Alpha  occ. eigenvalues --   -0.44278  -0.44095  -0.43938  -0.43326  -0.42891
 Alpha  occ. eigenvalues --   -0.42689  -0.42239  -0.41854  -0.41836  -0.41563
 Alpha  occ. eigenvalues --   -0.41475  -0.40900  -0.40740  -0.40444  -0.40085
 Alpha  occ. eigenvalues --   -0.39820  -0.39687  -0.39549  -0.39086  -0.38976
 Alpha  occ. eigenvalues --   -0.38876  -0.38548  -0.38265  -0.38010  -0.37767
 Alpha  occ. eigenvalues --   -0.37322  -0.36919  -0.36642  -0.35976  -0.35682
 Alpha  occ. eigenvalues --   -0.35252  -0.34563  -0.34055  -0.32191  -0.31558
 Alpha  occ. eigenvalues --   -0.31443  -0.29899  -0.29098  -0.27318  -0.24318
 Alpha  occ. eigenvalues --   -0.19634
 Alpha virt. eigenvalues --   -0.06232  -0.00910   0.03109   0.05609   0.07541
 Alpha virt. eigenvalues --    0.08894   0.10286   0.10799   0.11223   0.11560
 Alpha virt. eigenvalues --    0.12167   0.12575   0.12614   0.13002   0.13413

 Mulliken charges:
               1
     1  O   -0.597699
     2  O   -0.563940
     3  C    0.041516
     4  C   -0.131148
     5  C   -0.183047
     6  C    0.187751
     7  C    0.116892
     8  C   -0.028071
     9  C   -0.279544
    10  C   -0.268342
    11  C   -0.203611
    12  C   -0.130902
    13  C    0.190545
    14  C    0.061616
    15  C   -0.068396
    16  C   -0.197639
    17  C    0.050407
    18  C   -0.284058
    19  C   -0.290393
    20  C   -0.353429
    21  C   -0.071990
    22  C   -0.097092
    23  C   -0.353079
    24  C    0.047459
    25  C   -0.110765
    26  C   -0.362865
    27  C    0.074068
    28  C   -0.091220
    29  C   -0.359627
    30  C   -0.115864
    31  C   -0.075175
    32  C   -0.087343
    33  C   -0.136550
    34  C    0.088113
    35  C   -0.124780
    36  C    0.138474
    37  C   -0.345624
    38  C   -0.095636
    39  C   -0.121346
    40  C   -0.381200
    41  C   -0.125214
    42  C   -0.057654
    43  H    0.090524
    44  H    0.114669
    45  H    0.073612
    46  H    0.090958
    47  H    0.085787
    48  H    0.059833
    49  H    0.098807
    50  H    0.083380
    51  H    0.090258
    52  H    0.083587
    53  H    0.082365
    54  H    0.085412
    55  H    0.068199
    56  H    0.054012
    57  H    0.081460
    58  H    0.123166
    59  H    0.115176
    60  H    0.043981
    61  H    0.108647
    62  H    0.111737
    63  H    0.113776
    64  H    0.105113
    65  H    0.084194
    66  H    0.128416
    67  H    0.115713
    68  H    0.088544
    69  H    0.305780
    70  H    0.095979
    71  H    0.073426
    72  H    0.096374
    73  H    0.111348
    74  H    0.087211
    75  H    0.307321
    76  H    0.074800
    77  H    0.106737
    78  H    0.110902
    79  H    0.131168
    80  H    0.067455
    81  H    0.116773
    82  H    0.138007
    83  H    0.116796
    84  H    0.085231
    85  H    0.092749
    86  H    0.073886
    87  H    0.074847
    88  H    0.080912
    89  H    0.117694
    90  H    0.119336
    91  H    0.092358
    92  H    0.082497
    93  H    0.071746
    94  H    0.124940
    95  H    0.125543
    96  H    0.086690
    97  H    0.091461
    98  H    0.055112
 Sum of Mulliken charges =  -0.00000

 Dipole moment (field-independent basis, Debye):
    X=              0.4008    Y=             -0.9277    Z=              0.9846  Tot=              1.4110
 Quadrupole moment (field-independent basis, Debye-Ang):
   XX=           -275.5065   YY=           -244.0820   ZZ=           -264.9203
   XY=             17.6314   XZ=             34.6343   YZ=              2.5282

 Normal termination of Gaussian 16 at Sun Jul 14 09:48:05 2019.
