 Gaussian 16, Revision A.03,
 Gaussian 16:  ES64L-G16RevA.03 25-Dec-2016

 -------------------------------------
 # td=(NStates=1) CAM-B3LYP/6-31G(d,p)
 -------------------------------------

 --
 TD
 --
 Symbolic Z-matrix:
 Charge =  0 Multiplicity = 1

                         Standard orientation:
 ---------------------------------------------------------------------
 Center     Atomic      Atomic             Coordinates (Angstroms)
 Number     Number       Type             X           Y           Z
 ---------------------------------------------------------------------
      1          8           0      -14.004102   -2.227199    0.827143
      2          8           0       14.770851    0.989892    0.296941
      3          6           0      -11.717950    0.141495    1.333261
      4          6           0      -11.009849    0.354440   -0.109538
      5          6           0      -11.785280   -1.392184    1.463238
      6          6           0      -12.625719   -2.185010    0.427014
      7          6           0      -11.752512   -0.362042   -1.104347
      8          6           0       11.117682    0.892243    1.143661
      9          6           0      -10.922867    0.719308    2.495360
     10          6           0      -13.099113    0.835151    1.377609
     11          6           0       12.477538    1.542939    0.770013
     12          6           0      -12.482446   -1.467594   -0.932667
     13          6           0       13.498664    0.431065    0.388316
     14          6           0       10.704249   -0.137173    0.093592
     15          6           0       -9.561404   -0.064657   -0.036361
     16          6           0       13.077286   -0.226761   -0.897329
     17          6           0       11.588866   -0.554033   -0.836006
     18          6           0       10.059507    2.059558    1.183585
     19          6           0       11.005233    0.204215    2.515294
     20          6           0      -11.401555   -0.133065   -2.620188
     21          6           0       -8.456738    0.912911   -0.352993
     22          6           0        9.320076   -0.450079    0.103846
     23          6           0       11.206180   -1.383299   -1.974017
     24          6           0       -7.113481    0.511510   -0.261800
     25          6           0        8.774557   -1.658865   -0.136261
     26          6           0       -6.700934   -0.857767    0.082513
     27          6           0        7.370218   -2.086197   -0.024653
     28          6           0       -6.208616    1.496119   -0.504556
     29          6           0        7.035140   -3.515640    0.264082
     30          6           0        6.377311   -1.202216   -0.323813
     31          6           0       -4.767598    1.539451   -0.282908
     32          6           0        5.021548   -1.493495   -0.262084
     33          6           0       -3.922225    2.521944   -0.709016
     34          6           0       -2.507185    2.635159   -0.651467
     35          6           0        4.041269   -0.566308   -0.564023
     36          6           0        2.685499   -0.748552   -0.455748
     37          6           0       -1.981760    3.885185   -1.139813
     38          6           0       -1.790793    1.481897   -0.349005
     39          6           0        1.735148    0.320468   -0.483167
     40          6           0        2.114173   -2.119364   -0.254862
     41          6           0       -0.359250    1.500088   -0.497163
     42          6           0        0.319912    0.316501   -0.298489
     43          1           0      -10.944942    1.441006   -0.371531
     44          1           0      -12.246048   -1.747056    2.505814
     45          1           0      -10.699727   -1.807890    1.618427
     46          1           0      -12.098891   -3.284055    0.533785
     47          1           0      -10.217086    0.146797    2.569539
     48          1           0      -10.556386    1.748552    2.408267
     49          1           0      -11.550855    0.653105    3.437644
     50          1           0      -13.720487    0.710400    0.406058
     51          1           0      -13.815119    0.599477    2.131545
     52          1           0      -13.086704    1.867324    1.472823
     53          1           0       12.299874    2.212458    0.138068
     54          1           0       13.001197    2.221267    1.538654
     55          1           0      -12.708671   -1.837128   -1.786403
     56          1           0       13.692578   -0.334280    1.127197
     57          1           0       -9.463713   -1.011274    0.166920
     58          1           0       13.568212   -1.179064   -0.989221
     59          1           0       13.153300    0.507536   -1.611897
     60          1           0        9.195499    2.119544    1.835745
     61          1           0        9.861403    2.557253    0.299831
     62          1           0       10.658912    2.780480    1.755453
     63          1           0       11.734874   -0.620244    2.551797
     64          1           0        9.977923   -0.125705    2.726070
     65          1           0       11.215964    0.821003    3.474179
     66          1           0      -10.222571   -0.368124   -2.971192
     67          1           0      -11.510036    1.074405   -2.524664
     68          1           0      -12.178654   -0.633550   -3.254003
     69          1           0      -14.590165   -2.399977   -0.044977
     70          1           0        8.586156    0.314828    0.198361
     71          1           0       -8.754399    1.821394   -0.634366
     72          1           0       11.429803   -2.457178   -1.719853
     73          1           0       10.129080   -1.359695   -2.260122
     74          1           0       11.583408   -0.934370   -2.944382
     75          1           0       14.807399    1.472766    1.181827
     76          1           0        9.442108   -2.615037    0.009081
     77          1           0       -5.547835   -0.847856   -0.297675
     78          1           0       -6.955414   -0.947676    1.208668
     79          1           0       -7.251259   -1.707542   -0.619831
     80          1           0       -6.655281    2.433961   -0.764661
     81          1           0        6.518542   -3.616908    1.269833
     82          1           0        6.501102   -3.981510   -0.550049
     83          1           0        7.978906   -4.109541    0.119770
     84          1           0        6.602021   -0.209874   -0.719979
     85          1           0       -4.177687    0.495443    0.017450
     86          1           0        4.811949   -2.587179   -0.191484
     87          1           0       -4.641999    3.416133   -0.773014
     88          1           0        4.280389    0.486365   -0.508748
     89          1           0       -1.558899    3.584982   -2.202521
     90          1           0       -1.233068    4.255867   -0.609543
     91          1           0       -2.787566    4.565646   -1.151181
     92          1           0       -2.306716    0.611554    0.245822
     93          1           0        2.280048    1.363524   -0.795829
     94          1           0        2.392175   -2.415548    0.766332
     95          1           0        0.883840   -2.131313   -0.356867
     96          1           0        2.630205   -3.099929   -0.682164
     97          1           0        0.143305    2.348599   -0.730801
     98          1           0       -0.190663   -0.547762   -0.115339
 ---------------------------------------------------------------------

 SCF Done:  E(RCAM-B3LYP) =  -1706.89647181     A.U. after   15 cycles

 Excitation energies and oscillator strengths:

 Excited State   1:      Singlet-A      2.1075 eV  588.31 nm  f=3.1100  <S**2>=0.000
     155 ->158         0.15048
     156 ->157         0.68994
 This state for optimization and/or second-order correction.
 Total Energy, E(TD-HF/TD-DFT) =  -1706.81902334
 Copying the excited state density for this state as the 1-particle RhoCI density.

 The electronic state is 1-A.
 Alpha  occ. eigenvalues --  -19.21665 -19.20732 -10.32299 -10.29694 -10.28129
 Alpha  occ. eigenvalues --  -10.28056 -10.27972 -10.27662 -10.27648 -10.27280
 Alpha  occ. eigenvalues --  -10.27175 -10.27170 -10.27168 -10.26952 -10.26938
 Alpha  occ. eigenvalues --  -10.26757 -10.26693 -10.26529 -10.26517 -10.26482
 Alpha  occ. eigenvalues --  -10.26435 -10.26382 -10.26373 -10.26246 -10.26230
 Alpha  occ. eigenvalues --  -10.26204 -10.26197 -10.26190 -10.26096 -10.25595
 Alpha  occ. eigenvalues --  -10.25377 -10.25331 -10.25015 -10.24999 -10.24921
 Alpha  occ. eigenvalues --  -10.24884 -10.24783 -10.24615 -10.23843 -10.23708
 Alpha  occ. eigenvalues --  -10.22680 -10.22255  -1.09917  -1.07107  -0.94105
 Alpha  occ. eigenvalues --   -0.93671  -0.92751  -0.92022  -0.91277  -0.90165
 Alpha  occ. eigenvalues --   -0.87617  -0.87505  -0.86938  -0.85750  -0.84515
 Alpha  occ. eigenvalues --   -0.82720  -0.82306  -0.80304  -0.79626  -0.78399
 Alpha  occ. eigenvalues --   -0.77108  -0.76738  -0.76654  -0.76351  -0.75921
 Alpha  occ. eigenvalues --   -0.75666  -0.75390  -0.73472  -0.72727  -0.70448
 Alpha  occ. eigenvalues --   -0.68753  -0.67172  -0.66672  -0.66041  -0.64556
 Alpha  occ. eigenvalues --   -0.64155  -0.63473  -0.62249  -0.60309  -0.59926
 Alpha  occ. eigenvalues --   -0.59441  -0.58781  -0.57794  -0.56900  -0.55952
 Alpha  occ. eigenvalues --   -0.55822  -0.55677  -0.55471  -0.54258  -0.53915
 Alpha  occ. eigenvalues --   -0.53123  -0.52801  -0.52195  -0.52125  -0.51390
 Alpha  occ. eigenvalues --   -0.51113  -0.50833  -0.50506  -0.49887  -0.49789
 Alpha  occ. eigenvalues --   -0.49513  -0.48956  -0.48868  -0.48613  -0.48111
 Alpha  occ. eigenvalues --   -0.47768  -0.47417  -0.46878  -0.46458  -0.46201
 Alpha  occ. eigenvalues --   -0.46074  -0.45566  -0.45383  -0.45119  -0.44601
 Alpha  occ. eigenvalues --   -0.44406  -0.44206  -0.44124  -0.43491  -0.43150
 Alpha  occ. eigenvalues --   -0.42769  -0.42682  -0.42542  -0.42430  -0.42063
 Alpha  occ. eigenvalues --   -0.42027  -0.41697  -0.41454  -0.41113  -0.40734
 Alpha  occ. eigenvalues --   -0.40651  -0.40086  -0.40041  -0.39501  -0.39186
 Alpha  occ. eigenvalues --   -0.39032  -0.38750  -0.38418  -0.38258  -0.37858
 Alpha  occ. eigenvalues --   -0.37309  -0.36894  -0.36803  -0.36507  -0.35598
 Alpha  occ. eigenvalues --   -0.35138  -0.34637  -0.33765  -0.31667  -0.31492
 Alpha  occ. eigenvalues --   -0.31294  -0.29240  -0.28919  -0.26523  -0.23421
 Alpha  occ. eigenvalues --   -0.19307
 Alpha virt. eigenvalues --   -0.05992  -0.01576   0.02312   0.04911   0.06069
 Alpha virt. eigenvalues --    0.08671   0.10790   0.11118   0.11368   0.12156
 Alpha virt. eigenvalues --    0.12512   0.12956   0.12962   0.13497   0.13671

 Mulliken charges:
               1
     1  O   -0.552820
     2  O   -0.567907
     3  C    0.032633
     4  C   -0.152247
     5  C   -0.205171
     6  C    0.180367
     7  C    0.119614
     8  C   -0.015204
     9  C   -0.273708
    10  C   -0.307748
    11  C   -0.193201
    12  C   -0.114187
    13  C    0.165673
    14  C    0.092862
    15  C   -0.073638
    16  C   -0.189112
    17  C    0.012469
    18  C   -0.343129
    19  C   -0.300022
    20  C   -0.327995
    21  C   -0.112162
    22  C   -0.100441
    23  C   -0.363478
    24  C    0.150957
    25  C   -0.112048
    26  C   -0.353207
    27  C    0.062087
    28  C   -0.135413
    29  C   -0.382193
    30  C   -0.091192
    31  C   -0.084904
    32  C   -0.088184
    33  C   -0.111934
    34  C    0.085933
    35  C   -0.131621
    36  C    0.147837
    37  C   -0.354858
    38  C   -0.128448
    39  C   -0.157810
    40  C   -0.380797
    41  C   -0.068829
    42  C   -0.055164
    43  H    0.077764
    44  H    0.093094
    45  H    0.085135
    46  H    0.062050
    47  H    0.098609
    48  H    0.096873
    49  H    0.091672
    50  H    0.080975
    51  H    0.113106
    52  H    0.097416
    53  H    0.113529
    54  H    0.058621
    55  H    0.054044
    56  H    0.079722
    57  H    0.080075
    58  H    0.118819
    59  H    0.128776
    60  H    0.108624
    61  H    0.110806
    62  H    0.096097
    63  H    0.098907
    64  H    0.115711
    65  H    0.080615
    66  H    0.108473
    67  H    0.079366
    68  H    0.109989
    69  H    0.312146
    70  H    0.100413
    71  H    0.081727
    72  H    0.114181
    73  H    0.117327
    74  H    0.098628
    75  H    0.302439
    76  H    0.062727
    77  H    0.102167
    78  H    0.124830
    79  H    0.099825
    80  H    0.075982
    81  H    0.129486
    82  H    0.131471
    83  H    0.103154
    84  H    0.081702
    85  H    0.053052
    86  H    0.081847
    87  H    0.069424
    88  H    0.079353
    89  H    0.120105
    90  H    0.130260
    91  H    0.118314
    92  H    0.097663
    93  H    0.063232
    94  H    0.124523
    95  H    0.089479
    96  H    0.105744
    97  H    0.085406
    98  H    0.082867
 Sum of Mulliken charges =  -0.00000

 Dipole moment (field-independent basis, Debye):
    X=              0.5432    Y=              0.3339    Z=             -0.1971  Tot=              0.6674
 Quadrupole moment (field-independent basis, Debye-Ang):
   XX=           -301.1103   YY=           -242.9431   ZZ=           -263.5845
   XY=             -0.1971   XZ=             34.1554   YZ=              3.1770

 Normal termination of Gaussian 16 at Mon Jul 15 09:33:43 2019.
