 Gaussian 16, Revision A.03,
 Gaussian 16:  ES64L-G16RevA.03 25-Dec-2016

 -------------------------------------
 # td=(NStates=1) CAM-B3LYP/6-31G(d,p)
 -------------------------------------

 --
 TD
 --
 Symbolic Z-matrix:
 Charge =  0 Multiplicity = 1

                         Standard orientation:
 ---------------------------------------------------------------------
 Center     Atomic      Atomic             Coordinates (Angstroms)
 Number     Number       Type             X           Y           Z
 ---------------------------------------------------------------------
      1          8           0      -14.059305   -2.110895    0.458963
      2          8           0       14.854396    0.683469   -0.186249
      3          6           0      -11.675622   -0.084641    1.245453
      4          6           0      -10.984030    0.336768   -0.038127
      5          6           0      -11.953754   -1.637727    1.322496
      6          6           0      -12.729983   -2.232720    0.082496
      7          6           0      -11.488070   -0.475175   -1.238254
      8          6           0       11.137566    0.918864    1.097523
      9          6           0      -10.798380    0.321364    2.471895
     10          6           0      -13.011965    0.518935    1.400745
     11          6           0       12.585737    1.386069    0.786933
     12          6           0      -12.350043   -1.561252   -1.139551
     13          6           0       13.580387    0.233095    0.270242
     14          6           0       10.702131   -0.025738    0.005343
     15          6           0       -9.462173    0.009053   -0.004234
     16          6           0       12.930412   -0.387222   -1.033538
     17          6           0       11.473128   -0.573318   -0.948246
     18          6           0       10.316824    2.139999    1.204308
     19          6           0       11.219053    0.161545    2.500678
     20          6           0      -11.170380    0.383676   -2.481387
     21          6           0       -8.513487    0.881736   -0.103989
     22          6           0        9.235785   -0.323327   -0.020886
     23          6           0       10.965241   -1.402388   -2.159800
     24          6           0       -7.032199    0.617870   -0.113122
     25          6           0        8.669681   -1.594258   -0.218532
     26          6           0       -6.729926   -0.807150   -0.126487
     27          6           0        7.332685   -2.103460   -0.083864
     28          6           0       -6.294364    1.726741   -0.301414
     29          6           0        7.070385   -3.503585    0.160277
     30          6           0        6.284305   -1.119800   -0.089896
     31          6           0       -4.850577    1.524675   -0.468511
     32          6           0        4.962214   -1.452535    0.164181
     33          6           0       -4.005555    2.594478   -0.590845
     34          6           0       -2.609867    2.661174   -0.681708
     35          6           0        3.917974   -0.475835   -0.153703
     36          6           0        2.570327   -0.722738   -0.099491
     37          6           0       -1.923825    4.019617   -0.766117
     38          6           0       -1.829316    1.531343   -0.433905
     39          6           0        1.674037    0.394019   -0.261013
     40          6           0        2.088861   -2.138606    0.069639
     41          6           0       -0.416567    1.547932   -0.380306
     42          6           0        0.299478    0.411106   -0.187984
     43          1           0      -11.234303    1.362465   -0.215002
     44          1           0      -12.759397   -1.762872    2.250813
     45          1           0      -11.095164   -2.077222    1.552191
     46          1           0      -12.783712   -3.256185    0.137246
     47          1           0       -9.614477    0.108067    2.325616
     48          1           0      -10.880796    1.383923    2.480874
     49          1           0      -11.214686   -0.094646    3.536393
     50          1           0      -13.682846    0.337798    0.735887
     51          1           0      -13.391931    0.382973    2.437491
     52          1           0      -12.872143    1.729784    1.460510
     53          1           0       12.580049    2.210856    0.157848
     54          1           0       12.978959    1.777561    1.680624
     55          1           0      -12.656881   -2.010254   -2.073484
     56          1           0       13.745960   -0.382359    1.099039
     57          1           0       -9.442308   -0.996984   -0.110384
     58          1           0       13.410083   -1.420095   -1.149977
     59          1           0       13.224236    0.375003   -1.840362
     60          1           0        9.338483    1.730301    1.307877
     61          1           0       10.351718    2.585531    0.084602
     62          1           0       10.703091    2.823308    2.123962
     63          1           0       11.783573   -0.782461    2.502717
     64          1           0       10.037828    0.140511    2.681584
     65          1           0       11.649343    1.019206    3.280988
     66          1           0      -10.140473    0.688761   -2.744274
     67          1           0      -11.774949    1.243861   -2.510034
     68          1           0      -11.827043   -0.172388   -3.400014
     69          1           0      -14.503394   -2.105843   -0.349919
     70          1           0        8.564002    0.637941    0.506767
     71          1           0       -8.928923    1.878057   -0.361807
     72          1           0       10.936731   -2.555584   -1.942915
     73          1           0        9.878473   -1.102838   -2.546925
     74          1           0       11.789150   -1.126827   -2.833411
     75          1           0       15.283404    1.058443    0.707436
     76          1           0        9.430407   -2.242077   -0.289216
     77          1           0       -5.666279   -1.176815    0.131103
     78          1           0       -7.280357   -1.406279    0.655898
     79          1           0       -6.987336   -1.277306   -1.214930
     80          1           0       -6.593345    2.761328   -0.614555
     81          1           0        6.540157   -3.634681    1.228610
     82          1           0        6.344135   -3.801399   -0.687915
     83          1           0        8.056845   -4.065877    0.051931
     84          1           0        6.658708   -0.104096   -0.222066
     85          1           0       -4.553394    0.406154   -0.433407
     86          1           0        4.618727   -2.375134    0.345858
     87          1           0       -4.520930    3.554055   -0.596979
     88          1           0        4.426471    0.538169   -0.406957
     89          1           0       -0.853270    4.273119   -1.537263
     90          1           0       -1.512890    4.395595    0.245782
     91          1           0       -2.845669    4.696008   -0.895595
     92          1           0       -2.231326    0.610351   -0.425960
     93          1           0        2.149214    1.488916   -0.351644
     94          1           0        2.384015   -2.521605    0.922092
     95          1           0        1.043504   -2.110281    0.287487
     96          1           0        2.462850   -2.560413   -0.807720
     97          1           0        0.161327    2.628025   -0.288278
     98          1           0       -0.160723   -0.475652   -0.193732
 ---------------------------------------------------------------------

 SCF Done:  E(RCAM-B3LYP) =  -1706.87228842     A.U. after   15 cycles

 Excitation energies and oscillator strengths:

 Excited State   1:      Singlet-A      1.8727 eV  662.07 nm  f=2.9113  <S**2>=0.000
     155 ->158         0.13619
     156 ->157         0.69992
     156 <-157        -0.11730
 This state for optimization and/or second-order correction.
 Total Energy, E(TD-HF/TD-DFT) =  -1706.80346918
 Copying the excited state density for this state as the 1-particle RhoCI density.

 The electronic state is 1-A.
 Alpha  occ. eigenvalues --  -19.22042 -19.19969 -10.30278 -10.29235 -10.28778
 Alpha  occ. eigenvalues --  -10.28702 -10.28197 -10.27836 -10.27685 -10.27379
 Alpha  occ. eigenvalues --  -10.27363 -10.27268 -10.27215 -10.27206 -10.27181
 Alpha  occ. eigenvalues --  -10.27141 -10.26943 -10.26936 -10.26904 -10.26696
 Alpha  occ. eigenvalues --  -10.26659 -10.26507 -10.26287 -10.26255 -10.26232
 Alpha  occ. eigenvalues --  -10.26183 -10.26146 -10.25950 -10.25834 -10.25752
 Alpha  occ. eigenvalues --  -10.25531 -10.25462 -10.25384 -10.25304 -10.25226
 Alpha  occ. eigenvalues --  -10.25093 -10.25027 -10.24701 -10.24239 -10.24195
 Alpha  occ. eigenvalues --  -10.23338 -10.22733  -1.11931  -1.08052  -0.93765
 Alpha  occ. eigenvalues --   -0.93476  -0.92392  -0.91766  -0.90818  -0.89994
 Alpha  occ. eigenvalues --   -0.87700  -0.87265  -0.86462  -0.85428  -0.84162
 Alpha  occ. eigenvalues --   -0.82783  -0.82011  -0.80662  -0.78949  -0.78874
 Alpha  occ. eigenvalues --   -0.76600  -0.76320  -0.75732  -0.75607  -0.75250
 Alpha  occ. eigenvalues --   -0.74990  -0.74426  -0.74180  -0.72200  -0.69892
 Alpha  occ. eigenvalues --   -0.68891  -0.68100  -0.66530  -0.64413  -0.63697
 Alpha  occ. eigenvalues --   -0.63019  -0.62840  -0.62453  -0.60935  -0.60402
 Alpha  occ. eigenvalues --   -0.59925  -0.58531  -0.58067  -0.57714  -0.56472
 Alpha  occ. eigenvalues --   -0.56143  -0.55419  -0.54461  -0.54270  -0.53615
 Alpha  occ. eigenvalues --   -0.53275  -0.53012  -0.52648  -0.51881  -0.51517
 Alpha  occ. eigenvalues --   -0.50808  -0.50180  -0.49983  -0.49644  -0.49470
 Alpha  occ. eigenvalues --   -0.48972  -0.48555  -0.48462  -0.48175  -0.47974
 Alpha  occ. eigenvalues --   -0.47806  -0.47301  -0.46912  -0.46226  -0.46118
 Alpha  occ. eigenvalues --   -0.45377  -0.45269  -0.44869  -0.44526  -0.44126
 Alpha  occ. eigenvalues --   -0.44091  -0.44008  -0.43521  -0.43395  -0.43036
 Alpha  occ. eigenvalues --   -0.42874  -0.42580  -0.42389  -0.42250  -0.41900
 Alpha  occ. eigenvalues --   -0.41826  -0.41491  -0.41311  -0.40945  -0.40762
 Alpha  occ. eigenvalues --   -0.40494  -0.40140  -0.39639  -0.39402  -0.39127
 Alpha  occ. eigenvalues --   -0.38760  -0.38466  -0.38385  -0.38325  -0.37892
 Alpha  occ. eigenvalues --   -0.37371  -0.36665  -0.36016  -0.35682  -0.35587
 Alpha  occ. eigenvalues --   -0.35314  -0.34425  -0.33674  -0.31643  -0.31248
 Alpha  occ. eigenvalues --   -0.31208  -0.30087  -0.29193  -0.27108  -0.23561
 Alpha  occ. eigenvalues --   -0.18286
 Alpha virt. eigenvalues --   -0.06621  -0.00848   0.02716   0.04266   0.06435
 Alpha virt. eigenvalues --    0.09145   0.10595   0.10956   0.11123   0.11330
 Alpha virt. eigenvalues --    0.11901   0.12794   0.12961   0.13345   0.13723

 Mulliken charges:
               1
     1  O   -0.532809
     2  O   -0.554804
     3  C    0.020312
     4  C   -0.128426
     5  C   -0.178493
     6  C    0.148346
     7  C    0.089897
     8  C   -0.046122
     9  C   -0.300857
    10  C   -0.258720
    11  C   -0.188454
    12  C   -0.152167
    13  C    0.153091
    14  C    0.092406
    15  C   -0.072339
    16  C   -0.238851
    17  C    0.043445
    18  C   -0.276025
    19  C   -0.273547
    20  C   -0.357533
    21  C   -0.094387
    22  C   -0.133634
    23  C   -0.344008
    24  C    0.118664
    25  C   -0.107326
    26  C   -0.379608
    27  C    0.091884
    28  C   -0.114528
    29  C   -0.369272
    30  C   -0.097626
    31  C   -0.069041
    32  C   -0.097262
    33  C   -0.136169
    34  C    0.107077
    35  C   -0.109833
    36  C    0.054989
    37  C   -0.360791
    38  C   -0.099374
    39  C   -0.117853
    40  C   -0.355508
    41  C   -0.073978
    42  C   -0.059183
    43  H    0.089892
    44  H    0.090303
    45  H    0.089539
    46  H    0.093949
    47  H    0.092153
    48  H    0.102895
    49  H    0.078646
    50  H    0.113725
    51  H    0.101575
    52  H    0.036563
    53  H    0.097250
    54  H    0.068292
    55  H    0.079903
    56  H    0.083282
    57  H    0.087634
    58  H    0.108961
    59  H    0.130729
    60  H    0.100940
    61  H    0.096097
    62  H    0.093145
    63  H    0.115259
    64  H    0.093233
    65  H    0.071853
    66  H    0.134512
    67  H    0.141031
    68  H    0.066270
    69  H    0.287051
    70  H    0.054626
    71  H    0.077781
    72  H    0.104899
    73  H    0.117181
    74  H    0.108774
    75  H    0.301658
    76  H    0.071502
    77  H    0.104788
    78  H    0.125088
    79  H    0.119382
    80  H    0.100396
    81  H    0.117581
    82  H    0.120749
    83  H    0.105953
    84  H    0.087571
    85  H    0.081094
    86  H    0.075400
    87  H    0.072466
    88  H    0.080905
    89  H    0.088889
    90  H    0.123005
    91  H    0.097439
    92  H    0.072121
    93  H    0.070895
    94  H    0.135255
    95  H    0.104936
    96  H    0.140648
    97  H    0.076764
    98  H    0.075989
 Sum of Mulliken charges =  -0.00000

 Dipole moment (field-independent basis, Debye):
    X=             -0.0952    Y=             -0.6617    Z=             -0.2504  Tot=              0.7139
 Quadrupole moment (field-independent basis, Debye-Ang):
   XX=           -275.9210   YY=           -247.1002   ZZ=           -266.2335
   XY=             -2.8050   XZ=             49.3236   YZ=              2.5998

 Normal termination of Gaussian 16 at Sun Jul 14 15:55:18 2019.
