 Gaussian 16, Revision A.03,
 Gaussian 16:  ES64L-G16RevA.03 25-Dec-2016

 -------------------------------------
 # td=(NStates=1) CAM-B3LYP/6-31G(d,p)
 -------------------------------------

 --
 TD
 --
 Symbolic Z-matrix:
 Charge =  0 Multiplicity = 1

                         Standard orientation:
 ---------------------------------------------------------------------
 Center     Atomic      Atomic             Coordinates (Angstroms)
 Number     Number       Type             X           Y           Z
 ---------------------------------------------------------------------
      1          8           0       14.182805    1.688643    0.968122
      2          8           0      -14.676524   -1.168433    0.125088
      3          6           0       11.702914   -0.317294    1.225135
      4          6           0       10.940408   -0.403261   -0.096867
      5          6           0       12.043854    1.141367    1.719443
      6          6           0       12.776735    1.953301    0.565639
      7          6           0       11.599140    0.570569   -1.124938
      8          6           0      -11.044525   -1.163915    1.159512
      9          6           0       10.756009   -0.971047    2.235471
     10          6           0       13.086532   -1.080297    1.214088
     11          6           0      -12.389221   -1.734927    0.694048
     12          6           0       12.435431    1.578525   -0.769445
     13          6           0      -13.358264   -0.640425    0.460015
     14          6           0      -10.615973   -0.117443    0.123987
     15          6           0        9.464149    0.088040   -0.131125
     16          6           0      -12.969933    0.096286   -0.714495
     17          6           0      -11.504567    0.515840   -0.762089
     18          6           0      -10.048491   -2.232394    0.950910
     19          6           0      -10.983634   -0.594568    2.530060
     20          6           0       11.414745    0.223594   -2.611599
     21          6           0        8.451211   -0.773795   -0.304439
     22          6           0       -9.230590    0.381668    0.270715
     23          6           0      -11.183736    1.373774   -1.993737
     24          6           0        7.078127   -0.399523   -0.119156
     25          6           0       -8.827597    1.673281   -0.157990
     26          6           0        6.596997    0.978904    0.283168
     27          6           0       -7.479106    2.184161   -0.038432
     28          6           0        6.258706   -1.452752   -0.516395
     29          6           0       -7.367730    3.762000    0.300193
     30          6           0       -6.359326    1.373033   -0.061837
     31          6           0        4.864311   -1.356162   -0.400992
     32          6           0       -5.023684    1.608236   -0.141153
     33          6           0        3.974052   -2.447849   -0.941201
     34          6           0        2.551040   -2.425306   -0.915096
     35          6           0       -4.049441    0.762911   -0.384684
     36          6           0       -2.691316    1.054031   -0.376787
     37          6           0        1.869291   -3.793617   -1.136566
     38          6           0        1.835438   -1.210094   -0.763890
     39          6           0       -1.788625   -0.012795   -0.398589
     40          6           0       -2.175174    2.490083   -0.046431
     41          6           0        0.363943   -1.234134   -0.668796
     42          6           0       -0.416706   -0.082589   -0.538618
     43          1           0       10.782348   -1.435937   -0.689028
     44          1           0       12.721857    0.960972    2.657347
     45          1           0       11.133029    1.862058    2.087990
     46          1           0       12.678135    3.031441    0.536660
     47          1           0        9.944648   -0.475537    2.414643
     48          1           0       10.651037   -1.942528    1.966580
     49          1           0       11.147531   -1.060456    3.361837
     50          1           0       13.624421   -0.360051    0.522615
     51          1           0       13.474700   -1.232637    2.317726
     52          1           0       12.961870   -2.284491    0.686816
     53          1           0      -12.241228   -2.460289   -0.053300
     54          1           0      -12.788253   -2.280031    1.544364
     55          1           0       13.124463    2.263040   -1.504828
     56          1           0      -13.440618   -0.007679    1.347034
     57          1           0        9.300092    0.968145    0.249873
     58          1           0      -13.629893    0.920545   -0.843926
     59          1           0      -13.136439   -0.571819   -1.602315
     60          1           0       -9.094818   -2.025746    1.478369
     61          1           0       -9.996290   -2.477457   -0.307899
     62          1           0      -10.525700   -3.029784    1.433852
     63          1           0      -11.861981   -0.062199    2.712219
     64          1           0      -10.187505    0.245265    2.724912
     65          1           0      -10.934879   -1.366693    3.392808
     66          1           0       10.335238    0.511174   -2.870475
     67          1           0       11.512199   -0.904748   -2.635828
     68          1           0       12.058331    0.920296   -3.322140
     69          1           0       14.699462    2.045344    0.179939
     70          1           0       -8.429138   -0.329544    0.793440
     71          1           0        8.611888   -1.886962   -0.282989
     72          1           0      -11.222438    2.574524   -1.981777
     73          1           0      -10.054238    1.189165   -2.134555
     74          1           0      -11.748229    1.116442   -2.790447
     75          1           0      -15.044480   -1.165157    1.158218
     76          1           0       -9.453207    2.542668   -0.290205
     77          1           0        5.491296    1.003523    0.166110
     78          1           0        6.678599    0.886774    1.534221
     79          1           0        7.193037    1.802025   -0.232253
     80          1           0        6.637973   -2.539253   -0.768997
     81          1           0       -7.240690    3.943871    1.395014
     82          1           0       -6.482741    4.092285   -0.217507
     83          1           0       -8.299101    4.218836    0.151906
     84          1           0       -6.631801    0.246687   -0.271742
     85          1           0        4.257842   -0.442895    0.150544
     86          1           0       -4.719526    2.686693   -0.329014
     87          1           0        4.422730   -3.376684   -1.456070
     88          1           0       -4.401640   -0.324800   -0.445709
     89          1           0        1.107778   -3.767292   -1.940542
     90          1           0        1.256306   -3.917215   -0.086226
     91          1           0        2.501616   -4.547518   -1.363745
     92          1           0        2.507906   -0.279132   -0.945604
     93          1           0       -2.512622   -0.871428   -0.585941
     94          1           0       -2.222188    2.697790    1.029814
     95          1           0       -1.166440    2.578706   -0.419636
     96          1           0       -2.673052    3.211606   -0.805295
     97          1           0       -0.095537   -2.265101   -0.816689
     98          1           0        0.035724    0.817006   -0.448081
 ---------------------------------------------------------------------

 SCF Done:  E(RCAM-B3LYP) =  -1706.89963366     A.U. after   15 cycles

 Excitation energies and oscillator strengths:

 Excited State   1:      Singlet-A      1.9723 eV  628.64 nm  f=3.0659  <S**2>=0.000
     155 ->158        -0.15901
     156 ->157         0.68987
 This state for optimization and/or second-order correction.
 Total Energy, E(TD-HF/TD-DFT) =  -1706.82715455
 Copying the excited state density for this state as the 1-particle RhoCI density.

 The electronic state is 1-A.
 Alpha  occ. eigenvalues --  -19.22075 -19.21094 -10.30206 -10.29532 -10.28789
 Alpha  occ. eigenvalues --  -10.28767 -10.28301 -10.27935 -10.27844 -10.27759
 Alpha  occ. eigenvalues --  -10.27724 -10.27682 -10.27637 -10.27487 -10.27370
 Alpha  occ. eigenvalues --  -10.27367 -10.27322 -10.27218 -10.27197 -10.27151
 Alpha  occ. eigenvalues --  -10.27063 -10.26701 -10.26427 -10.26424 -10.26414
 Alpha  occ. eigenvalues --  -10.26380 -10.26206 -10.26061 -10.26035 -10.25707
 Alpha  occ. eigenvalues --  -10.25691 -10.25675 -10.25670 -10.25647 -10.25571
 Alpha  occ. eigenvalues --  -10.25532 -10.25414 -10.25040 -10.24850 -10.24146
 Alpha  occ. eigenvalues --  -10.24099 -10.22213  -1.07385  -1.07194  -0.94596
 Alpha  occ. eigenvalues --   -0.93191  -0.92124  -0.91313  -0.89982  -0.89205
 Alpha  occ. eigenvalues --   -0.87525  -0.86749  -0.86160  -0.85199  -0.84441
 Alpha  occ. eigenvalues --   -0.82669  -0.81709  -0.79697  -0.79354  -0.77740
 Alpha  occ. eigenvalues --   -0.77319  -0.76457  -0.76376  -0.76278  -0.75661
 Alpha  occ. eigenvalues --   -0.75384  -0.74906  -0.73398  -0.72579  -0.70102
 Alpha  occ. eigenvalues --   -0.68727  -0.67260  -0.66210  -0.64775  -0.63801
 Alpha  occ. eigenvalues --   -0.62613  -0.62011  -0.61956  -0.59633  -0.59267
 Alpha  occ. eigenvalues --   -0.59092  -0.58613  -0.57160  -0.56335  -0.55273
 Alpha  occ. eigenvalues --   -0.55203  -0.54597  -0.53889  -0.53560  -0.53496
 Alpha  occ. eigenvalues --   -0.52876  -0.52372  -0.51969  -0.51601  -0.50459
 Alpha  occ. eigenvalues --   -0.50188  -0.49975  -0.49724  -0.49386  -0.48954
 Alpha  occ. eigenvalues --   -0.48884  -0.48591  -0.48273  -0.48124  -0.47984
 Alpha  occ. eigenvalues --   -0.47249  -0.47104  -0.46793  -0.46689  -0.46122
 Alpha  occ. eigenvalues --   -0.45717  -0.45223  -0.45031  -0.44755  -0.44504
 Alpha  occ. eigenvalues --   -0.44350  -0.44327  -0.44006  -0.43614  -0.43172
 Alpha  occ. eigenvalues --   -0.42852  -0.42595  -0.42318  -0.42012  -0.41731
 Alpha  occ. eigenvalues --   -0.41618  -0.41292  -0.41094  -0.40765  -0.40470
 Alpha  occ. eigenvalues --   -0.40421  -0.40330  -0.39827  -0.39688  -0.39144
 Alpha  occ. eigenvalues --   -0.38820  -0.38389  -0.38158  -0.37897  -0.37819
 Alpha  occ. eigenvalues --   -0.37620  -0.36991  -0.36921  -0.36272  -0.35941
 Alpha  occ. eigenvalues --   -0.34766  -0.34080  -0.33438  -0.32292  -0.32197
 Alpha  occ. eigenvalues --   -0.31617  -0.29496  -0.28782  -0.26417  -0.22908
 Alpha  occ. eigenvalues --   -0.18804
 Alpha virt. eigenvalues --   -0.06117  -0.01801   0.02388   0.05039   0.06640
 Alpha virt. eigenvalues --    0.08416   0.09165   0.10345   0.11049   0.11461
 Alpha virt. eigenvalues --    0.11935   0.12447   0.12987   0.13059   0.13333

 Mulliken charges:
               1
     1  O   -0.540860
     2  O   -0.555723
     3  C    0.004320
     4  C   -0.124094
     5  C   -0.172907
     6  C    0.115482
     7  C    0.093703
     8  C    0.003688
     9  C   -0.277754
    10  C   -0.259783
    11  C   -0.164755
    12  C   -0.134447
    13  C    0.118357
    14  C    0.067000
    15  C   -0.089005
    16  C   -0.203986
    17  C    0.029361
    18  C   -0.288054
    19  C   -0.314508
    20  C   -0.342042
    21  C   -0.079028
    22  C   -0.112187
    23  C   -0.356499
    24  C    0.098402
    25  C   -0.120555
    26  C   -0.350823
    27  C    0.039391
    28  C   -0.109782
    29  C   -0.359571
    30  C   -0.118438
    31  C   -0.104495
    32  C   -0.069866
    33  C   -0.153149
    34  C    0.095003
    35  C   -0.107251
    36  C    0.078585
    37  C   -0.358613
    38  C   -0.126241
    39  C   -0.104972
    40  C   -0.367090
    41  C   -0.101793
    42  C   -0.077394
    43  H    0.086280
    44  H    0.123003
    45  H    0.067547
    46  H    0.091573
    47  H    0.109972
    48  H    0.103524
    49  H    0.055892
    50  H    0.132998
    51  H    0.099409
    52  H    0.038311
    53  H    0.113629
    54  H    0.075148
    55  H    0.059080
    56  H    0.085450
    57  H    0.082265
    58  H    0.108093
    59  H    0.116560
    60  H    0.101788
    61  H    0.081037
    62  H    0.101657
    63  H    0.107317
    64  H    0.112269
    65  H    0.090307
    66  H    0.117601
    67  H    0.114127
    68  H    0.104417
    69  H    0.289040
    70  H    0.096022
    71  H    0.089514
    72  H    0.091368
    73  H    0.122099
    74  H    0.118076
    75  H    0.298709
    76  H    0.095603
    77  H    0.116879
    78  H    0.106399
    79  H    0.130223
    80  H    0.095733
    81  H    0.122608
    82  H    0.124447
    83  H    0.111664
    84  H    0.064462
    85  H    0.093126
    86  H    0.069186
    87  H    0.081521
    88  H    0.076679
    89  H    0.124655
    90  H    0.110640
    91  H    0.115409
    92  H    0.093192
    93  H    0.063284
    94  H    0.137573
    95  H    0.112371
    96  H    0.105110
    97  H    0.092835
    98  H    0.074696
 Sum of Mulliken charges =  -0.00000

 Dipole moment (field-independent basis, Debye):
    X=             -1.2784    Y=              1.4226    Z=              0.4613  Tot=              1.9674
 Quadrupole moment (field-independent basis, Debye-Ang):
   XX=           -286.1565   YY=           -245.3584   ZZ=           -261.7413
   XY=             -0.9582   XZ=            -44.9565   YZ=             -1.3520

 Normal termination of Gaussian 16 at Sun Jul 14 00:46:16 2019.
