 Gaussian 16, Revision A.03,
 Gaussian 16:  ES64L-G16RevA.03 25-Dec-2016

 -------------------------------------
 # td=(NStates=1) CAM-B3LYP/6-31G(d,p)
 -------------------------------------

 --
 TD
 --
 Symbolic Z-matrix:
 Charge =  0 Multiplicity = 1

                         Standard orientation:
 ---------------------------------------------------------------------
 Center     Atomic      Atomic             Coordinates (Angstroms)
 Number     Number       Type             X           Y           Z
 ---------------------------------------------------------------------
      1          8           0      -14.093893   -1.879842    0.422163
      2          8           0       14.916486    0.773789    0.379587
      3          6           0      -11.832930    0.059829    1.324957
      4          6           0      -10.962994    0.296943   -0.092680
      5          6           0      -12.042306   -1.413032    1.429944
      6          6           0      -12.739218   -2.043299    0.280568
      7          6           0      -11.533980   -0.417597   -1.118709
      8          6           0       11.080407    1.127399    0.947759
      9          6           0      -11.013980    0.700603    2.437297
     10          6           0      -13.171047    0.792079    1.301345
     11          6           0       12.520680    1.619889    0.729603
     12          6           0      -12.379550   -1.452908   -1.067489
     13          6           0       13.432406    0.456504    0.483517
     14          6           0       10.693709    0.024109    0.061357
     15          6           0       -9.421908   -0.111538    0.036657
     16          6           0       13.076990   -0.183880   -0.778285
     17          6           0       11.651504   -0.553270   -0.830347
     18          6           0       10.099290    2.337812    0.706036
     19          6           0       10.930391    0.604078    2.407053
     20          6           0      -11.409325    0.285125   -2.488992
     21          6           0       -8.568356    0.812902    0.032147
     22          6           0        9.308464   -0.450550   -0.020950
     23          6           0       11.291085   -1.510162   -2.020940
     24          6           0       -7.146266    0.441369   -0.062325
     25          6           0        8.755618   -1.697874   -0.129404
     26          6           0       -6.736999   -1.000566    0.113828
     27          6           0        7.457485   -2.122884    0.003089
     28          6           0       -6.265920    1.464062   -0.338953
     29          6           0        7.169595   -3.526575    0.162936
     30          6           0        6.327641   -1.245682   -0.109128
     31          6           0       -4.876226    1.359855   -0.524387
     32          6           0        5.120079   -1.508974   -0.153106
     33          6           0       -4.019475    2.397557   -0.662296
     34          6           0       -2.618433    2.453301   -0.746075
     35          6           0        4.014054   -0.596248   -0.284616
     36          6           0        2.665306   -0.868571   -0.190401
     37          6           0       -1.932553    3.766613   -1.135144
     38          6           0       -1.767005    1.409937   -0.533321
     39          6           0        1.841809    0.204132   -0.381434
     40          6           0        2.201038   -2.258061    0.153018
     41          6           0       -0.358151    1.344986   -0.632525
     42          6           0        0.439317    0.215947   -0.316355
     43          1           0      -10.805944    1.366033   -0.129124
     44          1           0      -12.547964   -1.518579    2.364528
     45          1           0      -11.001054   -1.835896    1.532492
     46          1           0      -12.320296   -3.088674    0.182319
     47          1           0       -9.865081    0.588560    2.365353
     48          1           0      -11.157620    1.802150    2.586531
     49          1           0      -11.540745    0.226198    3.389307
     50          1           0      -13.902113    0.692061    0.539162
     51          1           0      -13.544212    0.724966    2.216713
     52          1           0      -12.892208    1.902913    1.232122
     53          1           0       12.651533    2.273584   -0.155704
     54          1           0       12.740930    2.210032    1.718209
     55          1           0      -12.915080   -1.834969   -1.804566
     56          1           0       13.374040   -0.273831    1.392692
     57          1           0       -9.212444   -1.108993    0.226355
     58          1           0       13.699881   -1.003152   -0.846522
     59          1           0       13.231108    0.605219   -1.492768
     60          1           0        9.124803    2.119097    0.942695
     61          1           0       10.053172    2.725757   -0.228322
     62          1           0       10.313317    3.114599    1.434336
     63          1           0       11.540235   -0.093882    2.577847
     64          1           0        9.820892    0.223189    2.511786
     65          1           0       11.185161    1.410700    3.120434
     66          1           0      -10.332119    0.304507   -2.735847
     67          1           0      -11.808137    1.216365   -2.558494
     68          1           0      -11.938487   -0.119270   -3.222190
     69          1           0      -14.512166   -2.444282   -0.254786
     70          1           0        8.638252    0.179278    0.157918
     71          1           0       -8.802287    1.876571   -0.238414
     72          1           0       11.705004   -2.602149   -1.908145
     73          1           0       10.237651   -1.498665   -2.032809
     74          1           0       11.817987   -1.180136   -2.842788
     75          1           0       14.967069    1.169221    1.221358
     76          1           0        9.555625   -2.550901   -0.232763
     77          1           0       -5.643052   -0.925617    1.132439
     78          1           0       -7.923949   -1.483158    0.794236
     79          1           0       -6.303174   -1.769886   -1.102058
     80          1           0       -6.603251    2.592347   -0.199183
     81          1           0        6.579330   -3.574336    1.043887
     82          1           0        6.319469   -3.914885   -0.507977
     83          1           0        8.137642   -4.108495    0.331117
     84          1           0        6.902005   -0.279068   -0.300949
     85          1           0       -4.321022    0.299201   -0.416536
     86          1           0        4.771615   -2.501260   -0.053019
     87          1           0       -4.587749    3.405875   -0.776691
     88          1           0        4.317958    0.513031   -0.507032
     89          1           0       -1.429041    3.725503   -2.007566
     90          1           0       -1.318347    4.129884   -0.186900
     91          1           0       -2.676705    4.555841   -1.352759
     92          1           0       -2.254024    0.492464    0.025425
     93          1           0        2.275852    1.127872   -1.086210
     94          1           0        2.454099   -2.346176    1.059074
     95          1           0        1.104710   -2.473619    0.201902
     96          1           0        2.441293   -3.051724   -0.441138
     97          1           0        0.070971    2.181048   -1.128918
     98          1           0       -0.135536   -0.604199    0.076466
 ---------------------------------------------------------------------

 SCF Done:  E(RCAM-B3LYP) =  -1706.76236291     A.U. after   18 cycles

 Excitation energies and oscillator strengths:

 Excited State   1:      Singlet-A      1.7352 eV  714.53 nm  f=3.0363  <S**2>=0.000
     155 ->158        -0.13224
     156 ->157         0.70541
     156 <-157        -0.14109
 This state for optimization and/or second-order correction.
 Total Energy, E(TD-HF/TD-DFT) =  -1706.69859601
 Copying the excited state density for this state as the 1-particle RhoCI density.

 The electronic state is 1-A.
 Alpha  occ. eigenvalues --  -19.21788 -19.20705 -10.34030 -10.30862 -10.29970
 Alpha  occ. eigenvalues --  -10.28094 -10.27707 -10.27584 -10.27432 -10.27197
 Alpha  occ. eigenvalues --  -10.26905 -10.26850 -10.26833 -10.26795 -10.26769
 Alpha  occ. eigenvalues --  -10.26627 -10.26619 -10.26597 -10.26563 -10.26479
 Alpha  occ. eigenvalues --  -10.26277 -10.26253 -10.26187 -10.25667 -10.25581
 Alpha  occ. eigenvalues --  -10.25352 -10.25331 -10.25250 -10.25188 -10.25127
 Alpha  occ. eigenvalues --  -10.25061 -10.24986 -10.24837 -10.24756 -10.24471
 Alpha  occ. eigenvalues --  -10.24134 -10.24103 -10.24038 -10.23628 -10.23230
 Alpha  occ. eigenvalues --  -10.22322 -10.22119  -1.11620  -1.08122  -0.94893
 Alpha  occ. eigenvalues --   -0.93922  -0.93447  -0.91962  -0.91537  -0.90590
 Alpha  occ. eigenvalues --   -0.87974  -0.87662  -0.87277  -0.86639  -0.85133
 Alpha  occ. eigenvalues --   -0.84014  -0.82538  -0.81102  -0.80598  -0.79302
 Alpha  occ. eigenvalues --   -0.78299  -0.77198  -0.76802  -0.76590  -0.76431
 Alpha  occ. eigenvalues --   -0.76137  -0.74390  -0.73996  -0.72488  -0.70944
 Alpha  occ. eigenvalues --   -0.69340  -0.67867  -0.66557  -0.65468  -0.64966
 Alpha  occ. eigenvalues --   -0.63470  -0.63098  -0.62134  -0.60536  -0.60047
 Alpha  occ. eigenvalues --   -0.59530  -0.59178  -0.58930  -0.57401  -0.56567
 Alpha  occ. eigenvalues --   -0.56366  -0.55703  -0.55224  -0.54596  -0.53811
 Alpha  occ. eigenvalues --   -0.52963  -0.52908  -0.52762  -0.52227  -0.52007
 Alpha  occ. eigenvalues --   -0.51756  -0.50798  -0.50249  -0.49746  -0.49604
 Alpha  occ. eigenvalues --   -0.49190  -0.49066  -0.48831  -0.48489  -0.48326
 Alpha  occ. eigenvalues --   -0.47920  -0.47632  -0.46906  -0.46340  -0.46091
 Alpha  occ. eigenvalues --   -0.45765  -0.45599  -0.45096  -0.44944  -0.44746
 Alpha  occ. eigenvalues --   -0.44620  -0.44502  -0.44465  -0.44118  -0.43905
 Alpha  occ. eigenvalues --   -0.43598  -0.43433  -0.42842  -0.42438  -0.42149
 Alpha  occ. eigenvalues --   -0.42095  -0.41720  -0.41583  -0.41346  -0.41092
 Alpha  occ. eigenvalues --   -0.40678  -0.40415  -0.40102  -0.39623  -0.39390
 Alpha  occ. eigenvalues --   -0.39165  -0.38625  -0.37756  -0.37671  -0.37417
 Alpha  occ. eigenvalues --   -0.37379  -0.37076  -0.36805  -0.36407  -0.36317
 Alpha  occ. eigenvalues --   -0.35941  -0.35406  -0.33519  -0.32757  -0.32526
 Alpha  occ. eigenvalues --   -0.30489  -0.28969  -0.28001  -0.27157  -0.23353
 Alpha  occ. eigenvalues --   -0.17989
 Alpha virt. eigenvalues --   -0.07418  -0.01733   0.03146   0.05229   0.06001
 Alpha virt. eigenvalues --    0.06800   0.08821   0.09389   0.10498   0.11661
 Alpha virt. eigenvalues --    0.11915   0.12207   0.12552   0.13213   0.13527

 Mulliken charges:
               1
     1  O   -0.521391
     2  O   -0.559454
     3  C    0.022498
     4  C   -0.165697
     5  C   -0.167230
     6  C    0.131041
     7  C    0.142239
     8  C   -0.043696
     9  C   -0.313952
    10  C   -0.282888
    11  C   -0.188828
    12  C   -0.119297
    13  C    0.110433
    14  C    0.094451
    15  C   -0.093662
    16  C   -0.195960
    17  C    0.006930
    18  C   -0.312039
    19  C   -0.282000
    20  C   -0.354685
    21  C   -0.059831
    22  C   -0.098455
    23  C   -0.344928
    24  C    0.105331
    25  C   -0.138974
    26  C   -0.266429
    27  C    0.115638
    28  C   -0.131974
    29  C   -0.395912
    30  C   -0.051648
    31  C   -0.056679
    32  C   -0.108940
    33  C   -0.122736
    34  C    0.095492
    35  C   -0.131334
    36  C    0.125728
    37  C   -0.372957
    38  C   -0.124006
    39  C   -0.144574
    40  C   -0.374382
    41  C   -0.081879
    42  C   -0.081305
    43  H    0.089416
    44  H    0.101873
    45  H    0.079814
    46  H    0.069570
    47  H    0.104436
    48  H    0.101178
    49  H    0.075804
    50  H    0.123547
    51  H    0.107508
    52  H    0.066127
    53  H    0.106507
    54  H    0.076106
    55  H    0.064450
    56  H    0.074962
    57  H    0.090230
    58  H    0.126158
    59  H    0.126406
    60  H    0.111484
    61  H    0.116664
    62  H    0.096467
    63  H    0.116032
    64  H    0.097753
    65  H    0.090359
    66  H    0.103782
    67  H    0.116158
    68  H    0.101928
    69  H    0.307443
    70  H    0.052115
    71  H    0.096952
    72  H    0.094752
    73  H    0.128317
    74  H    0.119955
    75  H    0.299923
    76  H    0.078427
    77  H    0.052156
    78  H    0.062547
    79  H    0.074534
    80  H    0.076957
    81  H    0.135772
    82  H    0.119482
    83  H    0.105899
    84  H    0.065074
    85  H    0.077175
    86  H    0.071144
    87  H    0.069114
    88  H    0.075832
    89  H    0.137274
    90  H    0.113629
    91  H    0.100083
    92  H    0.063209
    93  H    0.079226
    94  H    0.144937
    95  H    0.103818
    96  H    0.133261
    97  H    0.080260
    98  H    0.083954
 Sum of Mulliken charges =  -0.00000

 Dipole moment (field-independent basis, Debye):
    X=             -0.3543    Y=             -0.7406    Z=             -0.0583  Tot=              0.8231
 Quadrupole moment (field-independent basis, Debye-Ang):
   XX=           -280.4512   YY=           -242.5460   ZZ=           -260.9721
   XY=             10.3050   XZ=             32.1692   YZ=              1.5171

 Normal termination of Gaussian 16 at Sat Jul 13 06:06:49 2019.
