 Gaussian 16, Revision A.03,
 Gaussian 16:  ES64L-G16RevA.03 25-Dec-2016

 -------------------------------------
 # td=(NStates=1) CAM-B3LYP/6-31G(d,p)
 -------------------------------------

 --
 TD
 --
 Symbolic Z-matrix:
 Charge =  0 Multiplicity = 1

                         Standard orientation:
 ---------------------------------------------------------------------
 Center     Atomic      Atomic             Coordinates (Angstroms)
 Number     Number       Type             X           Y           Z
 ---------------------------------------------------------------------
      1          8           0      -14.052839   -2.173326    0.697496
      2          8           0       14.800863    1.058237   -0.018731
      3          6           0      -11.667689    0.047180    1.294657
      4          6           0      -10.985608    0.271560   -0.072357
      5          6           0      -11.756719   -1.457157    1.412588
      6          6           0      -12.707685   -2.190711    0.292097
      7          6           0      -11.666536   -0.375412   -1.229215
      8          6           0       11.100678    0.913108    1.183322
      9          6           0      -10.826767    0.691181    2.408305
     10          6           0      -13.060489    0.768273    1.369343
     11          6           0       12.498418    1.457811    0.904835
     12          6           0      -12.422103   -1.487235   -1.001018
     13          6           0       13.494567    0.400845    0.275230
     14          6           0       10.751658   -0.076009    0.048220
     15          6           0       -9.494199    0.030020   -0.088470
     16          6           0       12.957882   -0.153434   -0.954401
     17          6           0       11.540915   -0.437654   -0.912184
     18          6           0       10.173779    2.150976    1.285972
     19          6           0       11.111931    0.333043    2.573494
     20          6           0      -11.445237    0.179399   -2.648283
     21          6           0       -8.467579    0.861760   -0.159870
     22          6           0        9.285502   -0.570424    0.098842
     23          6           0       11.146377   -1.246128   -2.232672
     24          6           0       -7.123796    0.558781   -0.224339
     25          6           0        8.748027   -1.795325   -0.261812
     26          6           0       -6.705650   -0.828722    0.081420
     27          6           0        7.408603   -2.189924   -0.121885
     28          6           0       -6.155847    1.595751   -0.390302
     29          6           0        7.059531   -3.661899   -0.000661
     30          6           0        6.370599   -1.332791   -0.266376
     31          6           0       -4.719689    1.426767   -0.404613
     32          6           0        4.998190   -1.622494   -0.174326
     33          6           0       -3.955330    2.552736   -0.583578
     34          6           0       -2.566137    2.575605   -0.653138
     35          6           0        3.985172   -0.550946   -0.022115
     36          6           0        2.615858   -0.847077    0.036139
     37          6           0       -1.918510    3.943767   -1.017900
     38          6           0       -1.904136    1.460017   -0.513741
     39          6           0        1.682785    0.345433   -0.224432
     40          6           0        2.130675   -2.199260    0.258623
     41          6           0       -0.428232    1.456325   -0.590926
     42          6           0        0.289528    0.342475   -0.312046
     43          1           0      -11.160340    1.330990   -0.211625
     44          1           0      -12.132415   -1.904904    2.456953
     45          1           0      -10.671289   -1.901179    1.403619
     46          1           0      -12.380432   -3.189535    0.283864
     47          1           0       -9.779756    0.366486    2.319195
     48          1           0      -10.958575    1.728763    2.184432
     49          1           0      -11.445568    0.552278    3.284404
     50          1           0      -13.610354    0.494599    0.443432
     51          1           0      -13.301322    0.356911    2.459431
     52          1           0      -12.909279    1.973784    1.463510
     53          1           0       12.564639    2.163300    0.227904
     54          1           0       12.727685    1.935058    1.734258
     55          1           0      -12.816787   -1.968754   -2.012624
     56          1           0       13.679321   -0.570619    1.031454
     57          1           0       -9.118891   -1.094808   -0.077888
     58          1           0       13.197171   -1.031366   -1.475682
     59          1           0       13.232160    0.798191   -1.741227
     60          1           0        9.182712    1.780666    1.388903
     61          1           0       10.152185    2.337894    0.182055
     62          1           0       10.633396    3.009114    1.786778
     63          1           0       11.798093   -0.585745    2.692833
     64          1           0       10.158780   -0.066169    2.792998
     65          1           0       11.683102    1.128224    3.178675
     66          1           0      -10.352269    0.516862   -2.881918
     67          1           0      -12.042885    1.081694   -2.791780
     68          1           0      -11.752905   -0.459379   -3.535563
     69          1           0      -14.788319   -1.873916   -0.227749
     70          1           0        8.557437    0.032116    0.593424
     71          1           0       -8.832368    1.911383   -0.374792
     72          1           0       11.613716   -2.344187   -2.190898
     73          1           0        9.968511   -1.220126   -2.226879
     74          1           0       11.302359   -0.637681   -3.080516
     75          1           0       14.953009    1.710715    0.696460
     76          1           0        9.494601   -2.567510   -0.636536
     77          1           0       -5.709172   -1.012431    0.356947
     78          1           0       -7.413431   -1.285276    0.970066
     79          1           0       -7.084933   -1.467285   -0.647532
     80          1           0       -6.481527    2.637339   -0.706687
     81          1           0        7.056094   -3.740336    1.186984
     82          1           0        6.099950   -3.961622   -0.415547
     83          1           0        7.855434   -4.384714   -0.323640
     84          1           0        6.520019   -0.342305   -0.550125
     85          1           0       -4.584607    0.401106   -0.064818
     86          1           0        4.642461   -2.607130    0.092040
     87          1           0       -4.665097    3.470361   -0.718699
     88          1           0        4.260292    0.526948   -0.286056
     89          1           0       -1.175028    3.874999   -1.767972
     90          1           0       -1.408202    4.229074   -0.157549
     91          1           0       -2.645298    4.540920   -1.259026
     92          1           0       -2.218472    0.508030   -0.208670
     93          1           0        2.051353    1.419537   -0.267372
     94          1           0        2.622281   -2.510634    1.001378
     95          1           0        0.975134   -2.180473    0.392714
     96          1           0        2.381707   -2.761798   -0.640144
     97          1           0        0.017845    2.373554   -0.932010
     98          1           0       -0.162534   -0.641576   -0.397885
 ---------------------------------------------------------------------

 SCF Done:  E(RCAM-B3LYP) =  -1706.90644427     A.U. after   15 cycles

 Excitation energies and oscillator strengths:

 Excited State   1:      Singlet-A      2.0083 eV  617.37 nm  f=3.0666  <S**2>=0.000
     155 ->158         0.14112
     156 ->157         0.69571
     156 <-157        -0.10154
 This state for optimization and/or second-order correction.
 Total Energy, E(TD-HF/TD-DFT) =  -1706.83264151
 Copying the excited state density for this state as the 1-particle RhoCI density.

 The electronic state is 1-A.
 Alpha  occ. eigenvalues --  -19.22514 -19.21222 -10.32237 -10.30674 -10.28432
 Alpha  occ. eigenvalues --  -10.27829 -10.27496 -10.27352 -10.27289 -10.27219
 Alpha  occ. eigenvalues --  -10.27140 -10.26956 -10.26938 -10.26778 -10.26755
 Alpha  occ. eigenvalues --  -10.26728 -10.26607 -10.26495 -10.26495 -10.26376
 Alpha  occ. eigenvalues --  -10.26363 -10.26324 -10.26324 -10.26293 -10.26266
 Alpha  occ. eigenvalues --  -10.26248 -10.26206 -10.26180 -10.26172 -10.26123
 Alpha  occ. eigenvalues --  -10.25911 -10.25836 -10.25425 -10.25413 -10.25085
 Alpha  occ. eigenvalues --  -10.24943 -10.24902 -10.24880 -10.24728 -10.24044
 Alpha  occ. eigenvalues --  -10.23458 -10.23287  -1.07253  -1.06534  -0.94568
 Alpha  occ. eigenvalues --   -0.93774  -0.92951  -0.91822  -0.91186  -0.90372
 Alpha  occ. eigenvalues --   -0.88765  -0.87624  -0.86435  -0.85334  -0.84834
 Alpha  occ. eigenvalues --   -0.82364  -0.82133  -0.79867  -0.79730  -0.79582
 Alpha  occ. eigenvalues --   -0.77182  -0.76817  -0.76722  -0.76385  -0.76326
 Alpha  occ. eigenvalues --   -0.76047  -0.74300  -0.74100  -0.72705  -0.70746
 Alpha  occ. eigenvalues --   -0.69027  -0.67624  -0.66982  -0.65463  -0.63869
 Alpha  occ. eigenvalues --   -0.62845  -0.62365  -0.62038  -0.60885  -0.59992
 Alpha  occ. eigenvalues --   -0.59061  -0.58452  -0.57293  -0.57248  -0.56811
 Alpha  occ. eigenvalues --   -0.55624  -0.55168  -0.54619  -0.54028  -0.53728
 Alpha  occ. eigenvalues --   -0.53363  -0.53004  -0.52430  -0.51761  -0.51546
 Alpha  occ. eigenvalues --   -0.51054  -0.50490  -0.50213  -0.50014  -0.49835
 Alpha  occ. eigenvalues --   -0.49506  -0.49060  -0.48682  -0.48579  -0.48421
 Alpha  occ. eigenvalues --   -0.47885  -0.47626  -0.47290  -0.46766  -0.46714
 Alpha  occ. eigenvalues --   -0.46572  -0.46306  -0.45804  -0.45427  -0.44879
 Alpha  occ. eigenvalues --   -0.44357  -0.44233  -0.43929  -0.43866  -0.43769
 Alpha  occ. eigenvalues --   -0.43276  -0.43066  -0.42723  -0.42221  -0.42034
 Alpha  occ. eigenvalues --   -0.41775  -0.41474  -0.41360  -0.41046  -0.40813
 Alpha  occ. eigenvalues --   -0.40181  -0.39968  -0.39761  -0.39586  -0.39294
 Alpha  occ. eigenvalues --   -0.39146  -0.38822  -0.38448  -0.38005  -0.37382
 Alpha  occ. eigenvalues --   -0.37209  -0.36803  -0.36377  -0.36024  -0.35880
 Alpha  occ. eigenvalues --   -0.35487  -0.34874  -0.34082  -0.31848  -0.31664
 Alpha  occ. eigenvalues --   -0.30964  -0.29944  -0.29547  -0.26789  -0.23341
 Alpha  occ. eigenvalues --   -0.18784
 Alpha virt. eigenvalues --   -0.06227  -0.01367   0.02558   0.04281   0.06337
 Alpha virt. eigenvalues --    0.08398   0.09246   0.11215   0.11939   0.12250
 Alpha virt. eigenvalues --    0.12397   0.12948   0.13170   0.13386   0.13689

 Mulliken charges:
               1
     1  O   -0.549925
     2  O   -0.570382
     3  C   -0.005671
     4  C   -0.136532
     5  C   -0.184823
     6  C    0.200282
     7  C    0.135403
     8  C   -0.052137
     9  C   -0.286828
    10  C   -0.270781
    11  C   -0.189378
    12  C   -0.179168
    13  C    0.154974
    14  C    0.084606
    15  C   -0.093849
    16  C   -0.162640
    17  C    0.021092
    18  C   -0.302924
    19  C   -0.268569
    20  C   -0.369032
    21  C   -0.072783
    22  C   -0.137479
    23  C   -0.368148
    24  C    0.116509
    25  C   -0.120773
    26  C   -0.395581
    27  C    0.088691
    28  C   -0.150151
    29  C   -0.366514
    30  C   -0.097069
    31  C   -0.016310
    32  C   -0.121720
    33  C   -0.161356
    34  C    0.085980
    35  C   -0.118020
    36  C    0.074741
    37  C   -0.354305
    38  C   -0.097820
    39  C   -0.137319
    40  C   -0.356080
    41  C   -0.096892
    42  C   -0.078673
    43  H    0.085231
    44  H    0.076288
    45  H    0.081559
    46  H    0.096997
    47  H    0.112281
    48  H    0.097361
    49  H    0.097526
    50  H    0.103217
    51  H    0.104076
    52  H    0.070019
    53  H    0.106328
    54  H    0.081339
    55  H    0.059179
    56  H    0.053862
    57  H    0.061319
    58  H    0.115241
    59  H    0.087635
    60  H    0.112963
    61  H    0.102101
    62  H    0.112610
    63  H    0.085097
    64  H    0.110976
    65  H    0.088895
    66  H    0.114551
    67  H    0.122076
    68  H    0.111512
    69  H    0.297939
    70  H    0.078435
    71  H    0.071148
    72  H    0.108897
    73  H    0.114041
    74  H    0.132402
    75  H    0.307815
    76  H    0.089441
    77  H    0.119709
    78  H    0.094339
    79  H    0.141262
    80  H    0.071771
    81  H    0.110273
    82  H    0.123645
    83  H    0.111021
    84  H    0.079932
    85  H    0.079419
    86  H    0.081623
    87  H    0.085675
    88  H    0.086865
    89  H    0.125768
    90  H    0.135811
    91  H    0.113652
    92  H    0.084306
    93  H    0.077299
    94  H    0.138321
    95  H    0.101576
    96  H    0.130752
    97  H    0.081108
    98  H    0.082869
 Sum of Mulliken charges =  -0.00000

 Dipole moment (field-independent basis, Debye):
    X=             -0.1091    Y=              0.8835    Z=             -1.2538  Tot=              1.5377
 Quadrupole moment (field-independent basis, Debye-Ang):
   XX=           -301.6219   YY=           -244.0441   ZZ=           -264.1732
   XY=             -3.0689   XZ=             40.3480   YZ=              3.0981

 Normal termination of Gaussian 16 at Sun Jul 14 18:28:24 2019.
