 Gaussian 16, Revision A.03,
 Gaussian 16:  ES64L-G16RevA.03 25-Dec-2016

 -------------------------------------
 # td=(NStates=1) CAM-B3LYP/6-31G(d,p)
 -------------------------------------

 --
 TD
 --
 Symbolic Z-matrix:
 Charge =  0 Multiplicity = 1

                         Standard orientation:
 ---------------------------------------------------------------------
 Center     Atomic      Atomic             Coordinates (Angstroms)
 Number     Number       Type             X           Y           Z
 ---------------------------------------------------------------------
      1          8           0      -14.193127   -1.931192    0.356280
      2          8           0       14.757844    0.966031   -0.117037
      3          6           0      -11.790539    0.019013    1.160698
      4          6           0      -10.949380    0.326687   -0.122201
      5          6           0      -12.027362   -1.517604    1.268823
      6          6           0      -12.815634   -2.038696    0.151144
      7          6           0      -11.458379   -0.402919   -1.253660
      8          6           0       11.126590    1.083203    0.866235
      9          6           0      -11.048399    0.552432    2.395024
     10          6           0      -13.098594    0.808152    1.157245
     11          6           0       12.570553    1.569620    0.631929
     12          6           0      -12.284921   -1.415536   -1.120668
     13          6           0       13.450629    0.457057    0.264989
     14          6           0       10.607694   -0.086737   -0.011821
     15          6           0       -9.475781   -0.033485    0.073268
     16          6           0       12.981527   -0.266671   -1.044499
     17          6           0       11.500474   -0.583569   -0.960933
     18          6           0       10.232357    2.278132    0.805816
     19          6           0       11.003752    0.580429    2.375406
     20          6           0      -11.059254    0.080820   -2.701210
     21          6           0       -8.535700    0.824961   -0.163933
     22          6           0        9.259368   -0.542647    0.047657
     23          6           0       11.212044   -1.499515   -2.092915
     24          6           0       -7.143276    0.552408   -0.164321
     25          6           0        8.797675   -1.793350   -0.093708
     26          6           0       -6.714891   -0.886801    0.159380
     27          6           0        7.459694   -2.163097    0.041249
     28          6           0       -6.237710    1.540990   -0.475706
     29          6           0        7.113016   -3.654691    0.390386
     30          6           0        6.330476   -1.349727   -0.001134
     31          6           0       -4.794795    1.409416   -0.545552
     32          6           0        4.998212   -1.657181   -0.046463
     33          6           0       -3.963054    2.539190   -0.642944
     34          6           0       -2.568208    2.645710   -0.495536
     35          6           0        4.001106   -0.716263   -0.125316
     36          6           0        2.579395   -0.866214    0.038295
     37          6           0       -1.976149    4.011379   -0.731095
     38          6           0       -1.713775    1.587918   -0.318185
     39          6           0        1.782144    0.265803   -0.052159
     40          6           0        1.971273   -2.283153    0.256341
     41          6           0       -0.320345    1.557075   -0.277225
     42          6           0        0.369496    0.363566    0.014138
     43          1           0      -10.783072    1.374773   -0.207346
     44          1           0      -12.689023   -1.525741    2.232541
     45          1           0      -11.148286   -2.127720    1.660243
     46          1           0      -12.540242   -3.129476    0.229807
     47          1           0      -10.055627   -0.035601    2.421959
     48          1           0      -10.987875    1.612647    2.526126
     49          1           0      -11.656878    0.157219    3.327246
     50          1           0      -13.762938    0.636117    0.364870
     51          1           0      -13.515731    0.592047    2.049674
     52          1           0      -12.873682    1.847035    1.116327
     53          1           0       12.520292    2.563127   -0.202652
     54          1           0       12.757330    1.978659    1.562112
     55          1           0      -12.457149   -1.953706   -1.907706
     56          1           0       13.352338   -0.260956    1.098938
     57          1           0       -9.296752   -1.122428    0.521803
     58          1           0       13.766877   -0.961898   -1.360038
     59          1           0       13.057211    0.521045   -1.783343
     60          1           0        9.413821    2.072116    1.450640
     61          1           0        9.854697    2.445191   -0.267185
     62          1           0       10.787759    3.245271    1.295137
     63          1           0       11.691014   -0.209359    2.816418
     64          1           0        9.988419    0.262516    2.559387
     65          1           0       11.227279    1.456668    2.976346
     66          1           0       -9.743023   -0.027001   -2.910748
     67          1           0      -11.283093    1.170533   -2.590882
     68          1           0      -11.429596   -0.665301   -3.414447
     69          1           0      -14.620250   -2.144176   -0.346782
     70          1           0        8.597337    0.230896    0.257629
     71          1           0       -8.613014    1.734822   -0.454750
     72          1           0       11.623567   -2.612330   -1.778635
     73          1           0       10.194288   -1.650740   -2.074570
     74          1           0       11.934979   -1.383247   -3.005625
     75          1           0       15.372180    1.207350    0.624232
     76          1           0        9.631216   -2.557143   -0.177422
     77          1           0       -5.667983   -1.063494   -0.458473
     78          1           0       -6.592995   -1.084494    1.159095
     79          1           0       -7.595009   -1.602186   -0.324197
     80          1           0       -6.425668    2.636666   -0.592910
     81          1           0        6.712718   -3.687813    1.588563
     82          1           0        6.296796   -3.975638   -0.115098
     83          1           0        7.965391   -4.176816    0.256571
     84          1           0        6.540334   -0.304644   -0.232769
     85          1           0       -4.613520    0.213987   -0.510413
     86          1           0        4.647469   -2.691143    0.268538
     87          1           0       -4.499998    3.556808   -0.722263
     88          1           0        4.256999    0.251115   -0.295156
     89          1           0       -1.987692    4.145854   -2.108782
     90          1           0       -0.981804    4.299959   -0.207245
     91          1           0       -2.638398    4.930960   -0.150269
     92          1           0       -2.071501    0.688235    0.134501
     93          1           0        2.345477    1.256829   -0.294044
     94          1           0        2.043849   -3.000093    1.343589
     95          1           0        0.790003   -2.367929   -0.058134
     96          1           0        2.357847   -2.795967   -0.565280
     97          1           0        0.227327    2.439294   -0.849838
     98          1           0       -0.169733   -0.466053    0.269710
 ---------------------------------------------------------------------

 SCF Done:  E(RCAM-B3LYP) =  -1706.87123513     A.U. after   15 cycles

 Excitation energies and oscillator strengths:

 Excited State   1:      Singlet-A      2.0654 eV  600.29 nm  f=3.1634  <S**2>=0.000
     155 ->158        -0.15793
     156 ->157         0.68979
 This state for optimization and/or second-order correction.
 Total Energy, E(TD-HF/TD-DFT) =  -1706.79533292
 Copying the excited state density for this state as the 1-particle RhoCI density.

 The electronic state is 1-A.
 Alpha  occ. eigenvalues --  -19.20865 -19.20409 -10.30554 -10.30275 -10.30025
 Alpha  occ. eigenvalues --  -10.28231 -10.28161 -10.28086 -10.28036 -10.27485
 Alpha  occ. eigenvalues --  -10.27450 -10.27442 -10.27369 -10.27281 -10.27247
 Alpha  occ. eigenvalues --  -10.27059 -10.27026 -10.27010 -10.26699 -10.26546
 Alpha  occ. eigenvalues --  -10.26436 -10.26276 -10.26240 -10.26208 -10.26112
 Alpha  occ. eigenvalues --  -10.26054 -10.25828 -10.25771 -10.25505 -10.25474
 Alpha  occ. eigenvalues --  -10.25415 -10.25386 -10.25333 -10.25248 -10.25046
 Alpha  occ. eigenvalues --  -10.25018 -10.24867 -10.24829 -10.24734 -10.23797
 Alpha  occ. eigenvalues --  -10.23375 -10.21507  -1.12790  -1.07341  -0.94661
 Alpha  occ. eigenvalues --   -0.93761  -0.92008  -0.91638  -0.91038  -0.89970
 Alpha  occ. eigenvalues --   -0.87739  -0.87130  -0.86945  -0.86150  -0.85097
 Alpha  occ. eigenvalues --   -0.83516  -0.82502  -0.80671  -0.80143  -0.77584
 Alpha  occ. eigenvalues --   -0.76644  -0.76327  -0.75621  -0.75398  -0.75283
 Alpha  occ. eigenvalues --   -0.75220  -0.74905  -0.74706  -0.72390  -0.70494
 Alpha  occ. eigenvalues --   -0.69420  -0.68256  -0.66536  -0.65397  -0.63590
 Alpha  occ. eigenvalues --   -0.62956  -0.62693  -0.62087  -0.60635  -0.60484
 Alpha  occ. eigenvalues --   -0.59681  -0.59300  -0.58840  -0.58286  -0.57048
 Alpha  occ. eigenvalues --   -0.55822  -0.55432  -0.55190  -0.54206  -0.54124
 Alpha  occ. eigenvalues --   -0.53860  -0.53113  -0.52941  -0.52533  -0.51359
 Alpha  occ. eigenvalues --   -0.50693  -0.50345  -0.49923  -0.49026  -0.48875
 Alpha  occ. eigenvalues --   -0.48512  -0.48424  -0.48340  -0.47567  -0.47113
 Alpha  occ. eigenvalues --   -0.46992  -0.46917  -0.46809  -0.46671  -0.46229
 Alpha  occ. eigenvalues --   -0.45986  -0.45341  -0.45113  -0.44901  -0.44436
 Alpha  occ. eigenvalues --   -0.44307  -0.44016  -0.43899  -0.43362  -0.43106
 Alpha  occ. eigenvalues --   -0.42847  -0.42598  -0.42033  -0.41807  -0.41564
 Alpha  occ. eigenvalues --   -0.40989  -0.40963  -0.40779  -0.40570  -0.40244
 Alpha  occ. eigenvalues --   -0.40063  -0.39928  -0.39680  -0.39318  -0.39144
 Alpha  occ. eigenvalues --   -0.38886  -0.38543  -0.38301  -0.38233  -0.37597
 Alpha  occ. eigenvalues --   -0.37277  -0.37117  -0.37100  -0.36232  -0.35884
 Alpha  occ. eigenvalues --   -0.35255  -0.34569  -0.34057  -0.32272  -0.32161
 Alpha  occ. eigenvalues --   -0.32072  -0.29852  -0.28881  -0.26752  -0.23230
 Alpha  occ. eigenvalues --   -0.19197
 Alpha virt. eigenvalues --   -0.06130  -0.01487   0.02451   0.05603   0.06891
 Alpha virt. eigenvalues --    0.08897   0.10295   0.11197   0.11428   0.11930
 Alpha virt. eigenvalues --    0.12353   0.12507   0.12804   0.12917   0.13608

 Mulliken charges:
               1
     1  O   -0.507516
     2  O   -0.580508
     3  C   -0.007099
     4  C   -0.144033
     5  C   -0.203910
     6  C    0.164261
     7  C    0.161911
     8  C   -0.033005
     9  C   -0.295145
    10  C   -0.275424
    11  C   -0.144115
    12  C   -0.151660
    13  C    0.156032
    14  C    0.074336
    15  C   -0.119832
    16  C   -0.228820
    17  C    0.050707
    18  C   -0.298376
    19  C   -0.321878
    20  C   -0.327007
    21  C    0.003295
    22  C   -0.097666
    23  C   -0.355141
    24  C    0.075561
    25  C   -0.126486
    26  C   -0.355902
    27  C    0.065303
    28  C   -0.132411
    29  C   -0.343326
    30  C   -0.107853
    31  C   -0.047950
    32  C   -0.080092
    33  C   -0.143088
    34  C    0.111823
    35  C   -0.103835
    36  C    0.107794
    37  C   -0.337535
    38  C   -0.113235
    39  C   -0.132358
    40  C   -0.362028
    41  C   -0.081959
    42  C   -0.079437
    43  H    0.087303
    44  H    0.095970
    45  H    0.097727
    46  H    0.070866
    47  H    0.089903
    48  H    0.108265
    49  H    0.075700
    50  H    0.108795
    51  H    0.107137
    52  H    0.085328
    53  H    0.063641
    54  H    0.094403
    55  H    0.059249
    56  H    0.087739
    57  H    0.085661
    58  H    0.118920
    59  H    0.131249
    60  H    0.108064
    61  H    0.104696
    62  H    0.083996
    63  H    0.095054
    64  H    0.113148
    65  H    0.095188
    66  H    0.068228
    67  H    0.125307
    68  H    0.120267
    69  H    0.281963
    70  H    0.083942
    71  H    0.059726
    72  H    0.082125
    73  H    0.121740
    74  H    0.117271
    75  H    0.303039
    76  H    0.097534
    77  H    0.088106
    78  H    0.144330
    79  H    0.096007
    80  H    0.077397
    81  H    0.086439
    82  H    0.131742
    83  H    0.108341
    84  H    0.069214
    85  H    0.071312
    86  H    0.080034
    87  H    0.085151
    88  H    0.072120
    89  H    0.076582
    90  H    0.119677
    91  H    0.080813
    92  H    0.081924
    93  H    0.078501
    94  H    0.094543
    95  H    0.086283
    96  H    0.139673
    97  H    0.084545
    98  H    0.085727
 Sum of Mulliken charges =  -0.00000

 Dipole moment (field-independent basis, Debye):
    X=              0.1933    Y=             -0.6493    Z=              0.3400  Tot=              0.7580
 Quadrupole moment (field-independent basis, Debye-Ang):
   XX=           -250.4358   YY=           -247.1407   ZZ=           -263.5743
   XY=              2.7098   XZ=             35.8592   YZ=              3.9197

 Normal termination of Gaussian 16 at Sat Jul 13 03:46:59 2019.
