 Gaussian 16, Revision A.03,
 Gaussian 16:  ES64L-G16RevA.03 25-Dec-2016

 -------------------------------------
 # td=(NStates=1) CAM-B3LYP/6-31G(d,p)
 -------------------------------------

 --
 TD
 --
 Symbolic Z-matrix:
 Charge =  0 Multiplicity = 1

                         Standard orientation:
 ---------------------------------------------------------------------
 Center     Atomic      Atomic             Coordinates (Angstroms)
 Number     Number       Type             X           Y           Z
 ---------------------------------------------------------------------
      1          8           0      -14.138553   -1.917091    0.666105
      2          8           0       14.692901    1.104732    0.377897
      3          6           0      -11.657248    0.006680    1.433271
      4          6           0      -10.939832    0.344428    0.066609
      5          6           0      -11.904335   -1.511873    1.407647
      6          6           0      -12.730879   -2.086183    0.326062
      7          6           0      -11.619419   -0.299163   -1.107277
      8          6           0       10.910749    1.009747    1.118198
      9          6           0      -10.777727    0.429935    2.636569
     10          6           0      -12.911022    0.777777    1.511431
     11          6           0       12.398864    1.577487    0.835711
     12          6           0      -12.434915   -1.355769   -0.943669
     13          6           0       13.385385    0.509389    0.504659
     14          6           0       10.602254   -0.144482    0.136394
     15          6           0       -9.488534   -0.051569   -0.017284
     16          6           0       13.008965   -0.155223   -0.766665
     17          6           0       11.538677   -0.541372   -0.750460
     18          6           0        9.991246    2.167376    1.043370
     19          6           0       10.960844    0.405648    2.510629
     20          6           0      -11.382232    0.405652   -2.455748
     21          6           0       -8.493863    0.785206   -0.171753
     22          6           0        9.131690   -0.504371    0.077483
     23          6           0       11.241334   -1.526712   -1.972108
     24          6           0       -7.023235    0.487574   -0.283600
     25          6           0        8.755601   -1.768031   -0.121698
     26          6           0       -6.658698   -0.947385   -0.117098
     27          6           0        7.427566   -2.227488   -0.158585
     28          6           0       -6.095093    1.507278   -0.382305
     29          6           0        7.027216   -3.640721    0.042659
     30          6           0        6.475732   -1.307370   -0.274639
     31          6           0       -4.719870    1.400425   -0.465455
     32          6           0        5.009807   -1.616423   -0.108772
     33          6           0       -3.976822    2.546805   -0.757844
     34          6           0       -2.574370    2.583800   -0.850885
     35          6           0        4.003835   -0.621717   -0.387030
     36          6           0        2.602449   -0.789562   -0.419333
     37          6           0       -1.903511    3.942974   -1.048075
     38          6           0       -1.742521    1.553793   -0.564729
     39          6           0        1.810853    0.226305   -0.596263
     40          6           0        2.037960   -2.170664   -0.051123
     41          6           0       -0.241773    1.499925   -0.661896
     42          6           0        0.381192    0.306552   -0.464749
     43          1           0      -10.743189    1.522435   -0.166731
     44          1           0      -12.126152   -2.031590    2.390582
     45          1           0      -10.890161   -2.130274    1.369130
     46          1           0      -12.586678   -3.207097    0.088092
     47          1           0       -9.712516   -0.044493    2.372254
     48          1           0      -10.672810    1.541581    2.786630
     49          1           0      -11.138847    0.109584    3.691010
     50          1           0      -13.259692    0.618395    0.392491
     51          1           0      -13.595634    0.460489    2.343371
     52          1           0      -12.898651    1.779020    1.613420
     53          1           0       12.351056    2.197591   -0.018452
     54          1           0       12.802531    2.033164    1.663362
     55          1           0      -12.823452   -1.681409   -2.036628
     56          1           0       13.533385   -0.372416    1.376683
     57          1           0       -9.302761   -1.169375   -0.288032
     58          1           0       13.476997   -1.139146   -0.894182
     59          1           0       13.233074    0.712423   -1.514607
     60          1           0        8.985730    1.871496    1.447583
     61          1           0        9.888719    2.780064    0.106966
     62          1           0       10.255529    3.029397    1.900082
     63          1           0       11.797137   -0.235112    2.374164
     64          1           0       10.026088   -0.224127    2.661009
     65          1           0       11.068627    1.068430    3.356070
     66          1           0      -10.316563    0.717950   -2.437131
     67          1           0      -12.137321    1.129015   -2.740711
     68          1           0      -11.519800   -0.507860   -3.257496
     69          1           0      -14.712424   -2.222949    0.049748
     70          1           0        8.512806    0.331857    0.084566
     71          1           0       -8.731605    1.773410    0.140584
     72          1           0       11.476708   -2.469391   -1.799394
     73          1           0       10.176580   -1.671735   -2.185979
     74          1           0       11.731665   -1.098928   -2.837597
     75          1           0       14.679867    1.762334    1.260657
     76          1           0        9.579764   -2.534922   -0.228907
     77          1           0       -5.490186   -1.195784    0.067976
     78          1           0       -7.141119   -1.444877    0.803828
     79          1           0       -7.050818   -1.645652   -1.007837
     80          1           0       -6.439113    2.676954   -0.347885
     81          1           0        6.547588   -3.980532    1.092532
     82          1           0        6.222837   -3.744332   -0.716425
     83          1           0        8.021983   -4.168011   -0.314985
     84          1           0        6.639690   -0.309239   -0.454507
     85          1           0       -4.239672    0.338641   -0.310158
     86          1           0        4.882235   -2.635514    0.122519
     87          1           0       -4.415665    3.656763   -0.529334
     88          1           0        4.343227    0.413392   -0.611115
     89          1           0       -1.296210    3.667486   -2.009598
     90          1           0       -1.229062    4.051096   -0.277329
     91          1           0       -2.524861    4.867920   -0.959852
     92          1           0       -2.265756    0.597716   -0.298520
     93          1           0        2.345134    1.308910   -0.702226
     94          1           0        2.463094   -2.451913    0.958405
     95          1           0        0.877794   -2.353880   -0.186971
     96          1           0        2.311277   -2.759917   -1.042969
     97          1           0        0.178999    2.246882   -1.071009
     98          1           0       -0.142117   -0.587135   -0.129064
 ---------------------------------------------------------------------

 SCF Done:  E(RCAM-B3LYP) =  -1706.95530570     A.U. after   14 cycles

 Excitation energies and oscillator strengths:

 Excited State   1:      Singlet-A      2.4987 eV  496.19 nm  f=2.8330  <S**2>=0.000
     155 ->158         0.18402
     156 ->157         0.67888
 This state for optimization and/or second-order correction.
 Total Energy, E(TD-HF/TD-DFT) =  -1706.86347971
 Copying the excited state density for this state as the 1-particle RhoCI density.

 The electronic state is 1-A.
 Alpha  occ. eigenvalues --  -19.21888 -19.19474 -10.31894 -10.30754 -10.28164
 Alpha  occ. eigenvalues --  -10.28132 -10.27925 -10.27688 -10.27501 -10.27494
 Alpha  occ. eigenvalues --  -10.27469 -10.27419 -10.27416 -10.27350 -10.27269
 Alpha  occ. eigenvalues --  -10.27099 -10.27067 -10.26831 -10.26808 -10.26662
 Alpha  occ. eigenvalues --  -10.26620 -10.26518 -10.26511 -10.26474 -10.26272
 Alpha  occ. eigenvalues --  -10.26155 -10.26079 -10.25990 -10.25973 -10.25951
 Alpha  occ. eigenvalues --  -10.25873 -10.25823 -10.25791 -10.25628 -10.25607
 Alpha  occ. eigenvalues --  -10.25564 -10.25498 -10.24599 -10.24364 -10.23877
 Alpha  occ. eigenvalues --  -10.23823 -10.22463  -1.08991  -1.07305  -0.94085
 Alpha  occ. eigenvalues --   -0.93672  -0.92537  -0.91977  -0.91470  -0.90081
 Alpha  occ. eigenvalues --   -0.87323  -0.86852  -0.86449  -0.85818  -0.85154
 Alpha  occ. eigenvalues --   -0.83318  -0.81866  -0.80800  -0.80146  -0.77035
 Alpha  occ. eigenvalues --   -0.76803  -0.76229  -0.75952  -0.75924  -0.75300
 Alpha  occ. eigenvalues --   -0.75272  -0.75072  -0.73955  -0.73083  -0.70491
 Alpha  occ. eigenvalues --   -0.69201  -0.67831  -0.66629  -0.64500  -0.63733
 Alpha  occ. eigenvalues --   -0.63264  -0.62803  -0.61701  -0.60308  -0.59207
 Alpha  occ. eigenvalues --   -0.59133  -0.58884  -0.57744  -0.57353  -0.55961
 Alpha  occ. eigenvalues --   -0.55702  -0.55047  -0.54679  -0.53827  -0.53596
 Alpha  occ. eigenvalues --   -0.53355  -0.52794  -0.52081  -0.51851  -0.51118
 Alpha  occ. eigenvalues --   -0.50380  -0.50248  -0.49895  -0.49670  -0.49405
 Alpha  occ. eigenvalues --   -0.49215  -0.48810  -0.48503  -0.48350  -0.47945
 Alpha  occ. eigenvalues --   -0.47525  -0.47201  -0.46858  -0.46667  -0.46389
 Alpha  occ. eigenvalues --   -0.46188  -0.45532  -0.45309  -0.44973  -0.44505
 Alpha  occ. eigenvalues --   -0.44056  -0.43866  -0.43469  -0.43033  -0.42922
 Alpha  occ. eigenvalues --   -0.42783  -0.42493  -0.42297  -0.41958  -0.41810
 Alpha  occ. eigenvalues --   -0.41585  -0.41413  -0.41207  -0.40879  -0.40421
 Alpha  occ. eigenvalues --   -0.40359  -0.40052  -0.39940  -0.39503  -0.39024
 Alpha  occ. eigenvalues --   -0.38863  -0.38783  -0.38392  -0.38064  -0.37706
 Alpha  occ. eigenvalues --   -0.37498  -0.37315  -0.36560  -0.35843  -0.35271
 Alpha  occ. eigenvalues --   -0.34835  -0.34791  -0.33516  -0.32226  -0.31846
 Alpha  occ. eigenvalues --   -0.31416  -0.29957  -0.29051  -0.27647  -0.23820
 Alpha  occ. eigenvalues --   -0.20728
 Alpha virt. eigenvalues --   -0.04995  -0.01357   0.03132   0.05333   0.07223
 Alpha virt. eigenvalues --    0.08656   0.09795   0.10025   0.10696   0.12206
 Alpha virt. eigenvalues --    0.12649   0.12937   0.13265   0.13489   0.13530

 Mulliken charges:
               1
     1  O   -0.541099
     2  O   -0.567052
     3  C    0.034090
     4  C   -0.153122
     5  C   -0.182128
     6  C    0.143112
     7  C    0.105381
     8  C   -0.018105
     9  C   -0.304207
    10  C   -0.264511
    11  C   -0.185272
    12  C   -0.115810
    13  C    0.169634
    14  C    0.033903
    15  C   -0.073124
    16  C   -0.203218
    17  C    0.019622
    18  C   -0.307226
    19  C   -0.291589
    20  C   -0.347254
    21  C   -0.093913
    22  C   -0.085712
    23  C   -0.367397
    24  C    0.102681
    25  C   -0.111564
    26  C   -0.372012
    27  C    0.097250
    28  C   -0.110557
    29  C   -0.364434
    30  C   -0.090077
    31  C   -0.056005
    32  C   -0.112499
    33  C   -0.137017
    34  C    0.079325
    35  C   -0.134839
    36  C    0.141917
    37  C   -0.372426
    38  C   -0.124242
    39  C   -0.144678
    40  C   -0.363587
    41  C   -0.053970
    42  C   -0.068869
    43  H    0.077602
    44  H    0.108628
    45  H    0.083000
    46  H    0.082791
    47  H    0.086783
    48  H    0.097257
    49  H    0.092371
    50  H    0.087034
    51  H    0.100465
    52  H    0.098998
    53  H    0.108641
    54  H    0.078803
    55  H    0.056292
    56  H    0.051009
    57  H    0.076682
    58  H    0.119951
    59  H    0.115000
    60  H    0.100662
    61  H    0.107304
    62  H    0.069338
    63  H    0.106460
    64  H    0.096400
    65  H    0.098176
    66  H    0.123646
    67  H    0.135137
    68  H    0.082048
    69  H    0.291033
    70  H    0.101936
    71  H    0.084608
    72  H    0.126216
    73  H    0.112728
    74  H    0.111912
    75  H    0.299014
    76  H    0.078872
    77  H    0.089225
    78  H    0.121198
    79  H    0.107563
    80  H    0.076078
    81  H    0.116862
    82  H    0.129144
    83  H    0.093122
    84  H    0.069333
    85  H    0.095437
    86  H    0.083255
    87  H    0.082912
    88  H    0.085811
    89  H    0.118089
    90  H    0.138075
    91  H    0.104488
    92  H    0.063701
    93  H    0.065160
    94  H    0.130106
    95  H    0.100450
    96  H    0.114376
    97  H    0.070582
    98  H    0.088837
 Sum of Mulliken charges =  -0.00000

 Dipole moment (field-independent basis, Debye):
    X=             -0.7181    Y=             -0.2839    Z=             -0.0029  Tot=              0.7722
 Quadrupole moment (field-independent basis, Debye-Ang):
   XX=           -311.1582   YY=           -242.0586   ZZ=           -263.7530
   XY=             10.8635   XZ=             25.3638   YZ=              4.7837

 Normal termination of Gaussian 16 at Tue Jul 16 06:12:10 2019.
