 Gaussian 16, Revision A.03,
 Gaussian 16:  ES64L-G16RevA.03 25-Dec-2016

 -------------------------------------
 # td=(NStates=1) CAM-B3LYP/6-31G(d,p)
 -------------------------------------

 --
 TD
 --
 Symbolic Z-matrix:
 Charge =  0 Multiplicity = 1

                         Standard orientation:
 ---------------------------------------------------------------------
 Center     Atomic      Atomic             Coordinates (Angstroms)
 Number     Number       Type             X           Y           Z
 ---------------------------------------------------------------------
      1          8           0      -14.270236   -1.885717    0.621383
      2          8           0       14.855967    0.781895    0.338790
      3          6           0      -11.672962   -0.090542    1.328756
      4          6           0      -10.949577    0.320440    0.128239
      5          6           0      -12.060045   -1.604362    1.323632
      6          6           0      -12.961738   -2.072216    0.197931
      7          6           0      -11.687388   -0.250576   -1.152175
      8          6           0       11.108716    0.865278    1.066566
      9          6           0      -10.804652    0.286336    2.584477
     10          6           0      -12.974392    0.803829    1.486171
     11          6           0       12.575983    1.338935    1.003736
     12          6           0      -12.565029   -1.275316   -1.059848
     13          6           0       13.509147    0.265710    0.577267
     14          6           0       10.725194   -0.085885    0.016934
     15          6           0       -9.564578   -0.048443    0.034914
     16          6           0       13.046979   -0.284246   -0.899374
     17          6           0       11.538223   -0.476052   -0.915931
     18          6           0       10.224034    2.209447    1.104873
     19          6           0       10.879239    0.280628    2.478379
     20          6           0      -11.337967    0.333761   -2.441009
     21          6           0       -8.540446    0.835504   -0.156832
     22          6           0        9.258990   -0.388858    0.015052
     23          6           0       11.101137   -1.240747   -2.224918
     24          6           0       -7.110014    0.464124   -0.205102
     25          6           0        8.846769   -1.664316   -0.098587
     26          6           0       -6.665502   -0.998181    0.095424
     27          6           0        7.458236   -2.041565   -0.137349
     28          6           0       -6.231721    1.415967   -0.309329
     29          6           0        7.091091   -3.520717    0.095590
     30          6           0        6.425145   -1.118393   -0.278486
     31          6           0       -4.859048    1.339638   -0.364614
     32          6           0        5.126906   -1.437417   -0.195463
     33          6           0       -4.038775    2.417161   -0.708321
     34          6           0       -2.541987    2.574776   -0.622643
     35          6           0        4.090676   -0.516165   -0.273990
     36          6           0        2.695394   -0.727906   -0.362428
     37          6           0       -2.047877    3.906930   -0.965956
     38          6           0       -1.704964    1.453840   -0.518602
     39          6           0        1.881131    0.408346   -0.574807
     40          6           0        2.174547   -2.119833   -0.126062
     41          6           0       -0.327480    1.471761   -0.632029
     42          6           0        0.483604    0.394849   -0.429371
     43          1           0      -10.886654    1.432450    0.024704
     44          1           0      -12.456798   -1.665802    2.243164
     45          1           0      -11.266354   -2.272058    1.201429
     46          1           0      -12.625366   -3.165144   -0.159358
     47          1           0      -10.047286   -0.417399    2.575697
     48          1           0      -10.348537    1.209930    2.160968
     49          1           0      -11.321193    0.315751    3.451102
     50          1           0      -13.507816    0.695598    0.466229
     51          1           0      -13.477939    0.143315    2.431917
     52          1           0      -12.693121    1.763160    1.790787
     53          1           0       12.587299    2.323450    0.299576
     54          1           0       12.954975    1.891209    1.941707
     55          1           0      -13.303136   -1.575764   -2.013408
     56          1           0       13.567928   -0.669816    1.322830
     57          1           0       -9.231271   -1.243357   -0.019440
     58          1           0       13.625828   -1.245964   -1.071916
     59          1           0       13.532134    0.380672   -1.655122
     60          1           0        9.313975    2.203097    1.715559
     61          1           0       10.088024    2.802048    0.199132
     62          1           0       10.922406    2.882385    1.906927
     63          1           0       11.460259   -0.618136    2.527862
     64          1           0        9.921202    0.071184    2.828929
     65          1           0       11.249526    0.957038    3.087142
     66          1           0      -10.297004    0.061813   -2.839427
     67          1           0      -11.601428    1.439572   -2.545862
     68          1           0      -11.936418   -0.190430   -3.145129
     69          1           0      -14.801458   -1.886362   -0.197830
     70          1           0        8.668003    0.494264    0.243727
     71          1           0       -8.789698    1.927273   -0.148118
     72          1           0       11.317563   -2.241782   -2.197531
     73          1           0       10.001611   -1.222502   -2.376840
     74          1           0       11.485913   -0.658815   -3.130911
     75          1           0       15.085128    1.209877    1.213798
     76          1           0        9.672477   -2.505388   -0.097879
     77          1           0       -5.777402   -1.014206    0.174024
     78          1           0       -7.331243   -1.349394    1.191341
     79          1           0       -7.201317   -1.481126   -0.713250
     80          1           0       -6.824438    2.358392   -0.566714
     81          1           0        7.018593   -3.603206    1.282500
     82          1           0        6.018345   -3.522566   -0.580722
     83          1           0        7.791912   -4.246006   -0.326668
     84          1           0        6.796712   -0.042065   -0.268867
     85          1           0       -4.547092    0.377444   -0.239974
     86          1           0        4.863844   -2.628000   -0.080399
     87          1           0       -4.725232    3.278591   -0.972268
     88          1           0        4.359090    0.510908   -0.129672
     89          1           0       -1.515794    3.888804   -2.006635
     90          1           0       -1.239637    4.107321   -0.084381
     91          1           0       -2.907919    4.546776   -1.027647
     92          1           0       -2.250813    0.543298   -0.533128
     93          1           0        2.160455    1.409102   -0.740365
     94          1           0        2.566120   -2.363886    0.872519
     95          1           0        1.147189   -2.224682   -0.293013
     96          1           0        2.464019   -2.820772   -0.892977
     97          1           0        0.046802    2.471930   -0.796943
     98          1           0       -0.030799   -0.544586   -0.290837
 ---------------------------------------------------------------------

 SCF Done:  E(RCAM-B3LYP) =  -1706.93278261     A.U. after   15 cycles

 Excitation energies and oscillator strengths:

 Excited State   1:      Singlet-A      2.1449 eV  578.05 nm  f=3.1089  <S**2>=0.000
     155 ->158        -0.14871
     156 ->157         0.69296
 This state for optimization and/or second-order correction.
 Total Energy, E(TD-HF/TD-DFT) =  -1706.85396031
 Copying the excited state density for this state as the 1-particle RhoCI density.

 The electronic state is 1-A.
 Alpha  occ. eigenvalues --  -19.22336 -19.21451 -10.31864 -10.31670 -10.27969
 Alpha  occ. eigenvalues --  -10.27844 -10.27653 -10.27434 -10.27386 -10.27369
 Alpha  occ. eigenvalues --  -10.27279 -10.27048 -10.26992 -10.26933 -10.26909
 Alpha  occ. eigenvalues --  -10.26872 -10.26732 -10.26685 -10.26427 -10.26376
 Alpha  occ. eigenvalues --  -10.26362 -10.26282 -10.26244 -10.26157 -10.25863
 Alpha  occ. eigenvalues --  -10.25827 -10.25802 -10.25655 -10.25559 -10.25556
 Alpha  occ. eigenvalues --  -10.25506 -10.25459 -10.25390 -10.25164 -10.25111
 Alpha  occ. eigenvalues --  -10.25027 -10.24962 -10.24630 -10.24569 -10.22986
 Alpha  occ. eigenvalues --  -10.22520 -10.22508  -1.11153  -1.07777  -0.94304
 Alpha  occ. eigenvalues --   -0.94159  -0.92287  -0.92016  -0.91054  -0.89796
 Alpha  occ. eigenvalues --   -0.87244  -0.86884  -0.86564  -0.85794  -0.84774
 Alpha  occ. eigenvalues --   -0.83168  -0.82147  -0.80847  -0.79507  -0.79008
 Alpha  occ. eigenvalues --   -0.77475  -0.76906  -0.76168  -0.76033  -0.75935
 Alpha  occ. eigenvalues --   -0.75022  -0.74739  -0.74387  -0.72567  -0.70067
 Alpha  occ. eigenvalues --   -0.68879  -0.67608  -0.66268  -0.65482  -0.64222
 Alpha  occ. eigenvalues --   -0.62882  -0.62702  -0.61648  -0.60989  -0.59520
 Alpha  occ. eigenvalues --   -0.59381  -0.58652  -0.57867  -0.56949  -0.56622
 Alpha  occ. eigenvalues --   -0.55633  -0.54988  -0.54793  -0.54432  -0.54123
 Alpha  occ. eigenvalues --   -0.53483  -0.53146  -0.52516  -0.51768  -0.51067
 Alpha  occ. eigenvalues --   -0.50313  -0.49955  -0.49910  -0.49800  -0.49653
 Alpha  occ. eigenvalues --   -0.49311  -0.48924  -0.48566  -0.48386  -0.47824
 Alpha  occ. eigenvalues --   -0.47560  -0.47444  -0.47215  -0.46948  -0.46248
 Alpha  occ. eigenvalues --   -0.46181  -0.45742  -0.45707  -0.45546  -0.45042
 Alpha  occ. eigenvalues --   -0.44885  -0.44523  -0.44174  -0.44012  -0.43422
 Alpha  occ. eigenvalues --   -0.43323  -0.42986  -0.42743  -0.42409  -0.41945
 Alpha  occ. eigenvalues --   -0.41882  -0.41532  -0.41273  -0.40987  -0.40753
 Alpha  occ. eigenvalues --   -0.40264  -0.40076  -0.39945  -0.39540  -0.39471
 Alpha  occ. eigenvalues --   -0.38845  -0.38665  -0.38400  -0.38360  -0.37984
 Alpha  occ. eigenvalues --   -0.37718  -0.37084  -0.36645  -0.35798  -0.35110
 Alpha  occ. eigenvalues --   -0.34197  -0.33888  -0.33400  -0.32631  -0.32480
 Alpha  occ. eigenvalues --   -0.31669  -0.29848  -0.29246  -0.27247  -0.23713
 Alpha  occ. eigenvalues --   -0.19121
 Alpha virt. eigenvalues --   -0.05771  -0.00866   0.03252   0.05596   0.07274
 Alpha virt. eigenvalues --    0.09474   0.11071   0.11261   0.11461   0.11736
 Alpha virt. eigenvalues --    0.12051   0.12419   0.12837   0.13363   0.13958

 Mulliken charges:
               1
     1  O   -0.518070
     2  O   -0.561334
     3  C   -0.023045
     4  C   -0.130455
     5  C   -0.154038
     6  C    0.151392
     7  C    0.122910
     8  C   -0.042642
     9  C   -0.295657
    10  C   -0.263312
    11  C   -0.190318
    12  C   -0.168294
    13  C    0.154091
    14  C    0.092855
    15  C   -0.065001
    16  C   -0.225651
    17  C    0.026029
    18  C   -0.317677
    19  C   -0.286510
    20  C   -0.364550
    21  C   -0.106280
    22  C   -0.101881
    23  C   -0.361297
    24  C    0.079221
    25  C   -0.106377
    26  C   -0.293828
    27  C    0.054293
    28  C   -0.109823
    29  C   -0.345274
    30  C   -0.066803
    31  C   -0.063429
    32  C   -0.102999
    33  C   -0.150803
    34  C    0.074313
    35  C   -0.130338
    36  C    0.087265
    37  C   -0.359869
    38  C   -0.090274
    39  C   -0.115406
    40  C   -0.364398
    41  C   -0.089631
    42  C   -0.074991
    43  H    0.088975
    44  H    0.106454
    45  H    0.092146
    46  H    0.064689
    47  H    0.107834
    48  H    0.095602
    49  H    0.103137
    50  H    0.097044
    51  H    0.073782
    52  H    0.102505
    53  H    0.094657
    54  H    0.075824
    55  H    0.049959
    56  H    0.074169
    57  H    0.068150
    58  H    0.106685
    59  H    0.125729
    60  H    0.110795
    61  H    0.115968
    62  H    0.063959
    63  H    0.097002
    64  H    0.109008
    65  H    0.103190
    66  H    0.120483
    67  H    0.107498
    68  H    0.114205
    69  H    0.303726
    70  H    0.102931
    71  H    0.082027
    72  H    0.122065
    73  H    0.114061
    74  H    0.102207
    75  H    0.301440
    76  H    0.092062
    77  H    0.092896
    78  H    0.077162
    79  H    0.129308
    80  H    0.060846
    81  H    0.119453
    82  H    0.096297
    83  H    0.113212
    84  H    0.078717
    85  H    0.073769
    86  H    0.086918
    87  H    0.081056
    88  H    0.080395
    89  H    0.119402
    90  H    0.108039
    91  H    0.117050
    92  H    0.075070
    93  H    0.081770
    94  H    0.130642
    95  H    0.112564
    96  H    0.123434
    97  H    0.075148
    98  H    0.074764
 Sum of Mulliken charges =  -0.00000

 Dipole moment (field-independent basis, Debye):
    X=              0.3944    Y=             -0.3256    Z=             -0.2641  Tot=              0.5756
 Quadrupole moment (field-independent basis, Debye-Ang):
   XX=           -281.8695   YY=           -247.9003   ZZ=           -261.3204
   XY=              1.6193   XZ=             45.0351   YZ=              2.7448

 Normal termination of Gaussian 16 at Fri Jul 12 19:09:57 2019.
