 Gaussian 16, Revision A.03,
 Gaussian 16:  ES64L-G16RevA.03 25-Dec-2016

 -------------------------------------
 # td=(NStates=1) CAM-B3LYP/6-31G(d,p)
 -------------------------------------

 --
 TD
 --
 Symbolic Z-matrix:
 Charge =  0 Multiplicity = 1

                         Standard orientation:
 ---------------------------------------------------------------------
 Center     Atomic      Atomic             Coordinates (Angstroms)
 Number     Number       Type             X           Y           Z
 ---------------------------------------------------------------------
      1          8           0      -14.216027   -1.791005    0.468251
      2          8           0       14.800458    0.866874    0.030471
      3          6           0      -11.737007    0.102233    1.251556
      4          6           0      -10.989591    0.260483   -0.037992
      5          6           0      -12.062666   -1.295262    1.460848
      6          6           0      -12.796624   -1.993947    0.279354
      7          6           0      -11.672098   -0.502003   -1.237114
      8          6           0       11.159391    0.968372    1.043144
      9          6           0      -10.809955    0.708658    2.397028
     10          6           0      -13.057191    0.912856    1.191762
     11          6           0       12.671021    1.394767    0.805107
     12          6           0      -12.366573   -1.583335   -1.044544
     13          6           0       13.498288    0.359437    0.308188
     14          6           0       10.709268   -0.032931   -0.111019
     15          6           0       -9.567544   -0.083119   -0.067420
     16          6           0       13.051857   -0.189247   -0.976444
     17          6           0       11.551430   -0.529470   -1.088825
     18          6           0       10.301753    2.315464    0.840715
     19          6           0       11.078910    0.511135    2.409028
     20          6           0      -11.324366    0.103124   -2.496155
     21          6           0       -8.557197    0.760907   -0.289083
     22          6           0        9.328990   -0.448724    0.027974
     23          6           0       11.050387   -1.452583   -2.111396
     24          6           0       -7.097327    0.406351   -0.214390
     25          6           0        8.763413   -1.648652    0.062747
     26          6           0       -6.777180   -0.945152    0.180011
     27          6           0        7.406323   -2.050127    0.063090
     28          6           0       -6.191588    1.453234   -0.396721
     29          6           0        7.202331   -3.558925    0.222185
     30          6           0        6.345637   -1.154182   -0.049730
     31          6           0       -4.795600    1.302157   -0.383441
     32          6           0        5.021655   -1.521733    0.025378
     33          6           0       -4.018882    2.370567   -0.644506
     34          6           0       -2.626794    2.530337   -0.587773
     35          6           0        4.040674   -0.583707   -0.158950
     36          6           0        2.585611   -0.770686   -0.080093
     37          6           0       -1.997505    3.793427   -0.994318
     38          6           0       -1.793308    1.431236   -0.441332
     39          6           0        1.748464    0.347037   -0.161372
     40          6           0        1.961929   -2.191535    0.141780
     41          6           0       -0.391789    1.425940   -0.444298
     42          6           0        0.355277    0.296587   -0.297479
     43          1           0      -11.004552    1.366530   -0.331165
     44          1           0      -12.462031   -1.571215    2.358289
     45          1           0      -11.096217   -1.903999    1.684500
     46          1           0      -12.605438   -3.036768    0.612357
     47          1           0      -10.008740    0.082642    2.752505
     48          1           0      -10.484204    1.768581    2.246844
     49          1           0      -11.406362    0.774733    3.260559
     50          1           0      -13.677579    0.565701    0.400678
     51          1           0      -13.468951    0.715841    2.076053
     52          1           0      -12.607072    1.765534    1.064956
     53          1           0       12.587854    2.318372    0.063879
     54          1           0       12.971523    1.648438    1.818644
     55          1           0      -13.005907   -2.244401   -1.842671
     56          1           0       13.472419   -0.357525    1.157361
     57          1           0       -9.386072   -1.122472    0.245388
     58          1           0       13.741236   -1.172235   -1.322571
     59          1           0       13.155914    0.595311   -1.796114
     60          1           0        9.359418    2.039836    1.344570
     61          1           0       10.337248    2.530491   -0.190016
     62          1           0       10.638609    3.107975    1.500964
     63          1           0       11.863777   -0.406604    2.564743
     64          1           0       10.112147    0.060421    2.689517
     65          1           0       11.380759    1.349832    3.110218
     66          1           0      -10.183312    0.210269   -2.635265
     67          1           0      -11.912066    1.086760   -2.561003
     68          1           0      -11.727076   -0.356036   -3.409169
     69          1           0      -14.673612   -2.130587   -0.284985
     70          1           0        8.627030    0.592998    0.155707
     71          1           0       -8.758921    1.768890   -0.688371
     72          1           0       11.711157   -2.403520   -2.124173
     73          1           0        9.946786   -1.713979   -1.968244
     74          1           0       11.336410   -0.763923   -3.255949
     75          1           0       15.283838    1.241306    0.857104
     76          1           0        9.467807   -2.540964   -0.096410
     77          1           0       -5.626639   -0.996139    0.097263
     78          1           0       -7.031359   -1.172631    1.162322
     79          1           0       -7.193292   -1.661357   -0.437143
     80          1           0       -6.668012    2.539696   -0.684292
     81          1           0        6.905172   -3.792217    1.307032
     82          1           0        6.515950   -3.949295   -0.601514
     83          1           0        8.221369   -4.031007    0.412482
     84          1           0        6.790315   -0.130931   -0.255928
     85          1           0       -4.162580    0.433205   -0.348655
     86          1           0        4.604445   -2.511816    0.339372
     87          1           0       -4.619340    3.241833   -0.830450
     88          1           0        4.517194    0.360570   -0.450110
     89          1           0       -1.239584    3.454766   -1.820288
     90          1           0       -1.287838    4.022367   -0.087740
     91          1           0       -2.627856    4.608253   -1.191484
     92          1           0       -2.275099    0.525840   -0.280739
     93          1           0        2.394512    1.205745   -0.203223
     94          1           0        2.262950   -2.582319    1.119683
     95          1           0        1.008367   -2.283654    0.290454
     96          1           0        2.314842   -2.813509   -0.653000
     97          1           0        0.111448    2.343979   -0.695264
     98          1           0       -0.327186   -0.598516   -0.010308
 ---------------------------------------------------------------------

 SCF Done:  E(RCAM-B3LYP) =  -1707.00167980     A.U. after   15 cycles

 Excitation energies and oscillator strengths:

 Excited State   1:      Singlet-A      2.1920 eV  565.61 nm  f=3.0714  <S**2>=0.000
     155 ->158         0.15744
     156 ->157         0.68945
 This state for optimization and/or second-order correction.
 Total Energy, E(TD-HF/TD-DFT) =  -1706.92112354
 Copying the excited state density for this state as the 1-particle RhoCI density.

 The electronic state is 1-A.
 Alpha  occ. eigenvalues --  -19.21070 -19.20411 -10.30154 -10.29650 -10.28074
 Alpha  occ. eigenvalues --  -10.28020 -10.27464 -10.27403 -10.27261 -10.27162
 Alpha  occ. eigenvalues --  -10.27011 -10.26975 -10.26828 -10.26738 -10.26712
 Alpha  occ. eigenvalues --  -10.26578 -10.26476 -10.26250 -10.26167 -10.26085
 Alpha  occ. eigenvalues --  -10.26084 -10.26046 -10.26019 -10.25991 -10.25958
 Alpha  occ. eigenvalues --  -10.25884 -10.25860 -10.25773 -10.25708 -10.25685
 Alpha  occ. eigenvalues --  -10.25595 -10.25585 -10.25361 -10.24953 -10.24706
 Alpha  occ. eigenvalues --  -10.24587 -10.24585 -10.24457 -10.24405 -10.23938
 Alpha  occ. eigenvalues --  -10.23687 -10.20434  -1.08895  -1.08242  -0.94620
 Alpha  occ. eigenvalues --   -0.93500  -0.92716  -0.91568  -0.90737  -0.89835
 Alpha  occ. eigenvalues --   -0.87886  -0.87757  -0.87121  -0.86041  -0.85050
 Alpha  occ. eigenvalues --   -0.83931  -0.82914  -0.81288  -0.80204  -0.78714
 Alpha  occ. eigenvalues --   -0.76987  -0.76686  -0.76553  -0.76301  -0.75945
 Alpha  occ. eigenvalues --   -0.75469  -0.75250  -0.75012  -0.73128  -0.70116
 Alpha  occ. eigenvalues --   -0.68723  -0.67983  -0.66065  -0.64069  -0.63634
 Alpha  occ. eigenvalues --   -0.62886  -0.62700  -0.62050  -0.60881  -0.60114
 Alpha  occ. eigenvalues --   -0.59304  -0.58797  -0.58595  -0.57262  -0.56363
 Alpha  occ. eigenvalues --   -0.55547  -0.55358  -0.54742  -0.54390  -0.53792
 Alpha  occ. eigenvalues --   -0.53638  -0.53096  -0.52734  -0.52239  -0.51502
 Alpha  occ. eigenvalues --   -0.51008  -0.50819  -0.50154  -0.49650  -0.49414
 Alpha  occ. eigenvalues --   -0.49187  -0.48818  -0.48399  -0.48283  -0.48186
 Alpha  occ. eigenvalues --   -0.47738  -0.47554  -0.47318  -0.46769  -0.46427
 Alpha  occ. eigenvalues --   -0.46100  -0.45605  -0.45272  -0.45247  -0.45022
 Alpha  occ. eigenvalues --   -0.44553  -0.43889  -0.43759  -0.43349  -0.43238
 Alpha  occ. eigenvalues --   -0.43141  -0.42612  -0.42146  -0.41924  -0.41821
 Alpha  occ. eigenvalues --   -0.41686  -0.41640  -0.41310  -0.40890  -0.40707
 Alpha  occ. eigenvalues --   -0.40294  -0.40212  -0.39849  -0.39706  -0.39329
 Alpha  occ. eigenvalues --   -0.39186  -0.38933  -0.38603  -0.38405  -0.37860
 Alpha  occ. eigenvalues --   -0.37774  -0.37309  -0.37051  -0.35871  -0.35616
 Alpha  occ. eigenvalues --   -0.34680  -0.34465  -0.33562  -0.31857  -0.31780
 Alpha  occ. eigenvalues --   -0.31449  -0.30412  -0.28470  -0.26841  -0.23435
 Alpha  occ. eigenvalues --   -0.19358
 Alpha virt. eigenvalues --   -0.05516  -0.00944   0.03261   0.05893   0.07107
 Alpha virt. eigenvalues --    0.08796   0.10975   0.11488   0.11679   0.12232
 Alpha virt. eigenvalues --    0.12338   0.12945   0.13219   0.13617   0.13993

 Mulliken charges:
               1
     1  O   -0.549357
     2  O   -0.572198
     3  C    0.001288
     4  C   -0.136346
     5  C   -0.178430
     6  C    0.135367
     7  C    0.126509
     8  C   -0.007864
     9  C   -0.326628
    10  C   -0.261017
    11  C   -0.181827
    12  C   -0.122381
    13  C    0.210816
    14  C    0.024384
    15  C   -0.066480
    16  C   -0.206423
    17  C    0.086196
    18  C   -0.309230
    19  C   -0.301225
    20  C   -0.366450
    21  C   -0.088747
    22  C   -0.120019
    23  C   -0.336360
    24  C    0.099421
    25  C   -0.125064
    26  C   -0.373825
    27  C    0.094036
    28  C   -0.139914
    29  C   -0.375368
    30  C   -0.112409
    31  C   -0.040302
    32  C   -0.078509
    33  C   -0.139826
    34  C    0.116706
    35  C   -0.125904
    36  C    0.072935
    37  C   -0.374202
    38  C   -0.124147
    39  C   -0.115948
    40  C   -0.360623
    41  C   -0.064957
    42  C   -0.096577
    43  H    0.075979
    44  H    0.109192
    45  H    0.062148
    46  H    0.078151
    47  H    0.105280
    48  H    0.099787
    49  H    0.099145
    50  H    0.117304
    51  H    0.104984
    52  H    0.092481
    53  H    0.080318
    54  H    0.078740
    55  H    0.057491
    56  H    0.072323
    57  H    0.083300
    58  H    0.086244
    59  H    0.119215
    60  H    0.102384
    61  H    0.119154
    62  H    0.100533
    63  H    0.076600
    64  H    0.110952
    65  H    0.102563
    66  H    0.121744
    67  H    0.110539
    68  H    0.107498
    69  H    0.295679
    70  H    0.066767
    71  H    0.073834
    72  H    0.109563
    73  H    0.129235
    74  H    0.052747
    75  H    0.303691
    76  H    0.081918
    77  H    0.093931
    78  H    0.135534
    79  H    0.129432
    80  H    0.082540
    81  H    0.116895
    82  H    0.126734
    83  H    0.103898
    84  H    0.085774
    85  H    0.089548
    86  H    0.093378
    87  H    0.063702
    88  H    0.081943
    89  H    0.125257
    90  H    0.113404
    91  H    0.113750
    92  H    0.061512
    93  H    0.085847
    94  H    0.114137
    95  H    0.115425
    96  H    0.123972
    97  H    0.079655
    98  H    0.087146
 Sum of Mulliken charges =  -0.00000

 Dipole moment (field-independent basis, Debye):
    X=              0.5298    Y=             -0.8152    Z=              0.7362  Tot=              1.2195
 Quadrupole moment (field-independent basis, Debye-Ang):
   XX=           -276.6728   YY=           -245.2792   ZZ=           -261.1597
   XY=              7.8950   XZ=             40.2538   YZ=             -0.1684

 Normal termination of Gaussian 16 at Tue Jul 16 03:54:06 2019.
