 Gaussian 16, Revision A.03,
 Gaussian 16:  ES64L-G16RevA.03 25-Dec-2016

 -------------------------------------
 # td=(NStates=1) CAM-B3LYP/6-31G(d,p)
 -------------------------------------

 --
 TD
 --
 Symbolic Z-matrix:
 Charge =  0 Multiplicity = 1

                         Standard orientation:
 ---------------------------------------------------------------------
 Center     Atomic      Atomic             Coordinates (Angstroms)
 Number     Number       Type             X           Y           Z
 ---------------------------------------------------------------------
      1          8           0      -14.123554   -1.868251    0.787682
      2          8           0       14.790585    0.901143    0.194737
      3          6           0      -11.693593    0.155880    1.429458
      4          6           0      -11.079598    0.401472   -0.017908
      5          6           0      -11.975706   -1.363156    1.545101
      6          6           0      -12.798673   -1.988614    0.385447
      7          6           0      -11.696528   -0.379713   -1.151219
      8          6           0       11.154355    1.026683    1.197182
      9          6           0      -10.692657    0.618130    2.457624
     10          6           0      -13.006747    0.947441    1.473136
     11          6           0       12.615056    1.507086    0.890431
     12          6           0      -12.543788   -1.447429   -0.951529
     13          6           0       13.489211    0.396854    0.499997
     14          6           0       10.681750    0.082968   -0.013844
     15          6           0       -9.555031   -0.084482   -0.009977
     16          6           0       12.972491   -0.148780   -0.824871
     17          6           0       11.579774   -0.432210   -0.889757
     18          6           0       10.111498    2.213012    1.168121
     19          6           0       11.044742    0.235357    2.551787
     20          6           0      -11.474206    0.201297   -2.626254
     21          6           0       -8.500575    0.729919   -0.330715
     22          6           0        9.227180   -0.272793    0.145899
     23          6           0       11.237617   -1.167592   -2.051975
     24          6           0       -7.203640    0.373621   -0.274090
     25          6           0        8.846642   -1.651730    0.030490
     26          6           0       -6.753042   -1.061851    0.114157
     27          6           0        7.465885   -2.066234   -0.069545
     28          6           0       -6.293142    1.465852   -0.514603
     29          6           0        7.128922   -3.590465    0.081839
     30          6           0        6.397264   -1.243325   -0.389129
     31          6           0       -4.876269    1.305617   -0.639608
     32          6           0        5.024941   -1.499789   -0.350090
     33          6           0       -3.966507    2.391778   -0.720306
     34          6           0       -2.535427    2.502714   -0.734851
     35          6           0        4.077095   -0.572917   -0.570864
     36          6           0        2.686735   -0.897410   -0.303521
     37          6           0       -2.000879    3.905880   -0.896415
     38          6           0       -1.794406    1.318779   -0.569434
     39          6           0        1.798682    0.142693   -0.451864
     40          6           0        2.148482   -2.221881    0.160382
     41          6           0       -0.396576    1.295414   -0.574109
     42          6           0        0.381366    0.166412   -0.303904
     43          1           0      -11.123609    1.408186   -0.333249
     44          1           0      -12.341795   -1.596977    2.634314
     45          1           0      -11.113401   -2.016930    1.640806
     46          1           0      -12.663519   -3.030577    0.372995
     47          1           0       -9.678120    0.001652    2.505747
     48          1           0      -10.158035    1.574900    2.404546
     49          1           0      -11.060018    0.684641    3.375472
     50          1           0      -13.722050    0.549415    0.627754
     51          1           0      -13.402869    0.904378    2.469855
     52          1           0      -12.758885    2.074806    1.088729
     53          1           0       12.552249    2.243727    0.173472
     54          1           0       12.805393    1.945843    1.850407
     55          1           0      -12.995676   -1.960517   -2.022756
     56          1           0       13.644782   -0.267817    1.351812
     57          1           0       -9.412056   -1.154431    0.229309
     58          1           0       13.637124   -1.077490   -1.070758
     59          1           0       13.424780    0.575552   -1.627781
     60          1           0        8.847555    2.189001    1.070506
     61          1           0       10.299651    2.601401    0.194720
     62          1           0       10.451179    2.890030    1.868375
     63          1           0       11.590656   -0.676711    2.608669
     64          1           0        9.998266   -0.326395    2.475666
     65          1           0       11.395035    0.828960    3.454166
     66          1           0      -10.417233    0.209399   -2.760839
     67          1           0      -11.983879    1.145866   -2.683406
     68          1           0      -11.832470   -0.605564   -3.181406
     69          1           0      -14.771572   -1.828235    0.005047
     70          1           0        8.549517    0.435547    0.615880
     71          1           0       -8.683058    1.804704   -0.637217
     72          1           0       11.573900   -2.161973   -2.081154
     73          1           0       10.277587   -1.124996   -2.418417
     74          1           0       11.671855   -0.820015   -2.899492
     75          1           0       15.207860    1.149069    1.013015
     76          1           0        9.609193   -2.298969   -0.141157
     77          1           0       -5.667036   -0.876783    0.233788
     78          1           0       -7.242160   -1.501095    1.003104
     79          1           0       -7.081751   -1.721690   -0.707079
     80          1           0       -6.623143    2.313264   -0.856350
     81          1           0        6.665059   -3.764136    0.955282
     82          1           0        6.383108   -3.960228   -0.834614
     83          1           0        8.100222   -4.104714    0.034212
     84          1           0        6.523252   -0.206640   -0.648874
     85          1           0       -4.539547    0.313943   -0.629525
     86          1           0        4.635360   -2.517015    0.066566
     87          1           0       -4.564413    3.384626   -0.735419
     88          1           0        4.407339    0.351390   -1.079336
     89          1           0       -1.490391    3.755588   -1.822227
     90          1           0       -1.344318    4.130177   -0.111604
     91          1           0       -2.779202    4.668220   -0.856484
     92          1           0       -2.154801    0.514950   -0.173738
     93          1           0        2.321086    1.152021   -0.548081
     94          1           0        2.437013   -2.502508    0.954354
     95          1           0        1.097966   -2.168132   -0.156906
     96          1           0        2.619657   -2.865283   -0.402803
     97          1           0        0.133504    2.149378   -0.717541
     98          1           0        0.012438   -0.844892   -0.403729
 ---------------------------------------------------------------------

 SCF Done:  E(RCAM-B3LYP) =  -1706.93191915     A.U. after   15 cycles

 Excitation energies and oscillator strengths:

 Excited State   1:      Singlet-A      2.0538 eV  603.69 nm  f=3.2312  <S**2>=0.000
     155 ->158         0.16367
     156 ->157         0.68795
 This state for optimization and/or second-order correction.
 Total Energy, E(TD-HF/TD-DFT) =  -1706.85644420
 Copying the excited state density for this state as the 1-particle RhoCI density.

 The electronic state is 1-A.
 Alpha  occ. eigenvalues --  -19.20425 -19.20177 -10.29920 -10.29871 -10.27980
 Alpha  occ. eigenvalues --  -10.27921 -10.27555 -10.27368 -10.27338 -10.27072
 Alpha  occ. eigenvalues --  -10.26939 -10.26853 -10.26751 -10.26673 -10.26557
 Alpha  occ. eigenvalues --  -10.26521 -10.26518 -10.26252 -10.26097 -10.25915
 Alpha  occ. eigenvalues --  -10.25892 -10.25844 -10.25810 -10.25789 -10.25664
 Alpha  occ. eigenvalues --  -10.25590 -10.25555 -10.25528 -10.25465 -10.25460
 Alpha  occ. eigenvalues --  -10.25457 -10.25236 -10.25234 -10.25164 -10.25160
 Alpha  occ. eigenvalues --  -10.25024 -10.24930 -10.24595 -10.23669 -10.23643
 Alpha  occ. eigenvalues --  -10.22473 -10.21962  -1.09486  -1.08873  -0.93518
 Alpha  occ. eigenvalues --   -0.92828  -0.92180  -0.91500  -0.90680  -0.89374
 Alpha  occ. eigenvalues --   -0.87756  -0.86772  -0.86208  -0.85259  -0.84299
 Alpha  occ. eigenvalues --   -0.83181  -0.82227  -0.80232  -0.80045  -0.79694
 Alpha  occ. eigenvalues --   -0.77300  -0.76963  -0.76720  -0.76161  -0.75856
 Alpha  occ. eigenvalues --   -0.75471  -0.74909  -0.74707  -0.72881  -0.70358
 Alpha  occ. eigenvalues --   -0.69407  -0.67895  -0.66301  -0.65313  -0.63732
 Alpha  occ. eigenvalues --   -0.63315  -0.62861  -0.62324  -0.61458  -0.60183
 Alpha  occ. eigenvalues --   -0.59719  -0.59333  -0.58386  -0.58109  -0.56737
 Alpha  occ. eigenvalues --   -0.56042  -0.55199  -0.54657  -0.53994  -0.53483
 Alpha  occ. eigenvalues --   -0.53268  -0.53035  -0.52365  -0.51954  -0.51754
 Alpha  occ. eigenvalues --   -0.51064  -0.50642  -0.50455  -0.49881  -0.49706
 Alpha  occ. eigenvalues --   -0.49297  -0.49207  -0.48071  -0.48019  -0.47724
 Alpha  occ. eigenvalues --   -0.47603  -0.47380  -0.47282  -0.46910  -0.46825
 Alpha  occ. eigenvalues --   -0.46658  -0.46392  -0.45891  -0.45751  -0.45190
 Alpha  occ. eigenvalues --   -0.44995  -0.44810  -0.44384  -0.43923  -0.43422
 Alpha  occ. eigenvalues --   -0.43080  -0.42870  -0.42308  -0.42172  -0.41951
 Alpha  occ. eigenvalues --   -0.41753  -0.41299  -0.41268  -0.40774  -0.40269
 Alpha  occ. eigenvalues --   -0.39904  -0.39788  -0.39560  -0.39406  -0.38950
 Alpha  occ. eigenvalues --   -0.38838  -0.38690  -0.38446  -0.38135  -0.37899
 Alpha  occ. eigenvalues --   -0.37440  -0.36967  -0.36901  -0.36281  -0.36071
 Alpha  occ. eigenvalues --   -0.35633  -0.34573  -0.32994  -0.32178  -0.31361
 Alpha  occ. eigenvalues --   -0.31154  -0.29071  -0.28621  -0.26122  -0.22751
 Alpha  occ. eigenvalues --   -0.18869
 Alpha virt. eigenvalues --   -0.05806  -0.01643   0.02436   0.05648   0.06885
 Alpha virt. eigenvalues --    0.09287   0.11371   0.11830   0.12124   0.12856
 Alpha virt. eigenvalues --    0.13041   0.13622   0.13752   0.13883   0.14446

 Mulliken charges:
               1
     1  O   -0.553502
     2  O   -0.562637
     3  C    0.044808
     4  C   -0.121352
     5  C   -0.180155
     6  C    0.168649
     7  C    0.070855
     8  C   -0.032031
     9  C   -0.309690
    10  C   -0.274477
    11  C   -0.171498
    12  C   -0.160704
    13  C    0.164403
    14  C    0.026137
    15  C   -0.126408
    16  C   -0.250356
    17  C    0.099642
    18  C   -0.306761
    19  C   -0.311972
    20  C   -0.343061
    21  C   -0.080261
    22  C   -0.112286
    23  C   -0.380135
    24  C    0.105910
    25  C   -0.109676
    26  C   -0.359799
    27  C    0.060922
    28  C   -0.118480
    29  C   -0.357180
    30  C   -0.112494
    31  C   -0.076721
    32  C   -0.072438
    33  C   -0.140091
    34  C    0.073937
    35  C   -0.104310
    36  C    0.059151
    37  C   -0.363789
    38  C   -0.089117
    39  C   -0.128911
    40  C   -0.319668
    41  C   -0.079089
    42  C   -0.106704
    43  H    0.088225
    44  H    0.095642
    45  H    0.090025
    46  H    0.085638
    47  H    0.085540
    48  H    0.104238
    49  H    0.104447
    50  H    0.105184
    51  H    0.106865
    52  H    0.063683
    53  H    0.107771
    54  H    0.079235
    55  H    0.061435
    56  H    0.084058
    57  H    0.093199
    58  H    0.098075
    59  H    0.123852
    60  H    0.088334
    61  H    0.114729
    62  H    0.102808
    63  H    0.105876
    64  H    0.101573
    65  H    0.093806
    66  H    0.126942
    67  H    0.125355
    68  H    0.113793
    69  H    0.299896
    70  H    0.098764
    71  H    0.077746
    72  H    0.114283
    73  H    0.121927
    74  H    0.115266
    75  H    0.297921
    76  H    0.089811
    77  H    0.110570
    78  H    0.122990
    79  H    0.127654
    80  H    0.075620
    81  H    0.137025
    82  H    0.093369
    83  H    0.103595
    84  H    0.068977
    85  H    0.081881
    86  H    0.060833
    87  H    0.059971
    88  H    0.093917
    89  H    0.139257
    90  H    0.134140
    91  H    0.118358
    92  H    0.077546
    93  H    0.066413
    94  H    0.124541
    95  H    0.106126
    96  H    0.121631
    97  H    0.073346
    98  H    0.077636
 Sum of Mulliken charges =  -0.00000

 Dipole moment (field-independent basis, Debye):
    X=              0.0639    Y=             -0.0259    Z=             -0.2714  Tot=              0.2800
 Quadrupole moment (field-independent basis, Debye-Ang):
   XX=           -263.5234   YY=           -245.6879   ZZ=           -260.2907
   XY=             -3.6556   XZ=             36.6457   YZ=              1.2870

 Normal termination of Gaussian 16 at Sat Jul 13 15:01:07 2019.
