 Gaussian 16, Revision A.03,
 Gaussian 16:  ES64L-G16RevA.03 25-Dec-2016

 -------------------------------------
 # td=(NStates=1) CAM-B3LYP/6-31G(d,p)
 -------------------------------------

 --
 TD
 --
 Symbolic Z-matrix:
 Charge =  0 Multiplicity = 1

                         Standard orientation:
 ---------------------------------------------------------------------
 Center     Atomic      Atomic             Coordinates (Angstroms)
 Number     Number       Type             X           Y           Z
 ---------------------------------------------------------------------
      1          8           0      -14.245321   -1.871630    0.431578
      2          8           0       14.863898    0.888825   -0.049687
      3          6           0      -11.844599    0.042033    1.315226
      4          6           0      -10.973959    0.334722   -0.072313
      5          6           0      -12.001383   -1.482341    1.422594
      6          6           0      -12.786207   -1.995738    0.235356
      7          6           0      -11.662222   -0.294494   -1.211310
      8          6           0       11.210235    1.053503    1.028067
      9          6           0      -11.009112    0.697707    2.372907
     10          6           0      -13.071569    0.896507    1.119338
     11          6           0       12.601363    1.522777    0.683080
     12          6           0      -12.415693   -1.405940   -1.166539
     13          6           0       13.588037    0.438101    0.248391
     14          6           0       10.750436   -0.016968   -0.021733
     15          6           0       -9.509104   -0.152619   -0.054308
     16          6           0       12.997083   -0.231229   -1.017568
     17          6           0       11.539931   -0.459085   -0.984912
     18          6           0       10.301335    2.271498    1.013120
     19          6           0       11.201743    0.388859    2.457711
     20          6           0      -11.397946    0.231954   -2.597022
     21          6           0       -8.522694    0.747361   -0.243009
     22          6           0        9.365389   -0.372917    0.080079
     23          6           0       11.116103   -1.398531   -2.205920
     24          6           0       -7.091742    0.380019   -0.210524
     25          6           0        8.833749   -1.651070   -0.268832
     26          6           0       -6.805883   -1.037173    0.215611
     27          6           0        7.491656   -2.019905   -0.005995
     28          6           0       -6.193575    1.431731   -0.421942
     29          6           0        7.223061   -3.572556    0.291975
     30          6           0        6.430350   -1.270959   -0.080155
     31          6           0       -4.889553    1.349383   -0.316381
     32          6           0        5.047912   -1.505201    0.100645
     33          6           0       -4.074157    2.452531   -0.623849
     34          6           0       -2.633858    2.543806   -0.592020
     35          6           0        3.980816   -0.684747   -0.104848
     36          6           0        2.542510   -0.916145   -0.003872
     37          6           0       -1.976687    3.965097   -0.903697
     38          6           0       -1.732451    1.389017   -0.419180
     39          6           0        1.678350    0.155494   -0.117969
     40          6           0        2.142547   -2.351309    0.363327
     41          6           0       -0.422862    1.382872   -0.410306
     42          6           0        0.338785    0.185174   -0.263260
     43          1           0      -11.056975    1.425780    0.030247
     44          1           0      -12.486614   -1.509426    2.497845
     45          1           0      -11.059892   -2.002899    1.627181
     46          1           0      -12.786799   -3.107128    0.294642
     47          1           0       -9.925651    0.475137    2.176451
     48          1           0      -10.971074    1.881018    2.338093
     49          1           0      -11.453717    0.541214    3.373970
     50          1           0      -13.617331    0.844909    0.217225
     51          1           0      -13.625184    0.591487    2.034777
     52          1           0      -12.892730    2.012389    1.354580
     53          1           0       12.667366    2.137887   -0.240314
     54          1           0       13.007628    2.061146    1.483598
     55          1           0      -12.883089   -1.828059   -2.033275
     56          1           0       13.729110   -0.342778    1.047432
     57          1           0       -9.336392   -1.252431   -0.023689
     58          1           0       13.853435   -0.904991   -1.251205
     59          1           0       13.212363    0.573651   -1.830378
     60          1           0        9.173417    2.259083    1.638339
     61          1           0       10.094494    2.538865   -0.103536
     62          1           0       10.818202    3.185670    1.383513
     63          1           0       11.928420   -0.315703    2.544508
     64          1           0       10.142207    0.219163    2.756060
     65          1           0       11.490171    1.185451    3.299450
     66          1           0      -10.281633    0.129263   -3.002068
     67          1           0      -11.562068    1.264812   -2.641327
     68          1           0      -11.960588   -0.396409   -3.362900
     69          1           0      -14.764477   -2.212330   -0.254513
     70          1           0        8.447448    0.481866    0.068765
     71          1           0       -8.841939    1.742662   -0.502794
     72          1           0       11.368334   -2.532179   -1.981579
     73          1           0       10.125596   -1.454586   -2.479076
     74          1           0       11.576420   -1.115349   -3.138532
     75          1           0       14.955081    1.485230    0.709561
     76          1           0        9.524651   -2.374137   -0.303185
     77          1           0       -5.662005   -1.365200    0.186901
     78          1           0       -7.159129   -1.364062    1.288115
     79          1           0       -7.104274   -1.845626   -0.647948
     80          1           0       -6.640642    2.385039   -0.697984
     81          1           0        6.368647   -3.494921    1.247047
     82          1           0        6.801872   -3.978651   -0.812527
     83          1           0        8.170442   -4.073307    0.374164
     84          1           0        6.604341   -0.143405   -0.367518
     85          1           0       -4.229071    0.488966   -0.225686
     86          1           0        4.818517   -2.427018    0.605062
     87          1           0       -4.498709    3.378097   -0.781403
     88          1           0        4.162554    0.530285   -0.417240
     89          1           0       -1.407500    4.095236   -1.746506
     90          1           0       -1.241530    4.232056   -0.090365
     91          1           0       -2.895962    4.611426   -0.782477
     92          1           0       -2.261759    0.451366   -0.122383
     93          1           0        2.225722    1.064456   -0.352052
     94          1           0        2.912078   -2.847483    1.192785
     95          1           0        1.055214   -2.258343    0.652862
     96          1           0        2.269849   -3.077592   -0.529920
     97          1           0        0.087733    2.283519   -0.457452
     98          1           0       -0.129981   -0.717969   -0.078254
 ---------------------------------------------------------------------

 SCF Done:  E(RCAM-B3LYP) =  -1706.94716021     A.U. after   16 cycles

 Excitation energies and oscillator strengths:

 Excited State   1:      Singlet-A      1.8178 eV  682.07 nm  f=2.9812  <S**2>=0.000
     155 ->158         0.11861
     156 ->157         0.70722
     156 <-157        -0.13700
 This state for optimization and/or second-order correction.
 Total Energy, E(TD-HF/TD-DFT) =  -1706.88035842
 Copying the excited state density for this state as the 1-particle RhoCI density.

 The electronic state is 1-A.
 Alpha  occ. eigenvalues --  -19.22034 -19.18998 -10.31349 -10.30238 -10.28831
 Alpha  occ. eigenvalues --  -10.28814 -10.28627 -10.28240 -10.28233 -10.27950
 Alpha  occ. eigenvalues --  -10.27787 -10.27716 -10.27701 -10.27675 -10.27335
 Alpha  occ. eigenvalues --  -10.26573 -10.26497 -10.26457 -10.26399 -10.26336
 Alpha  occ. eigenvalues --  -10.26208 -10.26205 -10.26171 -10.26129 -10.26126
 Alpha  occ. eigenvalues --  -10.25988 -10.25978 -10.25947 -10.25914 -10.25822
 Alpha  occ. eigenvalues --  -10.25762 -10.25706 -10.25550 -10.25538 -10.25523
 Alpha  occ. eigenvalues --  -10.25498 -10.25340 -10.25211 -10.25195 -10.24902
 Alpha  occ. eigenvalues --  -10.24642 -10.23442  -1.11920  -1.07295  -0.93979
 Alpha  occ. eigenvalues --   -0.93384  -0.92314  -0.91759  -0.90922  -0.89389
 Alpha  occ. eigenvalues --   -0.87600  -0.87049  -0.86885  -0.85530  -0.84418
 Alpha  occ. eigenvalues --   -0.82975  -0.82079  -0.80258  -0.79380  -0.78281
 Alpha  occ. eigenvalues --   -0.76376  -0.76272  -0.76025  -0.75402  -0.75078
 Alpha  occ. eigenvalues --   -0.74909  -0.74618  -0.74395  -0.72774  -0.70536
 Alpha  occ. eigenvalues --   -0.69128  -0.68051  -0.66979  -0.64630  -0.64315
 Alpha  occ. eigenvalues --   -0.63448  -0.63196  -0.61655  -0.61345  -0.60095
 Alpha  occ. eigenvalues --   -0.58413  -0.58369  -0.57988  -0.57449  -0.56553
 Alpha  occ. eigenvalues --   -0.56123  -0.55371  -0.54783  -0.54588  -0.54093
 Alpha  occ. eigenvalues --   -0.53674  -0.53274  -0.52540  -0.51734  -0.51213
 Alpha  occ. eigenvalues --   -0.50560  -0.49880  -0.49618  -0.49048  -0.48629
 Alpha  occ. eigenvalues --   -0.48564  -0.48024  -0.47926  -0.47568  -0.47507
 Alpha  occ. eigenvalues --   -0.47334  -0.46928  -0.46439  -0.46339  -0.46086
 Alpha  occ. eigenvalues --   -0.45929  -0.45687  -0.45266  -0.45006  -0.44669
 Alpha  occ. eigenvalues --   -0.44311  -0.44168  -0.43952  -0.43677  -0.43434
 Alpha  occ. eigenvalues --   -0.43103  -0.42958  -0.42697  -0.42490  -0.42455
 Alpha  occ. eigenvalues --   -0.41921  -0.41776  -0.41471  -0.41442  -0.41069
 Alpha  occ. eigenvalues --   -0.40960  -0.40129  -0.39883  -0.39761  -0.39325
 Alpha  occ. eigenvalues --   -0.39112  -0.38542  -0.38349  -0.38060  -0.37814
 Alpha  occ. eigenvalues --   -0.37275  -0.37032  -0.36157  -0.35723  -0.35439
 Alpha  occ. eigenvalues --   -0.34662  -0.34032  -0.32920  -0.32464  -0.31678
 Alpha  occ. eigenvalues --   -0.30564  -0.29629  -0.29211  -0.26934  -0.23906
 Alpha  occ. eigenvalues --   -0.18399
 Alpha virt. eigenvalues --   -0.07311  -0.01185   0.02226   0.05594   0.06904
 Alpha virt. eigenvalues --    0.09095   0.10361   0.10790   0.12196   0.12314
 Alpha virt. eigenvalues --    0.12386   0.12913   0.12953   0.13597   0.13858

 Mulliken charges:
               1
     1  O   -0.576578
     2  O   -0.535281
     3  C    0.014767
     4  C   -0.155945
     5  C   -0.173328
     6  C    0.149335
     7  C    0.136443
     8  C    0.014725
     9  C   -0.315412
    10  C   -0.282965
    11  C   -0.213255
    12  C   -0.132972
    13  C    0.144556
    14  C    0.050252
    15  C   -0.090498
    16  C   -0.247513
    17  C    0.073510
    18  C   -0.297152
    19  C   -0.297475
    20  C   -0.353350
    21  C   -0.089907
    22  C   -0.110357
    23  C   -0.354645
    24  C    0.109957
    25  C   -0.103011
    26  C   -0.378655
    27  C    0.067098
    28  C   -0.109145
    29  C   -0.334913
    30  C   -0.086377
    31  C   -0.038054
    32  C   -0.092469
    33  C   -0.122667
    34  C    0.041433
    35  C   -0.109287
    36  C    0.115742
    37  C   -0.367809
    38  C   -0.104139
    39  C   -0.113011
    40  C   -0.359416
    41  C   -0.057018
    42  C   -0.084756
    43  H    0.090007
    44  H    0.097337
    45  H    0.110614
    46  H    0.078942
    47  H    0.109108
    48  H    0.081121
    49  H    0.093820
    50  H    0.121551
    51  H    0.100019
    52  H    0.081302
    53  H    0.102917
    54  H    0.080498
    55  H    0.083799
    56  H    0.065620
    57  H    0.098166
    58  H    0.126437
    59  H    0.103684
    60  H    0.075040
    61  H    0.099429
    62  H    0.105530
    63  H    0.117208
    64  H    0.119128
    65  H    0.069929
    66  H    0.098602
    67  H    0.115964
    68  H    0.097840
    69  H    0.296051
    70  H    0.083243
    71  H    0.085480
    72  H    0.097692
    73  H    0.128267
    74  H    0.109575
    75  H    0.307415
    76  H    0.082503
    77  H    0.095793
    78  H    0.126295
    79  H    0.107205
    80  H    0.090728
    81  H    0.103604
    82  H    0.101005
    83  H    0.115799
    84  H    0.058148
    85  H    0.088509
    86  H    0.063371
    87  H    0.068161
    88  H    0.050436
    89  H    0.139414
    90  H    0.114003
    91  H    0.103903
    92  H    0.072745
    93  H    0.074417
    94  H    0.101868
    95  H    0.106036
    96  H    0.121798
    97  H    0.079721
    98  H    0.072746
 Sum of Mulliken charges =  -0.00000

 Dipole moment (field-independent basis, Debye):
    X=              0.0492    Y=             -0.0188    Z=             -0.2470  Tot=              0.2526
 Quadrupole moment (field-independent basis, Debye-Ang):
   XX=           -283.7761   YY=           -243.5615   ZZ=           -262.5669
   XY=             10.9487   XZ=             32.9189   YZ=              2.8213

 Normal termination of Gaussian 16 at Sat Jul 13 15:17:03 2019.
