 Gaussian 16, Revision A.03,
 Gaussian 16:  ES64L-G16RevA.03 25-Dec-2016

 -------------------------------------
 # td=(NStates=1) CAM-B3LYP/6-31G(d,p)
 -------------------------------------

 --
 TD
 --
 Symbolic Z-matrix:
 Charge =  0 Multiplicity = 1

                         Standard orientation:
 ---------------------------------------------------------------------
 Center     Atomic      Atomic             Coordinates (Angstroms)
 Number     Number       Type             X           Y           Z
 ---------------------------------------------------------------------
      1          8           0      -14.009204   -2.226639    0.392574
      2          8           0       14.862446    0.528171    0.180546
      3          6           0      -11.698835   -0.246301    1.360109
      4          6           0      -10.977984    0.281769    0.053814
      5          6           0      -11.855700   -1.744245    1.276880
      6          6           0      -12.682731   -2.302064    0.100709
      7          6           0      -11.550127   -0.381004   -1.169204
      8          6           0       11.123156    0.786167    1.108168
      9          6           0      -10.951186    0.209586    2.614016
     10          6           0      -13.136935    0.432007    1.358682
     11          6           0       12.627766    1.289560    0.914228
     12          6           0      -12.340706   -1.455096   -1.150064
     13          6           0       13.487796    0.250389    0.388921
     14          6           0       10.642369   -0.067311   -0.011532
     15          6           0       -9.407476    0.017060    0.066570
     16          6           0       12.900598   -0.305414   -1.003583
     17          6           0       11.461623   -0.552855   -0.937169
     18          6           0       10.335396    2.131803    1.181628
     19          6           0       11.045486    0.037326    2.485675
     20          6           0      -11.203075    0.230139   -2.549690
     21          6           0       -8.499587    0.936638   -0.021353
     22          6           0        9.272841   -0.451458    0.156028
     23          6           0       11.051665   -1.343130   -2.184613
     24          6           0       -7.103445    0.638728   -0.059517
     25          6           0        8.702242   -1.664147   -0.075672
     26          6           0       -6.691426   -0.824333   -0.034003
     27          6           0        7.279931   -2.055395   -0.143032
     28          6           0       -6.182320    1.693402   -0.330864
     29          6           0        6.996363   -3.506351   -0.037158
     30          6           0        6.352064   -1.183010   -0.275936
     31          6           0       -4.767847    1.632544   -0.414257
     32          6           0        4.973535   -1.322698   -0.215857
     33          6           0       -4.095152    2.760547   -0.648263
     34          6           0       -2.595659    2.874580   -0.528725
     35          6           0        4.008081   -0.309361   -0.287474
     36          6           0        2.599754   -0.611508   -0.307994
     37          6           0       -1.968036    4.239717   -0.727916
     38          6           0       -1.868579    1.693379   -0.405302
     39          6           0        1.786039    0.558976   -0.422189
     40          6           0        2.140113   -1.998630   -0.030264
     41          6           0       -0.477452    1.590640   -0.489563
     42          6           0        0.366391    0.493532   -0.329574
     43          1           0      -11.084708    1.360763   -0.062590
     44          1           0      -12.358108   -2.063505    2.122105
     45          1           0      -10.942827   -2.430579    1.322296
     46          1           0      -12.348707   -3.308411   -0.031459
     47          1           0      -10.028064   -0.061706    2.637926
     48          1           0      -10.948448    1.290729    2.692838
     49          1           0      -11.603447   -0.079880    3.563793
     50          1           0      -13.667086    0.138386    0.528349
     51          1           0      -13.581244    0.324006    2.366894
     52          1           0      -13.104424    1.554581    1.309080
     53          1           0       12.755417    2.142021    0.051287
     54          1           0       13.061597    1.660489    1.984075
     55          1           0      -12.794777   -1.886531   -2.002370
     56          1           0       13.292903   -0.886767    0.774933
     57          1           0       -9.271504   -1.005527    0.054161
     58          1           0       13.486693   -1.088107   -1.461779
     59          1           0       13.228525    0.339329   -1.763271
     60          1           0        9.244236    2.071897    1.566569
     61          1           0       10.265288    2.815164    0.179953
     62          1           0       10.749741    2.817484    1.953684
     63          1           0       11.851139   -0.748071    2.654586
     64          1           0       10.076688   -0.482699    2.729963
     65          1           0       11.273914    0.654787    3.454154
     66          1           0      -10.175964    0.516873   -2.622577
     67          1           0      -11.580038    1.124060   -2.666789
     68          1           0      -11.421856   -0.369021   -3.473762
     69          1           0      -14.571845   -2.659006   -0.277745
     70          1           0        8.543234    0.217664    0.668946
     71          1           0       -8.885139    1.990344   -0.114251
     72          1           0       11.724019   -2.267766   -2.133886
     73          1           0       10.047142   -1.539993   -2.300513
     74          1           0       11.298752   -0.771150   -3.112078
     75          1           0       15.179497    0.949579    1.040512
     76          1           0        9.384342   -2.531543   -0.222961
     77          1           0       -5.541036   -0.827253   -0.069751
     78          1           0       -6.908195   -1.428436    0.902952
     79          1           0       -6.672202   -1.486396   -1.145382
     80          1           0       -6.619376    2.618975   -0.441842
     81          1           0        6.376066   -3.775275    1.000935
     82          1           0        6.458953   -4.016886   -0.966557
     83          1           0        7.990308   -4.232757   -0.161527
     84          1           0        6.665030   -0.071494   -0.334037
     85          1           0       -4.289527    0.782690   -0.342205
     86          1           0        4.633791   -2.348706    0.284110
     87          1           0       -4.737519    3.619136   -0.752301
     88          1           0        4.255018    0.838009   -0.474527
     89          1           0       -1.515291    4.355476   -1.793408
     90          1           0       -1.274467    4.467550    0.004377
     91          1           0       -2.715407    5.134784   -0.794904
     92          1           0       -2.443471    0.747425   -0.053642
     93          1           0        2.250106    1.529660   -0.679454
     94          1           0        1.971598   -2.207183    1.315263
     95          1           0        0.947948   -2.082998   -0.264614
     96          1           0        2.742907   -2.842515   -0.345215
     97          1           0        0.135487    2.547992   -0.506062
     98          1           0       -0.225310   -0.247018   -0.025200
 ---------------------------------------------------------------------

 SCF Done:  E(RCAM-B3LYP) =  -1706.96275170     A.U. after   15 cycles

 Excitation energies and oscillator strengths:

 Excited State   1:      Singlet-A      2.2410 eV  553.25 nm  f=2.8841  <S**2>=0.000
     155 ->158         0.15181
     156 ->157         0.68939
 This state for optimization and/or second-order correction.
 Total Energy, E(TD-HF/TD-DFT) =  -1706.88039579
 Copying the excited state density for this state as the 1-particle RhoCI density.

 The electronic state is 1-A.
 Alpha  occ. eigenvalues --  -19.22264 -19.21172 -10.30810 -10.29763 -10.29102
 Alpha  occ. eigenvalues --  -10.28871 -10.28845 -10.28468 -10.28210 -10.28141
 Alpha  occ. eigenvalues --  -10.27938 -10.27792 -10.27637 -10.27464 -10.27036
 Alpha  occ. eigenvalues --  -10.26789 -10.26647 -10.26608 -10.26607 -10.26500
 Alpha  occ. eigenvalues --  -10.26421 -10.26394 -10.26370 -10.26227 -10.26129
 Alpha  occ. eigenvalues --  -10.26006 -10.25982 -10.25723 -10.25519 -10.25502
 Alpha  occ. eigenvalues --  -10.25430 -10.25374 -10.24932 -10.24727 -10.24717
 Alpha  occ. eigenvalues --  -10.24639 -10.24121 -10.23855 -10.23831 -10.23483
 Alpha  occ. eigenvalues --  -10.23126 -10.22737  -1.11043  -1.09134  -0.94035
 Alpha  occ. eigenvalues --   -0.92754  -0.92048  -0.91749  -0.90593  -0.89635
 Alpha  occ. eigenvalues --   -0.87414  -0.86683  -0.85892  -0.85549  -0.84629
 Alpha  occ. eigenvalues --   -0.82593  -0.81675  -0.80199  -0.79436  -0.77965
 Alpha  occ. eigenvalues --   -0.76445  -0.75969  -0.75667  -0.75460  -0.75234
 Alpha  occ. eigenvalues --   -0.75062  -0.74852  -0.74725  -0.73030  -0.70021
 Alpha  occ. eigenvalues --   -0.68686  -0.67875  -0.66227  -0.65154  -0.64321
 Alpha  occ. eigenvalues --   -0.63941  -0.62846  -0.62833  -0.60935  -0.60253
 Alpha  occ. eigenvalues --   -0.59905  -0.58198  -0.57890  -0.57241  -0.56069
 Alpha  occ. eigenvalues --   -0.55654  -0.55036  -0.54734  -0.54324  -0.53893
 Alpha  occ. eigenvalues --   -0.53630  -0.52702  -0.52241  -0.52000  -0.50763
 Alpha  occ. eigenvalues --   -0.50462  -0.49895  -0.49725  -0.49447  -0.48844
 Alpha  occ. eigenvalues --   -0.48390  -0.47966  -0.47591  -0.47359  -0.47133
 Alpha  occ. eigenvalues --   -0.47090  -0.46871  -0.46122  -0.46109  -0.45645
 Alpha  occ. eigenvalues --   -0.45384  -0.45275  -0.44926  -0.44789  -0.44539
 Alpha  occ. eigenvalues --   -0.44231  -0.44214  -0.43822  -0.43471  -0.43187
 Alpha  occ. eigenvalues --   -0.43007  -0.42918  -0.42396  -0.42273  -0.41507
 Alpha  occ. eigenvalues --   -0.41450  -0.41051  -0.40807  -0.40578  -0.40419
 Alpha  occ. eigenvalues --   -0.40319  -0.40168  -0.40007  -0.39882  -0.39557
 Alpha  occ. eigenvalues --   -0.39349  -0.38661  -0.38486  -0.38286  -0.37785
 Alpha  occ. eigenvalues --   -0.37224  -0.37030  -0.36362  -0.36002  -0.35297
 Alpha  occ. eigenvalues --   -0.34907  -0.34570  -0.34070  -0.32352  -0.31750
 Alpha  occ. eigenvalues --   -0.30346  -0.29444  -0.28820  -0.26364  -0.23838
 Alpha  occ. eigenvalues --   -0.19794
 Alpha virt. eigenvalues --   -0.05680  -0.00888   0.02451   0.05856   0.07363
 Alpha virt. eigenvalues --    0.08345   0.11125   0.11445   0.11660   0.11881
 Alpha virt. eigenvalues --    0.12237   0.13120   0.13243   0.13410   0.14301

 Mulliken charges:
               1
     1  O   -0.523863
     2  O   -0.557445
     3  C    0.016808
     4  C   -0.148992
     5  C   -0.176921
     6  C    0.132106
     7  C    0.125138
     8  C   -0.011682
     9  C   -0.292049
    10  C   -0.293804
    11  C   -0.174931
    12  C   -0.143330
    13  C    0.172941
    14  C    0.112467
    15  C   -0.071323
    16  C   -0.254290
    17  C    0.050489
    18  C   -0.300869
    19  C   -0.316791
    20  C   -0.365595
    21  C   -0.085255
    22  C   -0.122382
    23  C   -0.351551
    24  C    0.097860
    25  C   -0.120547
    26  C   -0.369437
    27  C    0.138766
    28  C   -0.132786
    29  C   -0.377313
    30  C   -0.107358
    31  C    0.006078
    32  C   -0.121009
    33  C   -0.133283
    34  C    0.085107
    35  C   -0.105392
    36  C    0.144620
    37  C   -0.373120
    38  C   -0.121937
    39  C   -0.137876
    40  C   -0.350883
    41  C   -0.100561
    42  C   -0.059601
    43  H    0.081412
    44  H    0.109256
    45  H    0.080014
    46  H    0.076822
    47  H    0.110408
    48  H    0.097712
    49  H    0.077599
    50  H    0.130314
    51  H    0.092681
    52  H    0.075377
    53  H    0.092886
    54  H    0.068594
    55  H    0.064068
    56  H    0.062372
    57  H    0.091886
    58  H    0.109991
    59  H    0.113575
    60  H    0.089618
    61  H    0.091314
    62  H    0.102491
    63  H    0.107126
    64  H    0.114873
    65  H    0.085742
    66  H    0.113918
    67  H    0.122283
    68  H    0.103692
    69  H    0.306006
    70  H    0.088451
    71  H    0.078233
    72  H    0.103972
    73  H    0.123806
    74  H    0.108233
    75  H    0.307881
    76  H    0.077427
    77  H    0.095123
    78  H    0.124074
    79  H    0.096712
    80  H    0.073912
    81  H    0.103763
    82  H    0.110742
    83  H    0.088350
    84  H    0.071582
    85  H    0.067800
    86  H    0.078992
    87  H    0.082480
    88  H    0.082673
    89  H    0.121136
    90  H    0.137040
    91  H    0.103433
    92  H    0.084242
    93  H    0.095246
    94  H    0.063676
    95  H    0.103792
    96  H    0.137209
    97  H    0.069040
    98  H    0.068740
 Sum of Mulliken charges =  -0.00000

 Dipole moment (field-independent basis, Debye):
    X=             -1.0428    Y=              0.0246    Z=             -0.0115  Tot=              1.0432
 Quadrupole moment (field-independent basis, Debye-Ang):
   XX=           -275.1693   YY=           -240.0894   ZZ=           -261.4047
   XY=             13.8385   XZ=             32.9086   YZ=              2.6350

 Normal termination of Gaussian 16 at Sun Jul 14 01:54:55 2019.
