 Gaussian 16, Revision A.03,
 Gaussian 16:  ES64L-G16RevA.03 25-Dec-2016

 -------------------------------------
 # td=(NStates=1) CAM-B3LYP/6-31G(d,p)
 -------------------------------------

 --
 TD
 --
 Symbolic Z-matrix:
 Charge =  0 Multiplicity = 1

                         Standard orientation:
 ---------------------------------------------------------------------
 Center     Atomic      Atomic             Coordinates (Angstroms)
 Number     Number       Type             X           Y           Z
 ---------------------------------------------------------------------
      1          8           0      -14.112438   -2.119658    0.517018
      2          8           0       14.841564    0.986572    0.143818
      3          6           0      -11.773532    0.046330    1.304824
      4          6           0      -10.986089    0.428601   -0.034081
      5          6           0      -11.932680   -1.440359    1.454570
      6          6           0      -12.676902   -2.116088    0.241275
      7          6           0      -11.644428   -0.344125   -1.179857
      8          6           0       11.184616    0.816188    1.193461
      9          6           0      -11.020420    0.606586    2.550000
     10          6           0      -13.190213    0.779880    1.243210
     11          6           0       12.569068    1.527537    0.810395
     12          6           0      -12.326146   -1.455609   -0.999940
     13          6           0       13.537451    0.473693    0.293210
     14          6           0       10.720996    0.034918    0.002868
     15          6           0       -9.575018   -0.076814   -0.012791
     16          6           0       13.044472   -0.019129   -0.996470
     17          6           0       11.609788   -0.409348   -0.998057
     18          6           0       10.324866    2.122454    1.387197
     19          6           0       11.228273    0.101877    2.461936
     20          6           0      -11.659741    0.403349   -2.454318
     21          6           0       -8.560353    0.786462   -0.178332
     22          6           0        9.384356   -0.417049    0.025279
     23          6           0       11.177554   -1.233581   -2.102450
     24          6           0       -7.144699    0.432634   -0.257740
     25          6           0        8.868498   -1.673686   -0.190244
     26          6           0       -6.629557   -0.978232   -0.111744
     27          6           0        7.384892   -2.050716   -0.196740
     28          6           0       -6.197600    1.461156   -0.358061
     29          6           0        7.169710   -3.601300   -0.015473
     30          6           0        6.359289   -1.227067   -0.204348
     31          6           0       -4.756552    1.442925   -0.397731
     32          6           0        4.944160   -1.542910   -0.026841
     33          6           0       -4.048589    2.492687   -0.677640
     34          6           0       -2.656785    2.616560   -0.732846
     35          6           0        3.980980   -0.664832   -0.198726
     36          6           0        2.605087   -0.857985   -0.140399
     37          6           0       -1.998514    3.999600   -0.836886
     38          6           0       -1.776825    1.482840   -0.617636
     39          6           0        1.701499    0.191195   -0.284650
     40          6           0        2.169732   -2.321576    0.237084
     41          6           0       -0.391637    1.467009   -0.542749
     42          6           0        0.341678    0.207962   -0.337581
     43          1           0      -11.020281    1.527511   -0.034838
     44          1           0      -12.485397   -1.745846    2.490693
     45          1           0      -10.809672   -1.723998    1.779904
     46          1           0      -12.300468   -3.212565    0.241165
     47          1           0       -9.884741    0.488426    2.511185
     48          1           0      -11.045925    1.773440    2.500981
     49          1           0      -11.622452    0.556946    3.553754
     50          1           0      -13.818638    0.517844    0.444130
     51          1           0      -13.806933    0.384547    2.154835
     52          1           0      -12.998380    1.829415    1.317713
     53          1           0       12.428283    2.291058    0.019011
     54          1           0       12.967953    2.053230    1.629140
     55          1           0      -12.892970   -1.793299   -1.847752
     56          1           0       13.756849   -0.247982    0.899635
     57          1           0       -9.295244   -1.203083   -0.231473
     58          1           0       13.732401   -0.579776   -1.512750
     59          1           0       12.940337    0.763795   -1.806022
     60          1           0        9.407650    1.774830    2.016505
     61          1           0       10.038506    2.383714    0.371669
     62          1           0       10.826796    2.801175    2.043040
     63          1           0       11.759502   -0.843164    2.470086
     64          1           0       10.294758   -0.098089    2.795443
     65          1           0       11.729627    0.801300    3.290337
     66          1           0      -10.805903    0.796441   -2.714082
     67          1           0      -12.475249    1.455433   -2.286189
     68          1           0      -11.997755   -0.245920   -3.338665
     69          1           0      -14.358265   -2.753908   -0.233078
     70          1           0        8.623466    0.434639    0.283987
     71          1           0       -8.958902    1.826392   -0.229776
     72          1           0       11.470415   -2.229955   -1.896852
     73          1           0       10.245168   -1.112256   -2.443046
     74          1           0       11.866758   -1.200707   -3.106596
     75          1           0       15.189936    1.342887    0.908048
     76          1           0        9.587591   -2.527185   -0.387773
     77          1           0       -5.580111   -1.181774   -0.326213
     78          1           0       -6.766657   -1.330676    0.858096
     79          1           0       -7.271916   -1.737473   -0.576359
     80          1           0       -6.674051    2.422916   -0.345596
     81          1           0        6.907061   -3.787811    0.933637
     82          1           0        6.463069   -4.008020   -0.757892
     83          1           0        8.130727   -4.108304   -0.073703
     84          1           0        6.475348   -0.099939   -0.399834
     85          1           0       -4.425331    0.533091   -0.207063
     86          1           0        4.554738   -2.408054    0.302343
     87          1           0       -4.696971    3.427879   -1.046585
     88          1           0        4.095026    0.468575   -0.460508
     89          1           0       -1.179544    4.058516   -1.627559
     90          1           0       -1.350654    4.020692    0.092837
     91          1           0       -2.792916    4.601809   -0.850580
     92          1           0       -2.323546    0.486954   -0.678594
     93          1           0        2.204433    1.001311   -0.592233
     94          1           0        2.603693   -2.820420    1.012950
     95          1           0        1.021071   -2.412090    0.494338
     96          1           0        2.391121   -2.826141   -0.351638
     97          1           0        0.127031    2.330297   -0.834798
     98          1           0       -0.197548   -0.804153   -0.229984
 ---------------------------------------------------------------------

 SCF Done:  E(RCAM-B3LYP) =  -1706.88149243     A.U. after   15 cycles

 Excitation energies and oscillator strengths:

 Excited State   1:      Singlet-A      2.1125 eV  586.91 nm  f=2.8774  <S**2>=0.000
     155 ->158        -0.11990
     156 ->157         0.69938
     156 <-157        -0.10568
 This state for optimization and/or second-order correction.
 Total Energy, E(TD-HF/TD-DFT) =  -1706.80386013
 Copying the excited state density for this state as the 1-particle RhoCI density.

 The electronic state is 1-A.
 Alpha  occ. eigenvalues --  -19.22351 -19.19214 -10.31619 -10.28189 -10.27916
 Alpha  occ. eigenvalues --  -10.27679 -10.27555 -10.27426 -10.27294 -10.27235
 Alpha  occ. eigenvalues --  -10.27020 -10.27004 -10.26967 -10.26909 -10.26836
 Alpha  occ. eigenvalues --  -10.26757 -10.26672 -10.26549 -10.26509 -10.26428
 Alpha  occ. eigenvalues --  -10.26323 -10.26291 -10.26214 -10.25828 -10.25674
 Alpha  occ. eigenvalues --  -10.25665 -10.25597 -10.25471 -10.25332 -10.25218
 Alpha  occ. eigenvalues --  -10.25087 -10.24939 -10.24809 -10.24785 -10.24703
 Alpha  occ. eigenvalues --  -10.24562 -10.24551 -10.24535 -10.24373 -10.24167
 Alpha  occ. eigenvalues --  -10.23224 -10.22986  -1.10011  -1.08638  -0.94223
 Alpha  occ. eigenvalues --   -0.93722  -0.92560  -0.91995  -0.89960  -0.89347
 Alpha  occ. eigenvalues --   -0.88368  -0.87451  -0.86533  -0.85931  -0.85124
 Alpha  occ. eigenvalues --   -0.83543  -0.82533  -0.80886  -0.80860  -0.80422
 Alpha  occ. eigenvalues --   -0.77194  -0.77121  -0.77033  -0.76311  -0.75558
 Alpha  occ. eigenvalues --   -0.75304  -0.74872  -0.73882  -0.73589  -0.70942
 Alpha  occ. eigenvalues --   -0.69846  -0.68125  -0.66987  -0.65365  -0.64132
 Alpha  occ. eigenvalues --   -0.62821  -0.62739  -0.62049  -0.61162  -0.60457
 Alpha  occ. eigenvalues --   -0.59915  -0.59003  -0.58299  -0.57019  -0.56607
 Alpha  occ. eigenvalues --   -0.56483  -0.55315  -0.54992  -0.54646  -0.54170
 Alpha  occ. eigenvalues --   -0.53003  -0.52644  -0.52409  -0.52101  -0.51785
 Alpha  occ. eigenvalues --   -0.51527  -0.51061  -0.50356  -0.49742  -0.49642
 Alpha  occ. eigenvalues --   -0.49451  -0.49206  -0.49040  -0.48535  -0.47745
 Alpha  occ. eigenvalues --   -0.47586  -0.47361  -0.47159  -0.47042  -0.46757
 Alpha  occ. eigenvalues --   -0.46248  -0.46013  -0.45695  -0.45491  -0.45113
 Alpha  occ. eigenvalues --   -0.44697  -0.44494  -0.44002  -0.43682  -0.43560
 Alpha  occ. eigenvalues --   -0.43339  -0.42655  -0.42529  -0.42322  -0.42061
 Alpha  occ. eigenvalues --   -0.41840  -0.41638  -0.41358  -0.40935  -0.40736
 Alpha  occ. eigenvalues --   -0.40581  -0.40335  -0.39909  -0.39457  -0.39296
 Alpha  occ. eigenvalues --   -0.39087  -0.38971  -0.38906  -0.38762  -0.38245
 Alpha  occ. eigenvalues --   -0.37674  -0.37336  -0.36993  -0.35889  -0.35182
 Alpha  occ. eigenvalues --   -0.34827  -0.34511  -0.33607  -0.33124  -0.31665
 Alpha  occ. eigenvalues --   -0.31089  -0.29817  -0.28738  -0.26090  -0.24041
 Alpha  occ. eigenvalues --   -0.19200
 Alpha virt. eigenvalues --   -0.06127  -0.00119   0.02351   0.05198   0.06680
 Alpha virt. eigenvalues --    0.08996   0.11050   0.11705   0.12516   0.12993
 Alpha virt. eigenvalues --    0.13146   0.13488   0.13768   0.14034   0.14212

 Mulliken charges:
               1
     1  O   -0.531557
     2  O   -0.584205
     3  C    0.030186
     4  C   -0.150845
     5  C   -0.169359
     6  C    0.100541
     7  C    0.128657
     8  C   -0.020433
     9  C   -0.324206
    10  C   -0.301501
    11  C   -0.200838
    12  C   -0.096802
    13  C    0.215981
    14  C    0.037594
    15  C   -0.072197
    16  C   -0.230105
    17  C    0.084350
    18  C   -0.301496
    19  C   -0.283348
    20  C   -0.326920
    21  C   -0.103538
    22  C   -0.122197
    23  C   -0.372073
    24  C    0.103644
    25  C   -0.116835
    26  C   -0.393385
    27  C    0.068237
    28  C   -0.150818
    29  C   -0.370558
    30  C   -0.121847
    31  C   -0.006944
    32  C   -0.077198
    33  C   -0.125036
    34  C    0.065735
    35  C   -0.091931
    36  C    0.085937
    37  C   -0.358150
    38  C   -0.105806
    39  C   -0.106625
    40  C   -0.335360
    41  C   -0.098284
    42  C   -0.089536
    43  H    0.098473
    44  H    0.089247
    45  H    0.082290
    46  H    0.080101
    47  H    0.112559
    48  H    0.073231
    49  H    0.102230
    50  H    0.123802
    51  H    0.090115
    52  H    0.091317
    53  H    0.101777
    54  H    0.073825
    55  H    0.065578
    56  H    0.083863
    57  H    0.086579
    58  H    0.115370
    59  H    0.120896
    60  H    0.077977
    61  H    0.113188
    62  H    0.108920
    63  H    0.102157
    64  H    0.120519
    65  H    0.072885
    66  H    0.132198
    67  H    0.069662
    68  H    0.097857
    69  H    0.309270
    70  H    0.080493
    71  H    0.082641
    72  H    0.133163
    73  H    0.139969
    74  H    0.070371
    75  H    0.292282
    76  H    0.082931
    77  H    0.117733
    78  H    0.136198
    79  H    0.108956
    80  H    0.068352
    81  H    0.137564
    82  H    0.118109
    83  H    0.102739
    84  H    0.081057
    85  H    0.067197
    86  H    0.068463
    87  H    0.076261
    88  H    0.061038
    89  H    0.119581
    90  H    0.126539
    91  H    0.112404
    92  H    0.074352
    93  H    0.068363
    94  H    0.119153
    95  H    0.083878
    96  H    0.116243
    97  H    0.089190
    98  H    0.087971
 Sum of Mulliken charges =  -0.00000

 Dipole moment (field-independent basis, Debye):
    X=              1.2661    Y=             -1.3766    Z=             -0.5352  Tot=              1.9454
 Quadrupole moment (field-independent basis, Debye-Ang):
   XX=           -275.0094   YY=           -241.3609   ZZ=           -261.5919
   XY=              2.3989   XZ=             36.8396   YZ=              3.3190

 Normal termination of Gaussian 16 at Tue Jul 16 00:48:07 2019.
