 Gaussian 16, Revision A.03,
 Gaussian 16:  ES64L-G16RevA.03 25-Dec-2016

 -------------------------------------
 # td=(NStates=1) CAM-B3LYP/6-31G(d,p)
 -------------------------------------

 --
 TD
 --
 Symbolic Z-matrix:
 Charge =  0 Multiplicity = 1

                         Standard orientation:
 ---------------------------------------------------------------------
 Center     Atomic      Atomic             Coordinates (Angstroms)
 Number     Number       Type             X           Y           Z
 ---------------------------------------------------------------------
      1          8           0      -14.157646   -1.824148    0.247795
      2          8           0       14.758948    1.077555   -0.251032
      3          6           0      -11.777736    0.132467    1.215598
      4          6           0      -10.961867    0.386857   -0.067387
      5          6           0      -12.108665   -1.412544    1.313555
      6          6           0      -12.690175   -2.104678    0.191660
      7          6           0      -11.616013   -0.352546   -1.227004
      8          6           0       11.076381    0.939097    1.126824
      9          6           0      -10.920317    0.572289    2.420560
     10          6           0      -13.089593    0.926260    1.249750
     11          6           0       12.533707    1.668958    0.797505
     12          6           0      -12.337005   -1.471859   -1.195136
     13          6           0       13.432097    0.498745    0.102882
     14          6           0       10.663724    0.066056   -0.066034
     15          6           0       -9.522818   -0.081645    0.038458
     16          6           0       12.900463   -0.069143   -1.160344
     17          6           0       11.441014   -0.348286   -1.109391
     18          6           0       10.101391    2.171201    1.289503
     19          6           0       11.203702    0.219395    2.385407
     20          6           0      -11.237621    0.273671   -2.606745
     21          6           0       -8.461473    0.759621   -0.258320
     22          6           0        9.255178   -0.487283    0.116466
     23          6           0       10.953902   -1.123625   -2.309682
     24          6           0       -7.102285    0.455814   -0.229626
     25          6           0        8.875175   -1.707812   -0.060673
     26          6           0       -6.804289   -0.993469    0.060803
     27          6           0        7.433562   -2.159910    0.000541
     28          6           0       -6.140827    1.495478   -0.378751
     29          6           0        7.262032   -3.654817    0.070746
     30          6           0        6.291021   -1.397316    0.020141
     31          6           0       -4.792723    1.305651   -0.384512
     32          6           0        4.999857   -1.639126    0.116859
     33          6           0       -3.963971    2.554942   -0.579291
     34          6           0       -2.485153    2.478053   -0.523262
     35          6           0        4.020407   -0.638761   -0.052318
     36          6           0        2.641009   -0.952740    0.238803
     37          6           0       -1.864210    3.851911   -0.932687
     38          6           0       -1.767156    1.389374   -0.307173
     39          6           0        1.780754    0.155622   -0.134157
     40          6           0        2.166385   -2.268571    0.461172
     41          6           0       -0.345697    1.333833   -0.441487
     42          6           0        0.352135    0.232497   -0.262084
     43          1           0      -10.822504    1.409673   -0.321061
     44          1           0      -12.805130   -1.399025    2.164250
     45          1           0      -11.275998   -2.035604    1.800296
     46          1           0      -12.594132   -3.286225    0.326669
     47          1           0      -10.038454    0.230502    2.672288
     48          1           0      -10.649605    1.649488    2.444089
     49          1           0      -11.385377    0.355496    3.301279
     50          1           0      -13.703655    0.969122    0.221635
     51          1           0      -13.826311    0.654076    2.148367
     52          1           0      -13.022944    1.949124    1.390938
     53          1           0       12.381256    2.452502    0.237353
     54          1           0       13.016524    1.956327    1.755819
     55          1           0      -12.700723   -1.781466   -2.036027
     56          1           0       13.547260   -0.207685    0.904711
     57          1           0       -9.545245   -1.007795    0.160902
     58          1           0       13.405459   -1.084219   -1.598704
     59          1           0       13.097397    0.540221   -2.002616
     60          1           0        9.136630    1.682327    1.806917
     61          1           0        9.723477    2.684411    0.320484
     62          1           0       10.627061    2.715380    2.104291
     63          1           0       12.005059   -0.464707    2.350728
     64          1           0       10.246525   -0.329300    2.750996
     65          1           0       11.559889    0.859029    3.345379
     66          1           0      -10.241728    0.483272   -2.421742
     67          1           0      -11.720642    1.303420   -2.377427
     68          1           0      -11.497066   -0.429011   -3.267495
     69          1           0      -14.740503   -2.009825   -0.520903
     70          1           0        8.664240    0.323509    0.403721
     71          1           0       -8.790475    1.815583   -0.410774
     72          1           0       11.317158   -2.196448   -2.396821
     73          1           0        9.789692   -1.297169   -2.526117
     74          1           0       11.362139   -0.423145   -3.154176
     75          1           0       15.267707    1.362839    0.654813
     76          1           0        9.556111   -2.603306   -0.222725
     77          1           0       -5.695116   -1.062515    0.356523
     78          1           0       -7.172314   -1.330269    1.047329
     79          1           0       -7.024631   -1.515819   -0.675671
     80          1           0       -6.530489    2.504615   -0.260019
     81          1           0        7.026567   -3.728904    1.167449
     82          1           0        6.561636   -4.137472   -0.752868
     83          1           0        8.131568   -4.279936   -0.090125
     84          1           0        6.533554   -0.361069    0.019590
     85          1           0       -4.288516    0.376498   -0.383874
     86          1           0        4.685806   -2.651833    0.510943
     87          1           0       -4.310428    3.605812   -0.770380
     88          1           0        4.479756    0.358240   -0.470734
     89          1           0       -1.332708    3.717768   -1.851422
     90          1           0       -1.106513    4.270571   -0.176884
     91          1           0       -2.755011    4.398788   -1.121852
     92          1           0       -2.117075    0.482357   -0.028720
     93          1           0        2.414830    1.155576   -0.265787
     94          1           0        2.261598   -2.366638    1.564610
     95          1           0        1.146051   -2.546731    0.009448
     96          1           0        2.579068   -3.098030   -0.193814
     97          1           0        0.141397    2.157221   -0.887944
     98          1           0       -0.148363   -0.838832   -0.316250
 ---------------------------------------------------------------------

 SCF Done:  E(RCAM-B3LYP) =  -1706.87642241     A.U. after   15 cycles

 Excitation energies and oscillator strengths:

 Excited State   1:      Singlet-A      2.0576 eV  602.57 nm  f=2.9727  <S**2>=0.000
     155 ->158        -0.14794
     156 ->157         0.68996
 This state for optimization and/or second-order correction.
 Total Energy, E(TD-HF/TD-DFT) =  -1706.80080728
 Copying the excited state density for this state as the 1-particle RhoCI density.

 The electronic state is 1-A.
 Alpha  occ. eigenvalues --  -19.21151 -19.18922 -10.31899 -10.30950 -10.28150
 Alpha  occ. eigenvalues --  -10.27793 -10.27636 -10.27619 -10.27362 -10.27302
 Alpha  occ. eigenvalues --  -10.27231 -10.27070 -10.26899 -10.26756 -10.26752
 Alpha  occ. eigenvalues --  -10.26672 -10.26668 -10.26507 -10.26434 -10.26299
 Alpha  occ. eigenvalues --  -10.26128 -10.26063 -10.25920 -10.25906 -10.25853
 Alpha  occ. eigenvalues --  -10.25676 -10.25591 -10.25560 -10.25455 -10.25209
 Alpha  occ. eigenvalues --  -10.25123 -10.25003 -10.24982 -10.24925 -10.24667
 Alpha  occ. eigenvalues --  -10.24649 -10.24574 -10.24224 -10.24036 -10.23747
 Alpha  occ. eigenvalues --  -10.23492 -10.22109  -1.05418  -1.05061  -0.93592
 Alpha  occ. eigenvalues --   -0.92895  -0.91934  -0.91412  -0.90745  -0.89433
 Alpha  occ. eigenvalues --   -0.87338  -0.87051  -0.86729  -0.85630  -0.84914
 Alpha  occ. eigenvalues --   -0.83139  -0.82133  -0.80812  -0.79571  -0.78561
 Alpha  occ. eigenvalues --   -0.77241  -0.76452  -0.76040  -0.75912  -0.75871
 Alpha  occ. eigenvalues --   -0.75127  -0.74858  -0.74717  -0.72609  -0.70062
 Alpha  occ. eigenvalues --   -0.68263  -0.67483  -0.66613  -0.65024  -0.64533
 Alpha  occ. eigenvalues --   -0.63217  -0.62851  -0.61766  -0.61208  -0.60877
 Alpha  occ. eigenvalues --   -0.59613  -0.58626  -0.57764  -0.57110  -0.56073
 Alpha  occ. eigenvalues --   -0.55192  -0.54837  -0.54155  -0.53829  -0.53599
 Alpha  occ. eigenvalues --   -0.53245  -0.52757  -0.52606  -0.52562  -0.51749
 Alpha  occ. eigenvalues --   -0.51145  -0.50559  -0.50284  -0.50031  -0.49551
 Alpha  occ. eigenvalues --   -0.49337  -0.48973  -0.48717  -0.48336  -0.48000
 Alpha  occ. eigenvalues --   -0.47788  -0.47696  -0.47024  -0.46719  -0.45958
 Alpha  occ. eigenvalues --   -0.45424  -0.45097  -0.44996  -0.44747  -0.44678
 Alpha  occ. eigenvalues --   -0.44075  -0.44036  -0.43787  -0.43391  -0.43372
 Alpha  occ. eigenvalues --   -0.42778  -0.42259  -0.42155  -0.41441  -0.41432
 Alpha  occ. eigenvalues --   -0.41342  -0.41118  -0.40639  -0.40593  -0.40244
 Alpha  occ. eigenvalues --   -0.39875  -0.39807  -0.39730  -0.39268  -0.39161
 Alpha  occ. eigenvalues --   -0.38781  -0.38152  -0.38002  -0.37870  -0.37568
 Alpha  occ. eigenvalues --   -0.37378  -0.37127  -0.36980  -0.36389  -0.35577
 Alpha  occ. eigenvalues --   -0.35006  -0.34251  -0.33544  -0.31680  -0.31339
 Alpha  occ. eigenvalues --   -0.30369  -0.28782  -0.28160  -0.26834  -0.22577
 Alpha  occ. eigenvalues --   -0.18883
 Alpha virt. eigenvalues --   -0.05868  -0.01615   0.03278   0.06226   0.07605
 Alpha virt. eigenvalues --    0.08964   0.10313   0.11266   0.12229   0.12732
 Alpha virt. eigenvalues --    0.13014   0.13326   0.13518   0.13611   0.14122

 Mulliken charges:
               1
     1  O   -0.585898
     2  O   -0.582928
     3  C    0.044760
     4  C   -0.144566
     5  C   -0.198512
     6  C    0.161848
     7  C    0.068712
     8  C   -0.029810
     9  C   -0.315811
    10  C   -0.286427
    11  C   -0.185796
    12  C   -0.110083
    13  C    0.160743
    14  C    0.030031
    15  C   -0.023281
    16  C   -0.210364
    17  C    0.061214
    18  C   -0.298970
    19  C   -0.289808
    20  C   -0.326001
    21  C   -0.116204
    22  C   -0.095274
    23  C   -0.354047
    24  C    0.079929
    25  C   -0.084912
    26  C   -0.354924
    27  C    0.044778
    28  C   -0.102363
    29  C   -0.377222
    30  C   -0.102387
    31  C   -0.078561
    32  C   -0.079942
    33  C   -0.148441
    34  C    0.071441
    35  C   -0.114006
    36  C    0.094470
    37  C   -0.362643
    38  C   -0.086587
    39  C   -0.127918
    40  C   -0.375101
    41  C   -0.071486
    42  C   -0.097874
    43  H    0.073640
    44  H    0.127356
    45  H    0.088169
    46  H    0.072768
    47  H    0.110723
    48  H    0.090884
    49  H    0.096089
    50  H    0.092251
    51  H    0.089029
    52  H    0.102729
    53  H    0.110812
    54  H    0.078922
    55  H    0.060197
    56  H    0.092595
    57  H    0.063741
    58  H    0.096022
    59  H    0.132769
    60  H    0.079842
    61  H    0.109806
    62  H    0.107038
    63  H    0.111484
    64  H    0.102764
    65  H    0.074908
    66  H    0.127668
    67  H    0.106129
    68  H    0.106562
    69  H    0.300774
    70  H    0.089169
    71  H    0.074023
    72  H    0.111525
    73  H    0.112589
    74  H    0.096322
    75  H    0.298286
    76  H    0.088230
    77  H    0.088726
    78  H    0.125319
    79  H    0.137478
    80  H    0.091998
    81  H    0.127961
    82  H    0.105115
    83  H    0.103594
    84  H    0.061290
    85  H    0.105679
    86  H    0.082183
    87  H    0.091855
    88  H    0.093527
    89  H    0.129464
    90  H    0.117996
    91  H    0.101423
    92  H    0.065420
    93  H    0.069300
    94  H    0.134949
    95  H    0.106733
    96  H    0.123026
    97  H    0.086103
    98  H    0.075267
 Sum of Mulliken charges =  -0.00000

 Dipole moment (field-independent basis, Debye):
    X=              0.1245    Y=             -1.0577    Z=              0.4758  Tot=              1.1665
 Quadrupole moment (field-independent basis, Debye-Ang):
   XX=           -279.5332   YY=           -244.4457   ZZ=           -259.5019
   XY=              0.3331   XZ=             34.1855   YZ=              2.8287

 Normal termination of Gaussian 16 at Sun Jul 14 17:38:43 2019.
