 Gaussian 16, Revision A.03,
 Gaussian 16:  ES64L-G16RevA.03 25-Dec-2016

 -------------------------------------
 # td=(NStates=1) CAM-B3LYP/6-31G(d,p)
 -------------------------------------

 --
 TD
 --
 Symbolic Z-matrix:
 Charge =  0 Multiplicity = 1

                         Standard orientation:
 ---------------------------------------------------------------------
 Center     Atomic      Atomic             Coordinates (Angstroms)
 Number     Number       Type             X           Y           Z
 ---------------------------------------------------------------------
      1          8           0      -14.327515   -1.878510    0.613070
      2          8           0       14.789963    1.166714    0.116677
      3          6           0      -11.806824    0.102780    1.264842
      4          6           0      -11.021446    0.362165   -0.024849
      5          6           0      -12.233499   -1.357997    1.500257
      6          6           0      -12.927409   -1.927505    0.376195
      7          6           0      -11.676471   -0.456303   -1.186007
      8          6           0       11.174848    0.914878    1.184392
      9          6           0      -10.926145    0.520607    2.489635
     10          6           0      -12.987635    1.054303    1.243530
     11          6           0       12.541406    1.557255    0.810152
     12          6           0      -12.456637   -1.445257   -0.977061
     13          6           0       13.532514    0.529795    0.417519
     14          6           0       10.699859   -0.073387    0.155628
     15          6           0       -9.499023   -0.170429    0.106691
     16          6           0       13.049428   -0.157880   -0.857562
     17          6           0       11.607253   -0.526026   -0.770023
     18          6           0       10.240848    2.093286    1.307941
     19          6           0       11.243464    0.162083    2.552787
     20          6           0      -11.186545   -0.069540   -2.579463
     21          6           0       -8.528082    0.764763   -0.140399
     22          6           0        9.254155   -0.554244    0.189559
     23          6           0       11.218914   -1.241274   -2.016897
     24          6           0       -7.036511    0.498999   -0.042664
     25          6           0        8.804442   -1.758491   -0.085557
     26          6           0       -6.739076   -0.952170    0.306701
     27          6           0        7.430281   -2.165528   -0.106631
     28          6           0       -6.186691    1.463471   -0.311699
     29          6           0        7.168198   -3.641594    0.061402
     30          6           0        6.378486   -1.290422   -0.337911
     31          6           0       -4.749850    1.413044   -0.408481
     32          6           0        5.026229   -1.510146   -0.375961
     33          6           0       -4.001663    2.509621   -0.692674
     34          6           0       -2.641396    2.581313   -0.824616
     35          6           0        4.062854   -0.511270   -0.363625
     36          6           0        2.618647   -0.765821   -0.249737
     37          6           0       -1.970889    3.925021   -1.163805
     38          6           0       -1.781058    1.442584   -0.669514
     39          6           0        1.745643    0.297956   -0.422994
     40          6           0        2.030297   -2.135301   -0.008925
     41          6           0       -0.439841    1.377069   -0.684419
     42          6           0        0.405187    0.211191   -0.536113
     43          1           0      -11.019224    1.489259   -0.116343
     44          1           0      -12.963099   -1.418309    2.382249
     45          1           0      -11.313634   -2.024323    1.693795
     46          1           0      -12.929232   -3.007614    0.374235
     47          1           0       -9.887501    0.263050    2.510875
     48          1           0      -10.825567    1.590787    2.348929
     49          1           0      -11.591115    0.176157    3.463522
     50          1           0      -13.551388    0.713879    0.341436
     51          1           0      -13.637231    0.725464    1.933861
     52          1           0      -12.582888    2.116601    1.204860
     53          1           0       12.540368    2.346533   -0.053872
     54          1           0       12.970714    2.244126    1.783759
     55          1           0      -13.056158   -2.132110   -1.873711
     56          1           0       13.841757   -0.342337    1.141396
     57          1           0       -9.220397   -1.289964    0.431639
     58          1           0       13.643153   -1.091679   -1.244499
     59          1           0       13.285423    0.625147   -1.470350
     60          1           0        9.230936    1.497402    1.684370
     61          1           0        9.880207    2.592530    0.389626
     62          1           0       10.459613    2.602691    2.190891
     63          1           0       11.802550   -0.891129    2.598213
     64          1           0       10.203349   -0.025822    2.905143
     65          1           0       11.718412    0.739070    3.461736
     66          1           0      -10.064127   -0.056601   -2.848924
     67          1           0      -11.448138    0.976760   -2.663206
     68          1           0      -11.570879   -0.483468   -3.303030
     69          1           0      -14.705443   -2.032561   -0.243090
     70          1           0        8.714892    0.282649    0.307040
     71          1           0       -8.663834    1.815808   -0.236289
     72          1           0       11.643308   -2.312306   -2.150671
     73          1           0       10.172177   -1.190532   -2.351832
     74          1           0       11.754055   -0.720320   -2.948546
     75          1           0       15.130143    1.727212    0.853951
     76          1           0        9.423311   -2.783871   -0.324279
     77          1           0       -5.705162   -1.088079    0.148983
     78          1           0       -6.752792   -1.132253    1.445586
     79          1           0       -7.480359   -1.816756   -0.244284
     80          1           0       -6.687516    2.444156   -0.618222
     81          1           0        6.425011   -3.819335    0.929054
     82          1           0        6.854135   -4.042112   -1.162414
     83          1           0        8.153755   -4.299662    0.260831
     84          1           0        6.643079   -0.334413   -0.434026
     85          1           0       -4.186035    0.351412   -0.017942
     86          1           0        4.736731   -2.560543   -0.165756
     87          1           0       -4.645158    3.476375   -0.779931
     88          1           0        4.383506    0.616161   -0.592329
     89          1           0       -1.281378    3.816170   -2.059368
     90          1           0       -1.339830    4.178971   -0.097721
     91          1           0       -2.733351    4.768852   -1.301002
     92          1           0       -2.266587    0.581988   -0.644941
     93          1           0        2.211511    1.337916   -0.377820
     94          1           0        2.906536   -2.656487    0.634800
     95          1           0        0.893984   -2.230007    0.445427
     96          1           0        2.180541   -2.901442   -0.933157
     97          1           0        0.165524    2.558413   -0.917297
     98          1           0       -0.177815   -0.706738   -0.307193
 ---------------------------------------------------------------------

 SCF Done:  E(RCAM-B3LYP) =  -1706.86548372     A.U. after   15 cycles

 Excitation energies and oscillator strengths:

 Excited State   1:      Singlet-A      1.9068 eV  650.23 nm  f=2.8632  <S**2>=0.000
     155 ->158        -0.12119
     156 ->157         0.70414
     156 <-157        -0.12442
 This state for optimization and/or second-order correction.
 Total Energy, E(TD-HF/TD-DFT) =  -1706.79541107
 Copying the excited state density for this state as the 1-particle RhoCI density.

 The electronic state is 1-A.
 Alpha  occ. eigenvalues --  -19.20220 -19.20164 -10.30377 -10.29186 -10.29118
 Alpha  occ. eigenvalues --  -10.28944 -10.28527 -10.28498 -10.28285 -10.28168
 Alpha  occ. eigenvalues --  -10.28149 -10.28113 -10.28012 -10.27955 -10.27908
 Alpha  occ. eigenvalues --  -10.27414 -10.27392 -10.27355 -10.27333 -10.27064
 Alpha  occ. eigenvalues --  -10.27023 -10.27012 -10.26973 -10.26680 -10.26670
 Alpha  occ. eigenvalues --  -10.26574 -10.26508 -10.26407 -10.26242 -10.26195
 Alpha  occ. eigenvalues --  -10.26157 -10.25992 -10.25789 -10.25625 -10.25427
 Alpha  occ. eigenvalues --  -10.25182 -10.24920 -10.24813 -10.24377 -10.24265
 Alpha  occ. eigenvalues --  -10.23908 -10.23196  -1.10078  -1.07704  -0.93853
 Alpha  occ. eigenvalues --   -0.93851  -0.92456  -0.91809  -0.90844  -0.90059
 Alpha  occ. eigenvalues --   -0.87338  -0.87215  -0.87095  -0.85660  -0.84437
 Alpha  occ. eigenvalues --   -0.83366  -0.82217  -0.80584  -0.79880  -0.78391
 Alpha  occ. eigenvalues --   -0.77429  -0.76465  -0.75793  -0.75352  -0.74887
 Alpha  occ. eigenvalues --   -0.74810  -0.74581  -0.74400  -0.72292  -0.70277
 Alpha  occ. eigenvalues --   -0.68905  -0.68092  -0.65889  -0.64637  -0.63643
 Alpha  occ. eigenvalues --   -0.63145  -0.62773  -0.61538  -0.59803  -0.59582
 Alpha  occ. eigenvalues --   -0.58683  -0.58132  -0.57591  -0.57322  -0.56190
 Alpha  occ. eigenvalues --   -0.55896  -0.55279  -0.54567  -0.54436  -0.53784
 Alpha  occ. eigenvalues --   -0.53469  -0.53002  -0.52548  -0.51992  -0.51576
 Alpha  occ. eigenvalues --   -0.51165  -0.50243  -0.49709  -0.48972  -0.48654
 Alpha  occ. eigenvalues --   -0.48246  -0.47883  -0.47669  -0.47523  -0.47422
 Alpha  occ. eigenvalues --   -0.46631  -0.46459  -0.46344  -0.46089  -0.45730
 Alpha  occ. eigenvalues --   -0.45578  -0.45451  -0.45090  -0.44939  -0.44638
 Alpha  occ. eigenvalues --   -0.44048  -0.43814  -0.43594  -0.43373  -0.43188
 Alpha  occ. eigenvalues --   -0.42952  -0.42676  -0.42166  -0.42046  -0.41781
 Alpha  occ. eigenvalues --   -0.41731  -0.41409  -0.41250  -0.41103  -0.40631
 Alpha  occ. eigenvalues --   -0.40507  -0.40260  -0.39975  -0.39219  -0.39194
 Alpha  occ. eigenvalues --   -0.39041  -0.38804  -0.38647  -0.38415  -0.37854
 Alpha  occ. eigenvalues --   -0.37553  -0.36992  -0.36248  -0.35992  -0.35408
 Alpha  occ. eigenvalues --   -0.34936  -0.34282  -0.33894  -0.32152  -0.31684
 Alpha  occ. eigenvalues --   -0.31451  -0.30310  -0.28909  -0.27430  -0.24305
 Alpha  occ. eigenvalues --   -0.18765
 Alpha virt. eigenvalues --   -0.07013  -0.00827   0.02972   0.05601   0.06760
 Alpha virt. eigenvalues --    0.08441   0.09908   0.10596   0.11164   0.11447
 Alpha virt. eigenvalues --    0.11731   0.11892   0.12554   0.12858   0.13325

 Mulliken charges:
               1
     1  O   -0.560038
     2  O   -0.587466
     3  C   -0.011193
     4  C   -0.121889
     5  C   -0.188456
     6  C    0.164626
     7  C    0.120441
     8  C   -0.022135
     9  C   -0.281471
    10  C   -0.278914
    11  C   -0.174278
    12  C   -0.146524
    13  C    0.172813
    14  C    0.051607
    15  C   -0.103726
    16  C   -0.214420
    17  C    0.067496
    18  C   -0.299904
    19  C   -0.300906
    20  C   -0.336099
    21  C   -0.085695
    22  C   -0.100834
    23  C   -0.366951
    24  C    0.127293
    25  C   -0.084454
    26  C   -0.368754
    27  C    0.078122
    28  C   -0.142273
    29  C   -0.358078
    30  C   -0.074094
    31  C   -0.068873
    32  C   -0.088822
    33  C   -0.124467
    34  C    0.095058
    35  C   -0.116538
    36  C    0.121672
    37  C   -0.359376
    38  C   -0.083458
    39  C   -0.106390
    40  C   -0.366426
    41  C   -0.076470
    42  C   -0.097154
    43  H    0.094279
    44  H    0.114272
    45  H    0.090678
    46  H    0.083949
    47  H    0.108208
    48  H    0.082242
    49  H    0.074103
    50  H    0.098039
    51  H    0.114744
    52  H    0.091488
    53  H    0.103117
    54  H    0.050215
    55  H    0.051008
    56  H    0.073447
    57  H    0.103569
    58  H    0.100417
    59  H    0.133504
    60  H    0.061389
    61  H    0.119726
    62  H    0.116912
    63  H    0.101063
    64  H    0.110446
    65  H    0.083752
    66  H    0.112413
    67  H    0.106982
    68  H    0.110822
    69  H    0.294433
    70  H    0.095353
    71  H    0.078315
    72  H    0.099229
    73  H    0.121079
    74  H    0.088448
    75  H    0.304503
    76  H    0.084941
    77  H    0.107899
    78  H    0.117397
    79  H    0.099473
    80  H    0.077990
    81  H    0.124999
    82  H    0.086942
    83  H    0.098614
    84  H    0.060393
    85  H    0.080553
    86  H    0.076604
    87  H    0.085949
    88  H    0.086611
    89  H    0.131148
    90  H    0.100842
    91  H    0.105230
    92  H    0.065564
    93  H    0.084411
    94  H    0.099259
    95  H    0.110271
    96  H    0.109550
    97  H    0.045477
    98  H    0.085136
 Sum of Mulliken charges =  -0.00000

 Dipole moment (field-independent basis, Debye):
    X=             -0.2483    Y=              0.1199    Z=             -0.2884  Tot=              0.3990
 Quadrupole moment (field-independent basis, Debye-Ang):
   XX=           -295.7006   YY=           -245.4249   ZZ=           -264.6113
   XY=              3.9863   XZ=             37.8443   YZ=              1.6593

 Normal termination of Gaussian 16 at Sat Jul 13 04:31:37 2019.
