 Gaussian 16, Revision A.03,
 Gaussian 16:  ES64L-G16RevA.03 25-Dec-2016

 -------------------------------------
 # td=(NStates=1) CAM-B3LYP/6-31G(d,p)
 -------------------------------------

 --
 TD
 --
 Symbolic Z-matrix:
 Charge =  0 Multiplicity = 1

                         Standard orientation:
 ---------------------------------------------------------------------
 Center     Atomic      Atomic             Coordinates (Angstroms)
 Number     Number       Type             X           Y           Z
 ---------------------------------------------------------------------
      1          8           0      -14.192812   -1.905560    0.573453
      2          8           0       14.795536    0.866269    0.229670
      3          6           0      -11.736394    0.164324    1.221449
      4          6           0      -10.919046    0.284085   -0.107241
      5          6           0      -12.072212   -1.322229    1.575132
      6          6           0      -12.823953   -2.094296    0.387021
      7          6           0      -11.534683   -0.513490   -1.221705
      8          6           0       11.064549    1.204917    0.938840
      9          6           0      -11.114511    0.689244    2.489013
     10          6           0      -13.059554    0.932459    1.079790
     11          6           0       12.520887    1.627956    0.590072
     12          6           0      -12.371852   -1.535025   -1.057819
     13          6           0       13.481466    0.494673    0.459830
     14          6           0       10.651651   -0.073956    0.053629
     15          6           0       -9.481907   -0.203909    0.036476
     16          6           0       13.098364   -0.398691   -0.688295
     17          6           0       11.581430   -0.722779   -0.789824
     18          6           0       10.170087    2.370503    0.705042
     19          6           0       10.980337    0.627277    2.380768
     20          6           0      -11.228798    0.011102   -2.563085
     21          6           0       -8.473765    0.668062   -0.257853
     22          6           0        9.261105   -0.443037    0.006445
     23          6           0       11.299933   -1.782892   -1.847349
     24          6           0       -7.035945    0.481109   -0.187527
     25          6           0        8.779414   -1.672406   -0.129150
     26          6           0       -6.664623   -0.919370    0.311435
     27          6           0        7.385483   -2.036994   -0.077066
     28          6           0       -6.216221    1.484470   -0.482163
     29          6           0        7.219904   -3.571668    0.208979
     30          6           0        6.314342   -1.215912   -0.314940
     31          6           0       -4.770608    1.581162   -0.370805
     32          6           0        4.955042   -1.526990   -0.027623
     33          6           0       -3.936838    2.517417   -0.817272
     34          6           0       -2.564347    2.467026   -0.783559
     35          6           0        4.039603   -0.554038   -0.218247
     36          6           0        2.638242   -0.737974   -0.061645
     37          6           0       -1.865887    3.826268   -1.051789
     38          6           0       -1.773343    1.388376   -0.524723
     39          6           0        1.784296    0.295670   -0.232173
     40          6           0        2.073612   -2.188019    0.117737
     41          6           0       -0.364713    1.434922   -0.494033
     42          6           0        0.396265    0.370124   -0.221563
     43          1           0      -10.927756    1.347424   -0.353100
     44          1           0      -12.944692   -1.174629    2.416091
     45          1           0      -11.057395   -1.965667    1.828523
     46          1           0      -12.733422   -3.119990    0.503847
     47          1           0      -10.286518    0.081922    2.923405
     48          1           0      -10.709486    1.735761    2.255663
     49          1           0      -12.028038    0.738284    3.327678
     50          1           0      -13.594277    0.705525    0.245995
     51          1           0      -13.615470    0.734659    1.879044
     52          1           0      -12.917289    2.003661    1.174673
     53          1           0       12.535222    2.223722   -0.282291
     54          1           0       12.808522    2.277404    1.403773
     55          1           0      -12.932090   -2.029757   -1.974256
     56          1           0       13.256538   -0.106720    1.340284
     57          1           0       -9.416685   -1.278571    0.502083
     58          1           0       13.673095   -1.353641   -0.660668
     59          1           0       13.259279    0.015963   -1.640407
     60          1           0        9.248644    2.102631    1.141670
     61          1           0        9.987410    2.638459   -0.391084
     62          1           0       10.447090    3.382477    1.247169
     63          1           0       12.086538    0.020495    2.644368
     64          1           0       10.038456    0.058150    2.592058
     65          1           0       11.022468    1.504950    2.968570
     66          1           0      -10.281446    0.032728   -2.549612
     67          1           0      -11.686284    0.963895   -2.834577
     68          1           0      -11.468061   -0.744302   -3.196149
     69          1           0      -14.542762   -2.385963   -0.183526
     70          1           0        8.451215    0.394018    0.294051
     71          1           0       -8.873225    1.633406   -0.737554
     72          1           0       11.382643   -3.031427   -1.528550
     73          1           0       10.284092   -1.850272   -2.215347
     74          1           0       12.110676   -1.893628   -2.654532
     75          1           0       15.048006    1.483140    0.912904
     76          1           0        9.437735   -2.482020   -0.224255
     77          1           0       -5.559809   -1.097646    0.355424
     78          1           0       -6.950279   -1.053176    1.312672
     79          1           0       -7.166556   -1.674715   -0.373758
     80          1           0       -6.754631    2.404863   -0.788727
     81          1           0        6.903083   -3.684787    1.371348
     82          1           0        6.309754   -3.911203   -0.192651
     83          1           0        8.147003   -4.084146   -0.053395
     84          1           0        6.418645   -0.231205   -0.650209
     85          1           0       -4.340700    0.647094    0.040766
     86          1           0        4.811203   -2.527877    0.144111
     87          1           0       -4.595351    3.403151   -1.125846
     88          1           0        4.262278    0.470238   -0.212670
     89          1           0       -1.359181    3.533484   -2.003982
     90          1           0       -1.222728    4.344373   -0.201939
     91          1           0       -2.611661    4.662498   -1.299290
     92          1           0       -2.291644    0.520395   -0.253644
     93          1           0        2.266235    1.205244   -0.457577
     94          1           0        1.981258   -2.553292    1.262194
     95          1           0        0.942859   -2.118102   -0.461867
     96          1           0        2.676627   -2.902331   -0.459509
     97          1           0        0.138392    2.490812   -0.653024
     98          1           0       -0.010200   -0.636268   -0.104598
 ---------------------------------------------------------------------

 SCF Done:  E(RCAM-B3LYP) =  -1707.03282469     A.U. after   14 cycles

 Excitation energies and oscillator strengths:

 Excited State   1:      Singlet-A      2.4432 eV  507.46 nm  f=3.1943  <S**2>=0.000
     155 ->158         0.17089
     156 ->157         0.68172
 This state for optimization and/or second-order correction.
 Total Energy, E(TD-HF/TD-DFT) =  -1706.94303841
 Copying the excited state density for this state as the 1-particle RhoCI density.

 The electronic state is 1-A.
 Alpha  occ. eigenvalues --  -19.21666 -19.20838 -10.30377 -10.29582 -10.28186
 Alpha  occ. eigenvalues --  -10.28060 -10.27956 -10.27519 -10.27345 -10.27293
 Alpha  occ. eigenvalues --  -10.27254 -10.26938 -10.26872 -10.26781 -10.26732
 Alpha  occ. eigenvalues --  -10.26710 -10.26699 -10.26695 -10.26425 -10.26397
 Alpha  occ. eigenvalues --  -10.26371 -10.26367 -10.26294 -10.26213 -10.26170
 Alpha  occ. eigenvalues --  -10.26162 -10.26068 -10.26027 -10.25814 -10.25809
 Alpha  occ. eigenvalues --  -10.25696 -10.25418 -10.25379 -10.25299 -10.25140
 Alpha  occ. eigenvalues --  -10.24823 -10.24631 -10.24605 -10.24574 -10.24291
 Alpha  occ. eigenvalues --  -10.22255 -10.21207  -1.11219  -1.10638  -0.93482
 Alpha  occ. eigenvalues --   -0.93194  -0.92664  -0.91919  -0.90675  -0.90014
 Alpha  occ. eigenvalues --   -0.87868  -0.87758  -0.86680  -0.85672  -0.84372
 Alpha  occ. eigenvalues --   -0.82947  -0.81526  -0.80110  -0.79934  -0.77716
 Alpha  occ. eigenvalues --   -0.76798  -0.76275  -0.76168  -0.75891  -0.75584
 Alpha  occ. eigenvalues --   -0.75352  -0.75074  -0.73860  -0.73344  -0.70320
 Alpha  occ. eigenvalues --   -0.68915  -0.67472  -0.66859  -0.65114  -0.63544
 Alpha  occ. eigenvalues --   -0.63129  -0.62370  -0.61934  -0.60807  -0.60069
 Alpha  occ. eigenvalues --   -0.59782  -0.59289  -0.57860  -0.57482  -0.56625
 Alpha  occ. eigenvalues --   -0.56453  -0.55038  -0.54588  -0.54220  -0.53872
 Alpha  occ. eigenvalues --   -0.53644  -0.53328  -0.52722  -0.52211  -0.51088
 Alpha  occ. eigenvalues --   -0.50457  -0.50065  -0.49705  -0.49334  -0.49156
 Alpha  occ. eigenvalues --   -0.49026  -0.48873  -0.48606  -0.48376  -0.48055
 Alpha  occ. eigenvalues --   -0.47439  -0.47237  -0.46960  -0.46790  -0.46373
 Alpha  occ. eigenvalues --   -0.46063  -0.45774  -0.45500  -0.45283  -0.44799
 Alpha  occ. eigenvalues --   -0.44371  -0.44056  -0.43885  -0.43276  -0.43169
 Alpha  occ. eigenvalues --   -0.42942  -0.42727  -0.42653  -0.42471  -0.42298
 Alpha  occ. eigenvalues --   -0.41974  -0.41696  -0.41065  -0.40675  -0.40602
 Alpha  occ. eigenvalues --   -0.40499  -0.40309  -0.39910  -0.39688  -0.39613
 Alpha  occ. eigenvalues --   -0.39190  -0.38861  -0.38472  -0.38323  -0.37802
 Alpha  occ. eigenvalues --   -0.37254  -0.36904  -0.36870  -0.36373  -0.36106
 Alpha  occ. eigenvalues --   -0.35321  -0.34981  -0.34253  -0.32319  -0.32146
 Alpha  occ. eigenvalues --   -0.31670  -0.29992  -0.28970  -0.26852  -0.23869
 Alpha  occ. eigenvalues --   -0.20120
 Alpha virt. eigenvalues --   -0.04948  -0.00853   0.02744   0.05836   0.07614
 Alpha virt. eigenvalues --    0.09193   0.11002   0.11346   0.12170   0.12665
 Alpha virt. eigenvalues --    0.13132   0.13332   0.13574   0.13720   0.13934

 Mulliken charges:
               1
     1  O   -0.530901
     2  O   -0.546798
     3  C    0.019993
     4  C   -0.145949
     5  C   -0.182160
     6  C    0.141350
     7  C    0.106787
     8  C   -0.010887
     9  C   -0.277546
    10  C   -0.288617
    11  C   -0.192438
    12  C   -0.163081
    13  C    0.182674
    14  C    0.041603
    15  C   -0.075522
    16  C   -0.219004
    17  C    0.059335
    18  C   -0.309366
    19  C   -0.292334
    20  C   -0.331113
    21  C   -0.114252
    22  C   -0.112616
    23  C   -0.362855
    24  C    0.130386
    25  C   -0.097274
    26  C   -0.372059
    27  C    0.067996
    28  C   -0.144490
    29  C   -0.367850
    30  C   -0.116301
    31  C   -0.065978
    32  C   -0.058877
    33  C   -0.115400
    34  C    0.078613
    35  C   -0.117021
    36  C    0.111544
    37  C   -0.372201
    38  C   -0.089544
    39  C   -0.124710
    40  C   -0.355165
    41  C   -0.091209
    42  C   -0.067339
    43  H    0.093709
    44  H    0.102376
    45  H    0.068843
    46  H    0.082604
    47  H    0.096792
    48  H    0.087585
    49  H    0.073738
    50  H    0.118286
    51  H    0.107027
    52  H    0.084143
    53  H    0.105213
    54  H    0.075117
    55  H    0.062998
    56  H    0.068176
    57  H    0.092499
    58  H    0.110984
    59  H    0.123025
    60  H    0.110382
    61  H    0.111011
    62  H    0.089225
    63  H    0.076733
    64  H    0.120235
    65  H    0.103424
    66  H    0.122988
    67  H    0.115850
    68  H    0.105830
    69  H    0.300477
    70  H    0.074597
    71  H    0.078779
    72  H    0.064030
    73  H    0.135437
    74  H    0.109535
    75  H    0.302282
    76  H    0.085716
    77  H    0.101219
    78  H    0.134169
    79  H    0.118416
    80  H    0.072231
    81  H    0.099987
    82  H    0.124525
    83  H    0.117977
    84  H    0.074125
    85  H    0.069623
    86  H    0.074761
    87  H    0.084648
    88  H    0.086377
    89  H    0.130853
    90  H    0.113629
    91  H    0.098334
    92  H    0.076711
    93  H    0.061508
    94  H    0.109224
    95  H    0.081429
    96  H    0.119542
    97  H    0.091261
    98  H    0.070380
 Sum of Mulliken charges =  -0.00000

 Dipole moment (field-independent basis, Debye):
    X=              0.5942    Y=             -0.0260    Z=             -0.1228  Tot=              0.6073
 Quadrupole moment (field-independent basis, Debye-Ang):
   XX=           -273.7307   YY=           -241.9025   ZZ=           -263.1611
   XY=             17.0330   XZ=             32.8592   YZ=              2.6898

 Normal termination of Gaussian 16 at Sun Jul 14 11:19:29 2019.
