 Gaussian 16, Revision A.03,
 Gaussian 16:  ES64L-G16RevA.03 25-Dec-2016

 -------------------------------------
 # td=(NStates=1) CAM-B3LYP/6-31G(d,p)
 -------------------------------------

 --
 TD
 --
 Symbolic Z-matrix:
 Charge =  0 Multiplicity = 1

                         Standard orientation:
 ---------------------------------------------------------------------
 Center     Atomic      Atomic             Coordinates (Angstroms)
 Number     Number       Type             X           Y           Z
 ---------------------------------------------------------------------
      1          8           0      -14.126205   -2.216491    0.410896
      2          8           0       14.979276    0.458895    0.375804
      3          6           0      -11.843318   -0.208614    1.366724
      4          6           0      -11.049900    0.325683    0.030167
      5          6           0      -11.980068   -1.725019    1.334375
      6          6           0      -12.642094   -2.178878    0.119310
      7          6           0      -11.636697   -0.382522   -1.242629
      8          6           0       11.150072    0.987492    1.040311
      9          6           0      -11.135971    0.297000    2.658664
     10          6           0      -13.291013    0.484414    1.349482
     11          6           0       12.678530    1.416453    0.919268
     12          6           0      -12.338408   -1.510276   -1.191041
     13          6           0       13.608995    0.272424    0.457034
     14          6           0       10.801056   -0.075306   -0.006172
     15          6           0       -9.609470   -0.062042    0.074792
     16          6           0       13.130972   -0.394770   -0.815280
     17          6           0       11.572061   -0.593126   -0.916401
     18          6           0       10.311530    2.255002    0.899202
     19          6           0       10.943970    0.338106    2.512790
     20          6           0      -11.350292    0.282586   -2.458716
     21          6           0       -8.607201    0.829073   -0.094350
     22          6           0        9.392137   -0.317886    0.010715
     23          6           0       11.207691   -1.613518   -2.024883
     24          6           0       -7.186186    0.620164   -0.120312
     25          6           0        8.829500   -1.627627    0.022478
     26          6           0       -6.680158   -0.752240    0.144880
     27          6           0        7.450480   -1.969009   -0.062347
     28          6           0       -6.312458    1.729305   -0.224014
     29          6           0        7.175061   -3.495282    0.210600
     30          6           0        6.362525   -1.121739   -0.363225
     31          6           0       -4.863581    1.654036   -0.402887
     32          6           0        5.005433   -1.411806   -0.203992
     33          6           0       -4.033370    2.727272   -0.533594
     34          6           0       -2.564363    2.706733   -0.515264
     35          6           0        4.119703   -0.450904   -0.599048
     36          6           0        2.692624   -0.752301   -0.431314
     37          6           0       -1.986253    4.141325   -0.765040
     38          6           0       -1.831313    1.514599   -0.438407
     39          6           0        1.800520    0.384741   -0.535550
     40          6           0        2.141355   -2.070659   -0.107345
     41          6           0       -0.441521    1.607369   -0.540710
     42          6           0        0.427582    0.447636   -0.454031
     43          1           0      -11.157600    1.364721    0.166245
     44          1           0      -12.509264   -2.302582    2.184641
     45          1           0      -10.821472   -2.108783    1.121265
     46          1           0      -12.377429   -3.296638    0.111037
     47          1           0       -9.965963   -0.032476    2.706034
     48          1           0      -11.313568    1.374769    2.625308
     49          1           0      -11.642510   -0.286858    3.557264
     50          1           0      -13.737724    0.149736    0.528559
     51          1           0      -13.617294    0.310832    2.430637
     52          1           0      -12.916223    1.495851    1.330968
     53          1           0       12.561069    2.144043    0.059974
     54          1           0       13.027153    1.972072    1.790308
     55          1           0      -12.718460   -1.934735   -2.245255
     56          1           0       13.273235   -0.457936    1.216235
     57          1           0       -9.178661   -1.209758    0.305105
     58          1           0       13.823252   -1.230834   -0.984578
     59          1           0       13.319486    0.349474   -1.729671
     60          1           0        9.323425    1.971740    1.279123
     61          1           0       10.279441    2.675364   -0.185258
     62          1           0       10.516672    3.192512    1.467008
     63          1           0       11.642142   -0.463876    2.567238
     64          1           0        9.946687   -0.057235    2.507198
     65          1           0       10.971613    1.026715    3.351887
     66          1           0      -10.237444    0.444718   -2.397669
     67          1           0      -11.752146    1.261573   -2.475899
     68          1           0      -11.977034   -0.275537   -3.336704
     69          1           0      -14.677929   -1.836705   -0.422855
     70          1           0        8.581580    0.599011    0.170542
     71          1           0       -9.278711    1.919827   -0.472505
     72          1           0       11.555212   -2.718967   -1.890656
     73          1           0       10.071826   -1.569252   -2.101295
     74          1           0       11.631510   -1.139487   -2.995079
     75          1           0       15.082749    1.032184    1.070435
     76          1           0        9.627070   -2.295139    0.250103
     77          1           0       -5.648247   -0.758356    0.195545
     78          1           0       -7.142216   -1.076272    1.002919
     79          1           0       -7.103609   -1.520052   -0.594811
     80          1           0       -6.977804    2.559035   -0.307187
     81          1           0        6.397755   -3.585679    1.100063
     82          1           0        6.803279   -3.923957   -0.922216
     83          1           0        8.218981   -4.228380    0.612906
     84          1           0        6.526753   -0.067575   -0.517808
     85          1           0       -4.507021    0.551323   -0.197008
     86          1           0        4.549048   -2.427033    0.013838
     87          1           0       -4.583750    3.669117   -0.966126
     88          1           0        4.253746    0.483120   -0.952120
     89          1           0       -1.429316    4.295641   -1.897735
     90          1           0       -1.298533    4.478704    0.047500
     91          1           0       -2.655086    4.890953   -0.938256
     92          1           0       -2.311579    0.533680   -0.335275
     93          1           0        2.145077    1.498206   -0.941481
     94          1           0        2.405607   -2.290337    1.183564
     95          1           0        1.216324   -1.980197   -0.118901
     96          1           0        2.514237   -2.999263   -0.757836
     97          1           0        0.037997    2.534244   -0.979343
     98          1           0       -0.099888   -0.491836   -0.208952
 ---------------------------------------------------------------------

 SCF Done:  E(RCAM-B3LYP) =  -1706.85566862     A.U. after   15 cycles

 Excitation energies and oscillator strengths:

 Excited State   1:      Singlet-A      2.0011 eV  619.58 nm  f=3.0843  <S**2>=0.000
     155 ->158         0.14813
     156 ->157         0.69370
 This state for optimization and/or second-order correction.
 Total Energy, E(TD-HF/TD-DFT) =  -1706.78213006
 Copying the excited state density for this state as the 1-particle RhoCI density.

 The electronic state is 1-A.
 Alpha  occ. eigenvalues --  -19.21792 -19.20676 -10.30602 -10.30128 -10.30106
 Alpha  occ. eigenvalues --  -10.28702 -10.28643 -10.28455 -10.28247 -10.28083
 Alpha  occ. eigenvalues --  -10.28055 -10.27990 -10.27897 -10.27785 -10.27774
 Alpha  occ. eigenvalues --  -10.27548 -10.27421 -10.27389 -10.27368 -10.27361
 Alpha  occ. eigenvalues --  -10.27299 -10.27210 -10.27177 -10.26990 -10.26871
 Alpha  occ. eigenvalues --  -10.26808 -10.26724 -10.26589 -10.26575 -10.26267
 Alpha  occ. eigenvalues --  -10.26153 -10.26135 -10.26003 -10.25989 -10.25968
 Alpha  occ. eigenvalues --  -10.25798 -10.25760 -10.25677 -10.25639 -10.25091
 Alpha  occ. eigenvalues --  -10.24305 -10.23385  -1.12861  -1.04619  -0.93899
 Alpha  occ. eigenvalues --   -0.93836  -0.91974  -0.91430  -0.90374  -0.89208
 Alpha  occ. eigenvalues --   -0.87743  -0.86878  -0.86228  -0.85541  -0.84648
 Alpha  occ. eigenvalues --   -0.83416  -0.82307  -0.81305  -0.78923  -0.78706
 Alpha  occ. eigenvalues --   -0.77271  -0.76412  -0.76276  -0.76219  -0.75346
 Alpha  occ. eigenvalues --   -0.75230  -0.74726  -0.74422  -0.72073  -0.69641
 Alpha  occ. eigenvalues --   -0.68292  -0.67107  -0.66045  -0.64985  -0.63812
 Alpha  occ. eigenvalues --   -0.62365  -0.61935  -0.61374  -0.60827  -0.59852
 Alpha  occ. eigenvalues --   -0.58830  -0.58408  -0.57831  -0.56500  -0.55790
 Alpha  occ. eigenvalues --   -0.55172  -0.55027  -0.54676  -0.54093  -0.53431
 Alpha  occ. eigenvalues --   -0.53204  -0.52693  -0.52504  -0.52120  -0.51228
 Alpha  occ. eigenvalues --   -0.50305  -0.50112  -0.49301  -0.49125  -0.48831
 Alpha  occ. eigenvalues --   -0.48686  -0.48361  -0.48225  -0.48059  -0.47857
 Alpha  occ. eigenvalues --   -0.47546  -0.46985  -0.46760  -0.46622  -0.46219
 Alpha  occ. eigenvalues --   -0.46079  -0.45816  -0.45627  -0.45326  -0.45234
 Alpha  occ. eigenvalues --   -0.44856  -0.44806  -0.44325  -0.43640  -0.43214
 Alpha  occ. eigenvalues --   -0.43042  -0.43007  -0.42753  -0.42468  -0.42277
 Alpha  occ. eigenvalues --   -0.41582  -0.41480  -0.41185  -0.40960  -0.40631
 Alpha  occ. eigenvalues --   -0.40346  -0.40049  -0.39947  -0.39388  -0.39071
 Alpha  occ. eigenvalues --   -0.38836  -0.38587  -0.38187  -0.38140  -0.37707
 Alpha  occ. eigenvalues --   -0.37641  -0.37311  -0.36435  -0.35863  -0.35476
 Alpha  occ. eigenvalues --   -0.34433  -0.34005  -0.33706  -0.31903  -0.31629
 Alpha  occ. eigenvalues --   -0.31513  -0.29911  -0.29721  -0.26646  -0.23691
 Alpha  occ. eigenvalues --   -0.19116
 Alpha virt. eigenvalues --   -0.06486  -0.01666   0.01581   0.05281   0.06680
 Alpha virt. eigenvalues --    0.08218   0.09640   0.10515   0.10992   0.11507
 Alpha virt. eigenvalues --    0.11748   0.12281   0.12731   0.12922   0.13206

 Mulliken charges:
               1
     1  O   -0.583958
     2  O   -0.518466
     3  C   -0.014033
     4  C   -0.161236
     5  C   -0.150724
     6  C    0.157781
     7  C    0.160007
     8  C   -0.030031
     9  C   -0.288642
    10  C   -0.255517
    11  C   -0.210236
    12  C   -0.177937
    13  C    0.161783
    14  C    0.089851
    15  C   -0.063614
    16  C   -0.215485
    17  C    0.044086
    18  C   -0.309514
    19  C   -0.315588
    20  C   -0.355665
    21  C   -0.089471
    22  C   -0.136298
    23  C   -0.350268
    24  C    0.079511
    25  C   -0.119517
    26  C   -0.369335
    27  C    0.078633
    28  C   -0.101421
    29  C   -0.333177
    30  C   -0.117183
    31  C   -0.075575
    32  C   -0.084825
    33  C   -0.131946
    34  C    0.076735
    35  C   -0.063236
    36  C    0.076672
    37  C   -0.357289
    38  C   -0.091723
    39  C   -0.126609
    40  C   -0.323465
    41  C   -0.098704
    42  C   -0.096968
    43  H    0.102434
    44  H    0.114243
    45  H    0.061349
    46  H    0.085665
    47  H    0.088468
    48  H    0.098237
    49  H    0.091980
    50  H    0.101338
    51  H    0.102974
    52  H    0.079909
    53  H    0.085487
    54  H    0.085523
    55  H    0.080155
    56  H    0.064742
    57  H    0.077198
    58  H    0.120021
    59  H    0.084947
    60  H    0.104256
    61  H    0.098633
    62  H    0.104032
    63  H    0.111895
    64  H    0.111811
    65  H    0.103256
    66  H    0.125019
    67  H    0.124074
    68  H    0.088916
    69  H    0.302491
    70  H    0.082362
    71  H    0.044677
    72  H    0.115236
    73  H    0.121417
    74  H    0.102600
    75  H    0.300023
    76  H    0.097720
    77  H    0.109378
    78  H    0.136245
    79  H    0.111287
    80  H    0.080435
    81  H    0.116358
    82  H    0.104184
    83  H    0.073270
    84  H    0.084953
    85  H    0.075425
    86  H    0.099076
    87  H    0.091734
    88  H    0.082026
    89  H    0.079607
    90  H    0.126465
    91  H    0.125981
    92  H    0.097503
    93  H    0.063403
    94  H    0.073679
    95  H    0.115029
    96  H    0.115623
    97  H    0.095004
    98  H    0.072844
 Sum of Mulliken charges =  -0.00000

 Dipole moment (field-independent basis, Debye):
    X=              0.1681    Y=              1.2937    Z=             -0.4271  Tot=              1.3727
 Quadrupole moment (field-independent basis, Debye-Ang):
   XX=           -303.2438   YY=           -249.2648   ZZ=           -263.5012
   XY=             -4.2769   XZ=             36.9276   YZ=              0.5218

 Normal termination of Gaussian 16 at Sun Jul 14 12:06:47 2019.
