 Gaussian 16, Revision A.03,
 Gaussian 16:  ES64L-G16RevA.03 25-Dec-2016

 -------------------------------------
 # td=(NStates=1) CAM-B3LYP/6-31G(d,p)
 -------------------------------------

 --
 TD
 --
 Symbolic Z-matrix:
 Charge =  0 Multiplicity = 1

                         Standard orientation:
 ---------------------------------------------------------------------
 Center     Atomic      Atomic             Coordinates (Angstroms)
 Number     Number       Type             X           Y           Z
 ---------------------------------------------------------------------
      1          8           0      -14.206292   -2.012935    0.594353
      2          8           0       14.808270    0.960694    0.293040
      3          6           0      -11.658026   -0.067396    1.335205
      4          6           0      -10.985778    0.301888    0.071013
      5          6           0      -12.002170   -1.619905    1.465394
      6          6           0      -12.763959   -2.183612    0.288552
      7          6           0      -11.589086   -0.437864   -1.174064
      8          6           0       11.094073    0.859739    1.040624
      9          6           0      -10.867801    0.484816    2.537703
     10          6           0      -13.065103    0.702614    1.337476
     11          6           0       12.477352    1.462712    0.742484
     12          6           0      -12.481687   -1.410682   -1.100171
     13          6           0       13.500494    0.428081    0.433416
     14          6           0       10.727961   -0.014390   -0.042290
     15          6           0       -9.547320   -0.066886   -0.047928
     16          6           0       13.087808   -0.247813   -0.834231
     17          6           0       11.551722   -0.604943   -0.942953
     18          6           0       10.214467    2.169738    1.121871
     19          6           0       11.025265    0.168143    2.443363
     20          6           0      -11.357452    0.286899   -2.555502
     21          6           0       -8.538555    0.839316   -0.149304
     22          6           0        9.282881   -0.449429   -0.009751
     23          6           0       11.172209   -1.364658   -2.220930
     24          6           0       -7.126166    0.543055   -0.306814
     25          6           0        8.791399   -1.662299   -0.115208
     26          6           0       -6.708677   -0.804272    0.007019
     27          6           0        7.413166   -2.111952   -0.121794
     28          6           0       -6.273542    1.542776   -0.543739
     29          6           0        7.187171   -3.591354    0.226393
     30          6           0        6.471769   -1.152476   -0.291336
     31          6           0       -4.854449    1.409351   -0.481322
     32          6           0        5.001465   -1.445367   -0.186096
     33          6           0       -4.078632    2.568242   -0.574191
     34          6           0       -2.613992    2.564223   -0.571801
     35          6           0        4.017144   -0.443287   -0.326978
     36          6           0        2.614915   -0.737495   -0.265847
     37          6           0       -1.959716    3.990566   -0.785261
     38          6           0       -1.757435    1.539882   -0.331850
     39          6           0        1.746830    0.306892   -0.408916
     40          6           0        2.185646   -2.208318   -0.092038
     41          6           0       -0.395696    1.468502   -0.413572
     42          6           0        0.340004    0.308293   -0.186207
     43          1           0      -11.048059    1.480888   -0.273036
     44          1           0      -12.519847   -1.784000    2.470265
     45          1           0      -10.910047   -1.963531    1.335444
     46          1           0      -12.395078   -2.980580   -0.008588
     47          1           0      -10.030168   -0.399360    2.661983
     48          1           0      -10.378837    1.565562    2.459733
     49          1           0      -11.603662    0.748442    3.559042
     50          1           0      -13.595657    0.566721    0.265209
     51          1           0      -13.600114    0.359377    2.278132
     52          1           0      -12.824970    1.704389    1.484404
     53          1           0       12.564520    2.097532   -0.175538
     54          1           0       12.787063    2.044631    1.681539
     55          1           0      -13.064176   -1.867515   -1.849619
     56          1           0       13.463396   -0.384787    1.200897
     57          1           0       -9.337929   -1.108287    0.017299
     58          1           0       13.803344   -1.096577   -0.993498
     59          1           0       13.330520    0.618335   -1.503121
     60          1           0        9.240809    1.847550    1.474692
     61          1           0       10.341954    2.743042    0.112804
     62          1           0       10.642160    2.798029    1.745588
     63          1           0       11.871864   -0.627047    2.590568
     64          1           0        9.927260   -0.145870    2.701276
     65          1           0       11.387778    0.955400    3.382913
     66          1           0      -10.279985    0.598863   -2.859652
     67          1           0      -11.804268    1.342451   -2.763826
     68          1           0      -11.705171   -0.485572   -3.373462
     69          1           0      -14.744685   -1.814816   -0.419346
     70          1           0        8.689533    0.431522    0.201404
     71          1           0       -8.788243    1.816265   -0.613552
     72          1           0       11.177100   -2.393389   -2.209558
     73          1           0       10.152428   -1.334816   -2.513759
     74          1           0       11.658161   -0.936364   -3.046487
     75          1           0       14.984365    1.353771    1.121170
     76          1           0        9.493743   -2.511390   -0.213901
     77          1           0       -5.577970   -0.843767    0.026348
     78          1           0       -7.183171   -1.403335    1.070396
     79          1           0       -7.104081   -1.607162   -0.742883
     80          1           0       -6.667491    2.507369   -1.026314
     81          1           0        7.076688   -3.665424    1.457986
     82          1           0        6.331711   -4.089841   -0.304414
     83          1           0        7.967036   -4.266396    0.134034
     84          1           0        6.766377   -0.140083   -0.371606
     85          1           0       -4.500652    0.420071   -0.178254
     86          1           0        4.524767   -2.298452    0.144083
     87          1           0       -4.445919    3.549864   -0.705812
     88          1           0        4.399258    0.473922   -0.766076
     89          1           0       -1.369003    4.059310   -1.775983
     90          1           0       -1.178999    4.184496    0.024940
     91          1           0       -2.834196    4.688394   -0.761165
     92          1           0       -2.270755    0.600668   -0.017228
     93          1           0        2.185192    1.289518   -0.618341
     94          1           0        2.351466   -2.424477    1.151635
     95          1           0        1.089818   -2.496254   -0.418546
     96          1           0        2.930293   -2.989320   -0.570595
     97          1           0        0.394589    2.221608   -0.789036
     98          1           0       -0.256896   -0.519637    0.187777
 ---------------------------------------------------------------------

 SCF Done:  E(RCAM-B3LYP) =  -1706.92856681     A.U. after   14 cycles

 Excitation energies and oscillator strengths:

 Excited State   1:      Singlet-A      2.3695 eV  523.25 nm  f=2.9572  <S**2>=0.000
     155 ->158         0.15018
     156 ->157         0.68938
 This state for optimization and/or second-order correction.
 Total Energy, E(TD-HF/TD-DFT) =  -1706.84148970
 Copying the excited state density for this state as the 1-particle RhoCI density.

 The electronic state is 1-A.
 Alpha  occ. eigenvalues --  -19.22823 -19.21074 -10.30078 -10.29268 -10.29239
 Alpha  occ. eigenvalues --  -10.28264 -10.28099 -10.28082 -10.28004 -10.27974
 Alpha  occ. eigenvalues --  -10.27740 -10.27632 -10.27453 -10.27377 -10.27228
 Alpha  occ. eigenvalues --  -10.27210 -10.27210 -10.27133 -10.27057 -10.27032
 Alpha  occ. eigenvalues --  -10.26836 -10.26665 -10.26621 -10.26591 -10.26457
 Alpha  occ. eigenvalues --  -10.26339 -10.26184 -10.26126 -10.26035 -10.25990
 Alpha  occ. eigenvalues --  -10.25950 -10.25884 -10.25791 -10.25573 -10.25567
 Alpha  occ. eigenvalues --  -10.25423 -10.25197 -10.25140 -10.25111 -10.24523
 Alpha  occ. eigenvalues --  -10.24043 -10.23676  -1.10430  -1.05178  -0.94206
 Alpha  occ. eigenvalues --   -0.93713  -0.92247  -0.91588  -0.90671  -0.89756
 Alpha  occ. eigenvalues --   -0.87053  -0.86194  -0.85900  -0.85418  -0.84832
 Alpha  occ. eigenvalues --   -0.83007  -0.81612  -0.80397  -0.79848  -0.77582
 Alpha  occ. eigenvalues --   -0.77222  -0.75666  -0.75555  -0.75287  -0.74847
 Alpha  occ. eigenvalues --   -0.74804  -0.74511  -0.73490  -0.73085  -0.70285
 Alpha  occ. eigenvalues --   -0.69192  -0.68377  -0.66690  -0.65050  -0.64010
 Alpha  occ. eigenvalues --   -0.63324  -0.62524  -0.62207  -0.60945  -0.60233
 Alpha  occ. eigenvalues --   -0.59156  -0.58919  -0.58133  -0.56782  -0.56036
 Alpha  occ. eigenvalues --   -0.55689  -0.55070  -0.54726  -0.54486  -0.53595
 Alpha  occ. eigenvalues --   -0.53152  -0.52606  -0.52481  -0.52087  -0.50872
 Alpha  occ. eigenvalues --   -0.50423  -0.50069  -0.49515  -0.49051  -0.48582
 Alpha  occ. eigenvalues --   -0.48171  -0.47805  -0.47612  -0.47293  -0.46807
 Alpha  occ. eigenvalues --   -0.46768  -0.46361  -0.46305  -0.46138  -0.46006
 Alpha  occ. eigenvalues --   -0.45696  -0.45518  -0.45346  -0.44788  -0.44659
 Alpha  occ. eigenvalues --   -0.44263  -0.44148  -0.44008  -0.43820  -0.43537
 Alpha  occ. eigenvalues --   -0.43258  -0.42885  -0.42371  -0.42088  -0.41882
 Alpha  occ. eigenvalues --   -0.41743  -0.41311  -0.41182  -0.40797  -0.40734
 Alpha  occ. eigenvalues --   -0.40459  -0.40321  -0.40248  -0.39644  -0.39341
 Alpha  occ. eigenvalues --   -0.38871  -0.38506  -0.38003  -0.37872  -0.37803
 Alpha  occ. eigenvalues --   -0.37634  -0.37085  -0.36541  -0.36394  -0.35435
 Alpha  occ. eigenvalues --   -0.35124  -0.33857  -0.33457  -0.32114  -0.31938
 Alpha  occ. eigenvalues --   -0.31614  -0.30429  -0.28998  -0.27008  -0.24252
 Alpha  occ. eigenvalues --   -0.20024
 Alpha virt. eigenvalues --   -0.05252  -0.00657   0.02677   0.04798   0.06385
 Alpha virt. eigenvalues --    0.08218   0.09807   0.10540   0.11169   0.11804
 Alpha virt. eigenvalues --    0.11993   0.12472   0.12977   0.13050   0.13363

 Mulliken charges:
               1
     1  O   -0.559399
     2  O   -0.547583
     3  C    0.019189
     4  C   -0.120810
     5  C   -0.190438
     6  C    0.210617
     7  C    0.117921
     8  C   -0.038585
     9  C   -0.277473
    10  C   -0.272697
    11  C   -0.183783
    12  C   -0.203610
    13  C    0.143168
    14  C    0.089735
    15  C   -0.065151
    16  C   -0.226239
    17  C    0.038676
    18  C   -0.284205
    19  C   -0.283507
    20  C   -0.358103
    21  C   -0.106884
    22  C   -0.118767
    23  C   -0.367828
    24  C    0.145122
    25  C   -0.105283
    26  C   -0.366185
    27  C    0.111321
    28  C   -0.118298
    29  C   -0.363888
    30  C   -0.128899
    31  C   -0.078408
    32  C   -0.092738
    33  C   -0.111147
    34  C    0.076999
    35  C   -0.124285
    36  C    0.128897
    37  C   -0.364848
    38  C   -0.130594
    39  C   -0.148853
    40  C   -0.366049
    41  C   -0.062833
    42  C   -0.069935
    43  H    0.086268
    44  H    0.123623
    45  H    0.074463
    46  H    0.105741
    47  H    0.082166
    48  H    0.105537
    49  H    0.065761
    50  H    0.084912
    51  H    0.095100
    52  H    0.094131
    53  H    0.099462
    54  H    0.065098
    55  H    0.088452
    56  H    0.064952
    57  H    0.091132
    58  H    0.106555
    59  H    0.106974
    60  H    0.100039
    61  H    0.093514
    62  H    0.114709
    63  H    0.105885
    64  H    0.113344
    65  H    0.059234
    66  H    0.107463
    67  H    0.108569
    68  H    0.095734
    69  H    0.298766
    70  H    0.079976
    71  H    0.070403
    72  H    0.121317
    73  H    0.120659
    74  H    0.119868
    75  H    0.303054
    76  H    0.074599
    77  H    0.097226
    78  H    0.080994
    79  H    0.116912
    80  H    0.084736
    81  H    0.099784
    82  H    0.115995
    83  H    0.124897
    84  H    0.092320
    85  H    0.096768
    86  H    0.075948
    87  H    0.086379
    88  H    0.084303
    89  H    0.114577
    90  H    0.120422
    91  H    0.097292
    92  H    0.070036
    93  H    0.084985
    94  H    0.093760
    95  H    0.113773
    96  H    0.117326
    97  H    0.077946
    98  H    0.081822
 Sum of Mulliken charges =  -0.00000

 Dipole moment (field-independent basis, Debye):
    X=             -0.5625    Y=             -0.4546    Z=             -0.7112  Tot=              1.0143
 Quadrupole moment (field-independent basis, Debye-Ang):
   XX=           -292.1452   YY=           -245.7131   ZZ=           -262.5641
   XY=             -2.0298   XZ=             43.6158   YZ=              2.7014

 Normal termination of Gaussian 16 at Sat Jul 13 22:18:36 2019.
