 Gaussian 16, Revision A.03,
 Gaussian 16:  ES64L-G16RevA.03 25-Dec-2016

 -------------------------------------
 # td=(NStates=1) CAM-B3LYP/6-31G(d,p)
 -------------------------------------

 --
 TD
 --
 Symbolic Z-matrix:
 Charge =  0 Multiplicity = 1

                         Standard orientation:
 ---------------------------------------------------------------------
 Center     Atomic      Atomic             Coordinates (Angstroms)
 Number     Number       Type             X           Y           Z
 ---------------------------------------------------------------------
      1          8           0      -14.243952   -1.855832    0.478963
      2          8           0       14.769164    0.968779    0.118333
      3          6           0      -11.779844    0.199810    1.244312
      4          6           0      -10.973301    0.301747   -0.053840
      5          6           0      -12.069480   -1.358190    1.483885
      6          6           0      -12.874652   -2.041726    0.423682
      7          6           0      -11.586093   -0.433386   -1.259333
      8          6           0       11.113661    1.052942    1.038225
      9          6           0      -10.949092    0.728865    2.483244
     10          6           0      -13.026161    0.872930    1.197964
     11          6           0       12.547168    1.503354    0.731899
     12          6           0      -12.343653   -1.543435   -0.993962
     13          6           0       13.522491    0.401468    0.387557
     14          6           0       10.615891    0.010263   -0.012001
     15          6           0       -9.511116   -0.110913    0.019772
     16          6           0       12.961848   -0.152517   -0.896576
     17          6           0       11.518177   -0.426446   -0.940963
     18          6           0       10.126407    2.278119    0.876951
     19          6           0       11.082570    0.480346    2.481217
     20          6           0      -11.282678    0.104313   -2.642403
     21          6           0       -8.565400    0.776112   -0.151915
     22          6           0        9.256342   -0.472451    0.033085
     23          6           0       11.048965   -1.345218   -2.066774
     24          6           0       -7.166970    0.520880   -0.033643
     25          6           0        8.793458   -1.726186    0.023097
     26          6           0       -6.719450   -0.963041    0.018132
     27          6           0        7.442092   -2.175674    0.030980
     28          6           0       -6.200413    1.464992   -0.373538
     29          6           0        7.338438   -3.691214    0.332276
     30          6           0        6.412941   -1.286166   -0.073436
     31          6           0       -4.796575    1.281654   -0.339762
     32          6           0        5.001032   -1.574604   -0.090958
     33          6           0       -3.936437    2.391563   -0.565245
     34          6           0       -2.496836    2.493109   -0.664482
     35          6           0        4.016441   -0.630729   -0.231476
     36          6           0        2.610723   -0.809760   -0.320849
     37          6           0       -2.020772    3.930000   -0.893910
     38          6           0       -1.668370    1.385771   -0.526420
     39          6           0        1.882168    0.247619   -0.404134
     40          6           0        2.077498   -2.186914    0.160454
     41          6           0       -0.316877    1.433589   -0.581393
     42          6           0        0.471998    0.369361   -0.306165
     43          1           0      -10.902090    1.458451   -0.380961
     44          1           0      -12.702656   -1.639434    2.289017
     45          1           0      -11.251579   -1.953466    1.903316
     46          1           0      -12.642631   -3.013404    0.618638
     47          1           0      -10.073961    0.147653    2.584918
     48          1           0      -11.029512    1.732925    2.613339
     49          1           0      -11.605549    0.491382    3.244179
     50          1           0      -13.600709    0.870151    0.160727
     51          1           0      -13.913319    0.577517    1.878347
     52          1           0      -12.881945    1.979632    1.349933
     53          1           0       12.505538    2.152951   -0.274870
     54          1           0       13.008963    2.170729    1.521143
     55          1           0      -12.955276   -2.118168   -1.701209
     56          1           0       13.743584   -0.361895    1.252569
     57          1           0       -9.564720   -1.264955    0.270342
     58          1           0       13.720457   -1.055992   -1.201074
     59          1           0       13.326006    0.533745   -1.733691
     60          1           0        9.361582    1.765218    1.421358
     61          1           0       10.013857    2.461011   -0.116948
     62          1           0       10.406199    3.083691    1.377470
     63          1           0       11.950384   -0.397056    2.690204
     64          1           0        9.972980    0.233105    2.514253
     65          1           0       11.012986    1.211496    3.234062
     66          1           0      -10.042936    0.043939   -2.991550
     67          1           0      -11.571744    1.113871   -3.041350
     68          1           0      -11.704774   -0.445621   -3.361075
     69          1           0      -14.546325   -1.991904   -0.427946
     70          1           0        8.524889    0.366985    0.308094
     71          1           0       -8.666411    1.825851   -0.697699
     72          1           0       11.223258   -2.510789   -1.939972
     73          1           0        9.977996   -1.385298   -2.258825
     74          1           0       11.490603   -1.135812   -3.069461
     75          1           0       15.105054    1.444738    0.991023
     76          1           0        9.608253   -2.560608   -0.321799
     77          1           0       -5.650477   -1.060793    0.412909
     78          1           0       -7.273788   -1.628158    0.884513
     79          1           0       -6.827601   -1.388477   -1.132432
     80          1           0       -6.561877    2.424304   -0.588809
     81          1           0        6.850814   -4.042809    1.331826
     82          1           0        6.669406   -4.315001   -0.465651
     83          1           0        8.450776   -4.127293    0.163101
     84          1           0        6.879029   -0.303168   -0.250194
     85          1           0       -4.477802    0.295236   -0.256047
     86          1           0        4.663465   -2.560877    0.152757
     87          1           0       -4.199226    3.281180   -0.707790
     88          1           0        4.399200    0.339062   -0.350530
     89          1           0       -1.538207    4.066702   -1.897631
     90          1           0       -1.426075    4.171481   -0.001275
     91          1           0       -2.797606    4.616687   -0.721644
     92          1           0       -2.058450    0.330377   -0.559020
     93          1           0        2.394749    1.274113   -0.573959
     94          1           0        2.117306   -2.379773    1.168853
     95          1           0        1.029291   -2.334931    0.032669
     96          1           0        2.397820   -3.006552   -0.655593
     97          1           0        0.247197    2.389740   -0.912051
     98          1           0       -0.122932   -0.576693    0.181806
 ---------------------------------------------------------------------

 SCF Done:  E(RCAM-B3LYP) =  -1706.91764600     A.U. after   14 cycles

 Excitation energies and oscillator strengths:

 Excited State   1:      Singlet-A      2.3522 eV  527.10 nm  f=3.1273  <S**2>=0.000
     155 ->158         0.16685
     156 ->157         0.68562
 This state for optimization and/or second-order correction.
 Total Energy, E(TD-HF/TD-DFT) =  -1706.83120523
 Copying the excited state density for this state as the 1-particle RhoCI density.

 The electronic state is 1-A.
 Alpha  occ. eigenvalues --  -19.21647 -19.21295 -10.30368 -10.29897 -10.28301
 Alpha  occ. eigenvalues --  -10.28261 -10.27946 -10.27443 -10.27437 -10.27148
 Alpha  occ. eigenvalues --  -10.26896 -10.26863 -10.26856 -10.26823 -10.26776
 Alpha  occ. eigenvalues --  -10.26770 -10.26621 -10.26609 -10.26600 -10.26533
 Alpha  occ. eigenvalues --  -10.26505 -10.26267 -10.26221 -10.26204 -10.26083
 Alpha  occ. eigenvalues --  -10.25991 -10.25967 -10.25929 -10.25865 -10.25849
 Alpha  occ. eigenvalues --  -10.25819 -10.25816 -10.25770 -10.25611 -10.25357
 Alpha  occ. eigenvalues --  -10.25325 -10.25254 -10.25189 -10.24336 -10.24125
 Alpha  occ. eigenvalues --  -10.22772 -10.22284  -1.11320  -1.08902  -0.93431
 Alpha  occ. eigenvalues --   -0.93386  -0.92631  -0.91627  -0.90555  -0.90144
 Alpha  occ. eigenvalues --   -0.87489  -0.86643  -0.86513  -0.85394  -0.84684
 Alpha  occ. eigenvalues --   -0.83080  -0.82579  -0.80322  -0.79379  -0.78642
 Alpha  occ. eigenvalues --   -0.76779  -0.76536  -0.76391  -0.75806  -0.75330
 Alpha  occ. eigenvalues --   -0.75009  -0.74628  -0.74555  -0.73602  -0.70560
 Alpha  occ. eigenvalues --   -0.69075  -0.67474  -0.66753  -0.64258  -0.64103
 Alpha  occ. eigenvalues --   -0.63417  -0.63331  -0.62018  -0.60341  -0.59773
 Alpha  occ. eigenvalues --   -0.59183  -0.58529  -0.57917  -0.57148  -0.56132
 Alpha  occ. eigenvalues --   -0.55283  -0.54937  -0.54655  -0.54275  -0.54175
 Alpha  occ. eigenvalues --   -0.53313  -0.52882  -0.52544  -0.52239  -0.51639
 Alpha  occ. eigenvalues --   -0.51349  -0.50344  -0.50211  -0.50119  -0.49788
 Alpha  occ. eigenvalues --   -0.49009  -0.48747  -0.48367  -0.47825  -0.47323
 Alpha  occ. eigenvalues --   -0.46811  -0.46779  -0.46704  -0.46425  -0.45883
 Alpha  occ. eigenvalues --   -0.45600  -0.45395  -0.45275  -0.44829  -0.44207
 Alpha  occ. eigenvalues --   -0.44028  -0.43972  -0.43894  -0.43815  -0.43001
 Alpha  occ. eigenvalues --   -0.42763  -0.42613  -0.42415  -0.42111  -0.41865
 Alpha  occ. eigenvalues --   -0.41457  -0.41031  -0.40608  -0.40474  -0.40256
 Alpha  occ. eigenvalues --   -0.40228  -0.39949  -0.39515  -0.39249  -0.39114
 Alpha  occ. eigenvalues --   -0.39017  -0.38454  -0.38084  -0.37746  -0.37587
 Alpha  occ. eigenvalues --   -0.37300  -0.37027  -0.36285  -0.35985  -0.35541
 Alpha  occ. eigenvalues --   -0.35019  -0.34481  -0.33500  -0.32351  -0.31722
 Alpha  occ. eigenvalues --   -0.31057  -0.29753  -0.28905  -0.27099  -0.23608
 Alpha  occ. eigenvalues --   -0.20107
 Alpha virt. eigenvalues --   -0.05416  -0.01208   0.02959   0.05050   0.06638
 Alpha virt. eigenvalues --    0.08934   0.10590   0.10847   0.11552   0.11974
 Alpha virt. eigenvalues --    0.12137   0.12371   0.13052   0.13304   0.14183

 Mulliken charges:
               1
     1  O   -0.531900
     2  O   -0.564549
     3  C    0.052927
     4  C   -0.143510
     5  C   -0.230912
     6  C    0.177515
     7  C    0.130208
     8  C   -0.045203
     9  C   -0.302472
    10  C   -0.305950
    11  C   -0.182779
    12  C   -0.180397
    13  C    0.198586
    14  C    0.065985
    15  C   -0.065878
    16  C   -0.249733
    17  C    0.094503
    18  C   -0.289507
    19  C   -0.291865
    20  C   -0.355406
    21  C   -0.095980
    22  C   -0.142346
    23  C   -0.377778
    24  C    0.086780
    25  C   -0.095248
    26  C   -0.347269
    27  C    0.113204
    28  C   -0.105910
    29  C   -0.361796
    30  C   -0.112194
    31  C   -0.062440
    32  C   -0.097595
    33  C   -0.060185
    34  C    0.040046
    35  C   -0.098530
    36  C    0.119331
    37  C   -0.379787
    38  C   -0.119499
    39  C   -0.116054
    40  C   -0.378012
    41  C   -0.056541
    42  C   -0.105454
    43  H    0.069964
    44  H    0.106696
    45  H    0.091653
    46  H    0.084198
    47  H    0.109843
    48  H    0.103743
    49  H    0.106375
    50  H    0.089102
    51  H    0.113634
    52  H    0.081097
    53  H    0.079839
    54  H    0.061778
    55  H    0.059782
    56  H    0.063013
    57  H    0.105306
    58  H    0.091373
    59  H    0.125360
    60  H    0.095643
    61  H    0.118415
    62  H    0.106604
    63  H    0.093530
    64  H    0.094450
    65  H    0.109121
    66  H    0.080313
    67  H    0.118050
    68  H    0.125847
    69  H    0.309049
    70  H    0.082974
    71  H    0.088205
    72  H    0.093573
    73  H    0.126629
    74  H    0.100315
    75  H    0.306621
    76  H    0.078299
    77  H    0.103011
    78  H    0.088592
    79  H    0.114188
    80  H    0.074241
    81  H    0.120731
    82  H    0.093605
    83  H    0.095689
    84  H    0.080480
    85  H    0.083457
    86  H    0.086175
    87  H    0.041437
    88  H    0.073868
    89  H    0.131328
    90  H    0.130090
    91  H    0.118705
    92  H    0.090623
    93  H    0.078293
    94  H    0.140299
    95  H    0.110449
    96  H    0.102441
    97  H    0.081687
    98  H    0.063811
 Sum of Mulliken charges =  -0.00000

 Dipole moment (field-independent basis, Debye):
    X=             -1.5207    Y=              0.4564    Z=              0.0424  Tot=              1.5883
 Quadrupole moment (field-independent basis, Debye-Ang):
   XX=           -284.4556   YY=           -244.1056   ZZ=           -258.5181
   XY=             10.0394   XZ=             37.9379   YZ=              0.5123

 Normal termination of Gaussian 16 at Sun Jul 14 03:42:03 2019.
