 Gaussian 16, Revision A.03,
 Gaussian 16:  ES64L-G16RevA.03 25-Dec-2016

 -------------------------------------
 # td=(NStates=1) CAM-B3LYP/6-31G(d,p)
 -------------------------------------

 --
 TD
 --
 Symbolic Z-matrix:
 Charge =  0 Multiplicity = 1

                         Standard orientation:
 ---------------------------------------------------------------------
 Center     Atomic      Atomic             Coordinates (Angstroms)
 Number     Number       Type             X           Y           Z
 ---------------------------------------------------------------------
      1          8           0      -14.008900   -1.988962    0.305577
      2          8           0       14.694153    0.816437    0.155389
      3          6           0      -11.662970   -0.140310    1.364781
      4          6           0      -10.944227    0.273453    0.057119
      5          6           0      -11.865795   -1.667906    1.300517
      6          6           0      -12.601795   -2.131495    0.079623
      7          6           0      -11.657720   -0.258619   -1.205642
      8          6           0       11.077971    0.874822    1.094289
      9          6           0      -10.906659    0.257553    2.517921
     10          6           0      -13.016634    0.517689    1.421078
     11          6           0       12.529137    1.354787    0.824278
     12          6           0      -12.286134   -1.476403   -1.207907
     13          6           0       13.432718    0.204525    0.335437
     14          6           0       10.640181    0.029433   -0.037624
     15          6           0       -9.520050   -0.102715   -0.108346
     16          6           0       12.974295   -0.141893   -0.995089
     17          6           0       11.492829   -0.501369   -0.950962
     18          6           0       10.092555    2.154829    1.189203
     19          6           0       10.951768    0.149087    2.493637
     20          6           0      -11.353773    0.427429   -2.514208
     21          6           0       -8.549228    0.837945   -0.230178
     22          6           0        9.223985   -0.379002   -0.092797
     23          6           0       11.045947   -1.253078   -2.222305
     24          6           0       -7.095725    0.580298   -0.126718
     25          6           0        8.802202   -1.601433   -0.231054
     26          6           0       -6.601172   -0.939687    0.087451
     27          6           0        7.436143   -2.057365   -0.203434
     28          6           0       -6.211997    1.656980   -0.262152
     29          6           0        7.087797   -3.566718    0.159888
     30          6           0        6.385025   -1.259793   -0.220530
     31          6           0       -4.823055    1.553139   -0.284464
     32          6           0        5.024202   -1.574433    0.019190
     33          6           0       -4.024780    2.710236   -0.514482
     34          6           0       -2.621729    2.703946   -0.546636
     35          6           0        4.036374   -0.576461   -0.233586
     36          6           0        2.642952   -0.766563   -0.269767
     37          6           0       -1.935267    4.053841   -0.875553
     38          6           0       -1.721186    1.650944   -0.326078
     39          6           0        1.808851    0.345527   -0.294905
     40          6           0        1.962779   -2.134982   -0.038252
     41          6           0       -0.323940    1.541271   -0.250745
     42          6           0        0.425829    0.432427   -0.172724
     43          1           0      -11.069148    1.313054   -0.053131
     44          1           0      -12.271930   -2.080278    2.231876
     45          1           0      -10.844296   -2.144886    1.388969
     46          1           0      -12.385532   -3.255974   -0.037483
     47          1           0       -9.915479   -0.353565    2.565213
     48          1           0      -10.599452    1.219929    2.614356
     49          1           0      -11.383132    0.003798    3.450410
     50          1           0      -13.824560    0.254157    0.767454
     51          1           0      -13.729638    0.441303    2.330455
     52          1           0      -12.825150    1.670567    1.201166
     53          1           0       12.747749    2.130355    0.052747
     54          1           0       13.094087    1.591633    1.774513
     55          1           0      -12.764857   -1.866717   -2.154474
     56          1           0       13.640109   -0.580814    1.165934
     57          1           0       -9.238462   -1.125297   -0.034021
     58          1           0       13.527347   -0.928417   -1.264110
     59          1           0       13.164328    0.691022   -1.723637
     60          1           0        9.112531    2.009528    1.830921
     61          1           0        9.822114    2.484508    0.065506
     62          1           0       10.617568    3.010786    1.554234
     63          1           0       11.602280   -0.796854    2.376297
     64          1           0        9.902775   -0.237460    2.960469
     65          1           0       11.580674    0.772235    3.305672
     66          1           0      -10.356263    0.519583   -2.823789
     67          1           0      -11.828943    1.350423   -2.670045
     68          1           0      -11.911347   -0.391845   -3.296973
     69          1           0      -14.550816   -2.050906   -0.478920
     70          1           0        8.521426    0.494184    0.003885
     71          1           0       -8.844794    1.945400   -0.250893
     72          1           0       11.374631   -2.338712   -2.311610
     73          1           0        9.971689   -1.154135   -2.363802
     74          1           0       11.793657   -0.915682   -3.012439
     75          1           0       14.989789    0.837630    0.880597
     76          1           0        9.446499   -2.472874   -0.422357
     77          1           0       -5.638131   -0.983581    0.262734
     78          1           0       -6.999972   -1.377102    0.904260
     79          1           0       -6.946634   -1.505963   -0.815833
     80          1           0       -6.753771    2.564355   -0.394018
     81          1           0        6.333350   -3.575709    1.184399
     82          1           0        6.575412   -4.091652   -0.711839
     83          1           0        7.983487   -4.220741    0.416801
     84          1           0        6.654387   -0.290787   -0.413600
     85          1           0       -4.409868    0.648105   -0.244268
     86          1           0        4.715443   -2.517786    0.145465
     87          1           0       -4.601463    3.560325   -0.479946
     88          1           0        4.515510    0.544750   -0.337262
     89          1           0       -1.414020    3.894608   -1.727212
     90          1           0       -1.282365    4.438096    0.119952
     91          1           0       -2.619029    4.921856   -1.097989
     92          1           0       -2.235304    0.602109   -0.227809
     93          1           0        2.344790    1.343361   -0.759153
     94          1           0        2.148358   -2.217884    1.093843
     95          1           0        0.944648   -1.981208   -0.120441
     96          1           0        2.514318   -2.912037   -0.690384
     97          1           0        0.269658    2.299313   -0.826522
     98          1           0       -0.244490   -0.487508    0.238451
 ---------------------------------------------------------------------

 SCF Done:  E(RCAM-B3LYP) =  -1706.94937234     A.U. after   15 cycles

 Excitation energies and oscillator strengths:

 Excited State   1:      Singlet-A      2.1090 eV  587.88 nm  f=3.0094  <S**2>=0.000
     155 ->158        -0.14246
     156 ->157         0.69431
 This state for optimization and/or second-order correction.
 Total Energy, E(TD-HF/TD-DFT) =  -1706.87186792
 Copying the excited state density for this state as the 1-particle RhoCI density.

 The electronic state is 1-A.
 Alpha  occ. eigenvalues --  -19.20378 -19.19002 -10.30966 -10.30224 -10.28609
 Alpha  occ. eigenvalues --  -10.28362 -10.27869 -10.27835 -10.27701 -10.27690
 Alpha  occ. eigenvalues --  -10.27485 -10.27323 -10.27206 -10.27192 -10.27096
 Alpha  occ. eigenvalues --  -10.26782 -10.26400 -10.26379 -10.26378 -10.26257
 Alpha  occ. eigenvalues --  -10.26205 -10.26175 -10.26145 -10.26094 -10.26055
 Alpha  occ. eigenvalues --  -10.26035 -10.25980 -10.25940 -10.25738 -10.25685
 Alpha  occ. eigenvalues --  -10.25623 -10.25515 -10.25475 -10.25382 -10.25317
 Alpha  occ. eigenvalues --  -10.25312 -10.25198 -10.24910 -10.23954 -10.23905
 Alpha  occ. eigenvalues --  -10.23734 -10.23115  -1.14732  -1.08956  -0.94334
 Alpha  occ. eigenvalues --   -0.93845  -0.92023  -0.91440  -0.90674  -0.89465
 Alpha  occ. eigenvalues --   -0.87669  -0.87195  -0.86395  -0.85832  -0.85101
 Alpha  occ. eigenvalues --   -0.83041  -0.82293  -0.80903  -0.79412  -0.78005
 Alpha  occ. eigenvalues --   -0.77408  -0.76255  -0.75679  -0.75601  -0.75305
 Alpha  occ. eigenvalues --   -0.75058  -0.74951  -0.74072  -0.72929  -0.70745
 Alpha  occ. eigenvalues --   -0.69306  -0.67980  -0.67286  -0.64927  -0.64121
 Alpha  occ. eigenvalues --   -0.64014  -0.63291  -0.62605  -0.60602  -0.60331
 Alpha  occ. eigenvalues --   -0.59866  -0.59464  -0.59045  -0.57335  -0.56047
 Alpha  occ. eigenvalues --   -0.55458  -0.55088  -0.54507  -0.54108  -0.53572
 Alpha  occ. eigenvalues --   -0.53367  -0.53032  -0.52441  -0.52166  -0.51402
 Alpha  occ. eigenvalues --   -0.50440  -0.49888  -0.49499  -0.49317  -0.48999
 Alpha  occ. eigenvalues --   -0.48889  -0.48524  -0.48265  -0.48155  -0.48007
 Alpha  occ. eigenvalues --   -0.47831  -0.47380  -0.47218  -0.46705  -0.46495
 Alpha  occ. eigenvalues --   -0.46238  -0.45802  -0.45608  -0.45032  -0.44864
 Alpha  occ. eigenvalues --   -0.44263  -0.43838  -0.43631  -0.43435  -0.43220
 Alpha  occ. eigenvalues --   -0.43150  -0.42436  -0.42282  -0.42144  -0.41743
 Alpha  occ. eigenvalues --   -0.41334  -0.41054  -0.41024  -0.40855  -0.40789
 Alpha  occ. eigenvalues --   -0.40439  -0.40217  -0.39704  -0.39471  -0.39282
 Alpha  occ. eigenvalues --   -0.39024  -0.38568  -0.38477  -0.38346  -0.37738
 Alpha  occ. eigenvalues --   -0.37661  -0.37162  -0.36873  -0.36491  -0.36338
 Alpha  occ. eigenvalues --   -0.35846  -0.35078  -0.34247  -0.31823  -0.31393
 Alpha  occ. eigenvalues --   -0.31316  -0.29635  -0.28851  -0.27180  -0.23786
 Alpha  occ. eigenvalues --   -0.19467
 Alpha virt. eigenvalues --   -0.06245  -0.01156   0.03239   0.05412   0.07181
 Alpha virt. eigenvalues --    0.08942   0.10865   0.11525   0.12006   0.12082
 Alpha virt. eigenvalues --    0.12990   0.13261   0.13685   0.13904   0.14367

 Mulliken charges:
               1
     1  O   -0.551955
     2  O   -0.488856
     3  C    0.041999
     4  C   -0.131255
     5  C   -0.183122
     6  C    0.160772
     7  C    0.096900
     8  C    0.016864
     9  C   -0.293139
    10  C   -0.293309
    11  C   -0.184319
    12  C   -0.136138
    13  C    0.095879
    14  C    0.064327
    15  C   -0.063131
    16  C   -0.190327
    17  C    0.035002
    18  C   -0.316107
    19  C   -0.298960
    20  C   -0.350924
    21  C   -0.106652
    22  C   -0.138519
    23  C   -0.363119
    24  C    0.065589
    25  C   -0.072321
    26  C   -0.360021
    27  C    0.067047
    28  C   -0.113780
    29  C   -0.363541
    30  C   -0.085086
    31  C   -0.041919
    32  C   -0.081696
    33  C   -0.125180
    34  C    0.089328
    35  C   -0.107102
    36  C    0.075926
    37  C   -0.361467
    38  C   -0.128085
    39  C   -0.122030
    40  C   -0.348735
    41  C   -0.080127
    42  C   -0.072552
    43  H    0.089768
    44  H    0.111362
    45  H    0.082610
    46  H    0.066144
    47  H    0.075273
    48  H    0.109242
    49  H    0.103023
    50  H    0.127322
    51  H    0.089085
    52  H    0.055868
    53  H    0.117967
    54  H    0.063167
    55  H    0.077297
    56  H    0.079228
    57  H    0.093609
    58  H    0.109761
    59  H    0.126805
    60  H    0.098403
    61  H    0.082751
    62  H    0.112332
    63  H    0.090743
    64  H    0.108280
    65  H    0.086325
    66  H    0.134342
    67  H    0.121520
    68  H    0.067136
    69  H    0.301842
    70  H    0.096585
    71  H    0.080165
    72  H    0.102231
    73  H    0.128352
    74  H    0.098536
    75  H    0.252279
    76  H    0.089876
    77  H    0.114679
    78  H    0.129920
    79  H    0.120846
    80  H    0.078551
    81  H    0.091615
    82  H    0.116634
    83  H    0.098631
    84  H    0.062892
    85  H    0.078830
    86  H    0.081020
    87  H    0.088077
    88  H    0.077693
    89  H    0.138860
    90  H    0.097778
    91  H    0.098948
    92  H    0.056879
    93  H    0.072556
    94  H    0.122717
    95  H    0.123184
    96  H    0.118551
    97  H    0.077718
    98  H    0.068031
 Sum of Mulliken charges =  -0.00000

 Dipole moment (field-independent basis, Debye):
    X=             -0.8715    Y=             -1.0260    Z=             -0.2816  Tot=              1.3753
 Quadrupole moment (field-independent basis, Debye-Ang):
   XX=           -260.7102   YY=           -249.3287   ZZ=           -261.3512
   XY=             -7.5818   XZ=             31.6421   YZ=              0.5110

 Normal termination of Gaussian 16 at Tue Jul 16 13:18:41 2019.
