 Gaussian 16, Revision A.03,
 Gaussian 16:  ES64L-G16RevA.03 25-Dec-2016

 -------------------------------------
 # td=(NStates=1) CAM-B3LYP/6-31G(d,p)
 -------------------------------------

 --
 TD
 --
 Symbolic Z-matrix:
 Charge =  0 Multiplicity = 1

                         Standard orientation:
 ---------------------------------------------------------------------
 Center     Atomic      Atomic             Coordinates (Angstroms)
 Number     Number       Type             X           Y           Z
 ---------------------------------------------------------------------
      1          8           0      -14.061813   -2.063225    0.384007
      2          8           0       14.710295    0.864739   -0.140988
      3          6           0      -11.790027    0.070267    1.250901
      4          6           0      -11.015473    0.309728   -0.071708
      5          6           0      -11.889324   -1.406099    1.324747
      6          6           0      -12.569212   -2.026151    0.176351
      7          6           0      -11.554957   -0.384494   -1.216307
      8          6           0       11.121252    1.052316    0.972702
      9          6           0      -11.018297    0.624349    2.421633
     10          6           0      -13.122017    0.764409    1.074147
     11          6           0       12.521374    1.561055    0.577501
     12          6           0      -12.300897   -1.429874   -1.154346
     13          6           0       13.398457    0.434259    0.130824
     14          6           0       10.588794   -0.054755    0.025070
     15          6           0       -9.569836   -0.018393    0.081203
     16          6           0       12.869755   -0.142375   -1.136357
     17          6           0       11.390679   -0.491098   -1.058030
     18          6           0       10.140015    2.273638    0.984922
     19          6           0       11.014861    0.523617    2.419210
     20          6           0      -11.044618    0.178073   -2.644116
     21          6           0       -8.523831    0.798187   -0.107466
     22          6           0        9.201418   -0.457212    0.157665
     23          6           0       10.932857   -1.332524   -2.130673
     24          6           0       -7.112153    0.434989   -0.214980
     25          6           0        8.746552   -1.765620   -0.044301
     26          6           0       -6.707683   -0.890930    0.084394
     27          6           0        7.359820   -2.265678    0.166796
     28          6           0       -6.155339    1.462567   -0.365180
     29          6           0        7.119168   -3.690654    0.297399
     30          6           0        6.324592   -1.411189   -0.041662
     31          6           0       -4.763896    1.390451   -0.404920
     32          6           0        5.013163   -1.630278    0.098325
     33          6           0       -3.904940    2.534078   -0.582703
     34          6           0       -2.568059    2.640177   -0.604143
     35          6           0        4.083170   -0.607797   -0.188695
     36          6           0        2.645977   -0.888382   -0.001366
     37          6           0       -1.870881    3.999841   -0.731390
     38          6           0       -1.745063    1.520152   -0.297494
     39          6           0        1.831356    0.202778   -0.197879
     40          6           0        2.136593   -2.154706    0.311797
     41          6           0       -0.342705    1.409690   -0.462798
     42          6           0        0.476534    0.272851   -0.066298
     43          1           0      -11.028357    1.446934   -0.260319
     44          1           0      -12.446338   -1.713012    2.165108
     45          1           0      -10.970180   -1.898445    1.622350
     46          1           0      -12.224633   -2.944110    0.097532
     47          1           0      -10.029717    0.162803    2.610473
     48          1           0      -10.779565    1.639573    2.243325
     49          1           0      -11.602928    0.990799    3.370813
     50          1           0      -13.605046    0.485418    0.235448
     51          1           0      -13.790277    0.783666    2.067949
     52          1           0      -13.109808    1.822666    1.161984
     53          1           0       12.408241    2.136098   -0.205338
     54          1           0       12.957557    2.088081    1.437014
     55          1           0      -12.532783   -2.092541   -2.178122
     56          1           0       13.370519   -0.177253    0.974608
     57          1           0       -9.339585   -1.058873    0.207552
     58          1           0       13.622049   -0.933306   -1.254064
     59          1           0       12.985501    0.527768   -1.923126
     60          1           0        9.190560    1.939382    1.508932
     61          1           0       10.042005    2.675772   -0.019354
     62          1           0       10.710482    3.101418    1.531214
     63          1           0       11.802725   -0.186911    2.921321
     64          1           0        9.980171    0.113773    2.762920
     65          1           0       11.188297    1.500093    3.116627
     66          1           0       -9.970555    0.175896   -2.731219
     67          1           0      -11.417938    1.206104   -2.948969
     68          1           0      -11.345106   -0.410758   -3.576623
     69          1           0      -14.471799   -2.477423   -0.344727
     70          1           0        8.469097    0.177713    0.504150
     71          1           0       -8.838055    1.930203   -0.614191
     72          1           0       11.378598   -2.371783   -1.994607
     73          1           0        9.874178   -1.239776   -2.052795
     74          1           0       11.190149   -1.050834   -3.262564
     75          1           0       14.988797    1.118200    0.625725
     76          1           0        9.468265   -2.535990   -0.273153
     77          1           0       -5.673816   -1.082947   -0.184059
     78          1           0       -7.008035   -1.206031    1.117926
     79          1           0       -7.337203   -1.500473   -0.485397
     80          1           0       -6.544838    2.337200   -0.496200
     81          1           0        6.748751   -3.776762    1.437767
     82          1           0        6.373188   -4.256177   -0.487756
     83          1           0        7.964580   -4.423462    0.201615
     84          1           0        6.528096   -0.326489   -0.271474
     85          1           0       -4.401330    0.433835    0.016206
     86          1           0        4.712799   -2.571864    0.219857
     87          1           0       -4.377464    3.481912   -0.751346
     88          1           0        4.497777    0.345184   -0.291184
     89          1           0       -1.537756    4.079133   -1.968642
     90          1           0       -1.166032    4.081087    0.066360
     91          1           0       -2.475648    4.899841   -0.750334
     92          1           0       -2.346968    0.567244    0.017751
     93          1           0        2.253522    1.144098   -0.477730
     94          1           0        2.460461   -2.363515    1.392047
     95          1           0        0.977866   -2.219782    0.104553
     96          1           0        2.729468   -2.916524   -0.254869
     97          1           0        0.178272    2.106933   -0.932938
     98          1           0        0.048859   -0.631480    0.311178
 ---------------------------------------------------------------------

 SCF Done:  E(RCAM-B3LYP) =  -1706.95695325     A.U. after   16 cycles

 Excitation energies and oscillator strengths:

 Excited State   1:      Singlet-A      1.7540 eV  706.86 nm  f=2.9581  <S**2>=0.000
     155 ->158        -0.13060
     156 ->157         0.70419
     156 <-157        -0.13080
 This state for optimization and/or second-order correction.
 Total Energy, E(TD-HF/TD-DFT) =  -1706.89249474
 Copying the excited state density for this state as the 1-particle RhoCI density.

 The electronic state is 1-A.
 Alpha  occ. eigenvalues --  -19.20056 -19.19604 -10.29184 -10.28597 -10.27967
 Alpha  occ. eigenvalues --  -10.27941 -10.27343 -10.27328 -10.27139 -10.27106
 Alpha  occ. eigenvalues --  -10.27027 -10.27021 -10.27000 -10.26975 -10.26909
 Alpha  occ. eigenvalues --  -10.26754 -10.26709 -10.26630 -10.26603 -10.26583
 Alpha  occ. eigenvalues --  -10.26568 -10.26269 -10.26232 -10.26180 -10.26156
 Alpha  occ. eigenvalues --  -10.26135 -10.25871 -10.25816 -10.25713 -10.25690
 Alpha  occ. eigenvalues --  -10.25656 -10.25031 -10.24950 -10.24941 -10.24689
 Alpha  occ. eigenvalues --  -10.24584 -10.24472 -10.24084 -10.24013 -10.23604
 Alpha  occ. eigenvalues --  -10.23391 -10.22752  -1.12719  -1.06984  -0.95475
 Alpha  occ. eigenvalues --   -0.93668  -0.93130  -0.91997  -0.91320  -0.90530
 Alpha  occ. eigenvalues --   -0.87483  -0.87093  -0.86995  -0.86228  -0.85609
 Alpha  occ. eigenvalues --   -0.84006  -0.83049  -0.81045  -0.80649  -0.79053
 Alpha  occ. eigenvalues --   -0.76888  -0.76597  -0.76233  -0.76069  -0.75847
 Alpha  occ. eigenvalues --   -0.75448  -0.75247  -0.74302  -0.72385  -0.70975
 Alpha  occ. eigenvalues --   -0.69316  -0.68616  -0.67079  -0.65618  -0.63826
 Alpha  occ. eigenvalues --   -0.63755  -0.63090  -0.62948  -0.61404  -0.60835
 Alpha  occ. eigenvalues --   -0.60752  -0.59541  -0.58414  -0.58093  -0.56417
 Alpha  occ. eigenvalues --   -0.55975  -0.55667  -0.54977  -0.54655  -0.54009
 Alpha  occ. eigenvalues --   -0.53463  -0.52900  -0.52613  -0.52198  -0.51383
 Alpha  occ. eigenvalues --   -0.50889  -0.50757  -0.50316  -0.49824  -0.49720
 Alpha  occ. eigenvalues --   -0.49538  -0.49174  -0.48854  -0.48632  -0.48376
 Alpha  occ. eigenvalues --   -0.48255  -0.47793  -0.47656  -0.46657  -0.46260
 Alpha  occ. eigenvalues --   -0.45959  -0.45830  -0.45159  -0.44885  -0.44628
 Alpha  occ. eigenvalues --   -0.44451  -0.44160  -0.43874  -0.43566  -0.43112
 Alpha  occ. eigenvalues --   -0.42925  -0.42739  -0.42569  -0.42552  -0.42255
 Alpha  occ. eigenvalues --   -0.42161  -0.41518  -0.41254  -0.41190  -0.40543
 Alpha  occ. eigenvalues --   -0.40203  -0.40029  -0.39889  -0.39770  -0.39275
 Alpha  occ. eigenvalues --   -0.38936  -0.38684  -0.38499  -0.38397  -0.38055
 Alpha  occ. eigenvalues --   -0.37574  -0.37506  -0.37503  -0.36616  -0.36216
 Alpha  occ. eigenvalues --   -0.35530  -0.34639  -0.33876  -0.32142  -0.31886
 Alpha  occ. eigenvalues --   -0.31415  -0.30519  -0.28696  -0.26402  -0.23008
 Alpha  occ. eigenvalues --   -0.18177
 Alpha virt. eigenvalues --   -0.07201  -0.01566   0.02649   0.05492   0.07177
 Alpha virt. eigenvalues --    0.08938   0.10796   0.11718   0.12543   0.12684
 Alpha virt. eigenvalues --    0.13155   0.13288   0.13959   0.14050   0.14388

 Mulliken charges:
               1
     1  O   -0.566041
     2  O   -0.524612
     3  C    0.037792
     4  C   -0.154774
     5  C   -0.188478
     6  C    0.137161
     7  C    0.141684
     8  C   -0.034486
     9  C   -0.326705
    10  C   -0.286972
    11  C   -0.173655
    12  C   -0.139045
    13  C    0.133700
    14  C    0.093608
    15  C   -0.080370
    16  C   -0.212315
    17  C    0.041089
    18  C   -0.294627
    19  C   -0.296585
    20  C   -0.367981
    21  C   -0.088296
    22  C   -0.125181
    23  C   -0.364575
    24  C    0.090644
    25  C   -0.116983
    26  C   -0.383495
    27  C    0.078670
    28  C   -0.073552
    29  C   -0.378696
    30  C   -0.095946
    31  C   -0.084540
    32  C   -0.059140
    33  C   -0.128940
    34  C    0.107136
    35  C   -0.112796
    36  C    0.128753
    37  C   -0.359663
    38  C   -0.121963
    39  C   -0.101753
    40  C   -0.390532
    41  C   -0.089514
    42  C   -0.088394
    43  H    0.087340
    44  H    0.125049
    45  H    0.098576
    46  H    0.096325
    47  H    0.105033
    48  H    0.106687
    49  H    0.087143
    50  H    0.126109
    51  H    0.073292
    52  H    0.094595
    53  H    0.103522
    54  H    0.076452
    55  H    0.073009
    56  H    0.082592
    57  H    0.080391
    58  H    0.113898
    59  H    0.124474
    60  H    0.103588
    61  H    0.107521
    62  H    0.096560
    63  H    0.090710
    64  H    0.105611
    65  H    0.067232
    66  H    0.127135
    67  H    0.106840
    68  H    0.094776
    69  H    0.297621
    70  H    0.082963
    71  H    0.056651
    72  H    0.109614
    73  H    0.127606
    74  H    0.089141
    75  H    0.280638
    76  H    0.090960
    77  H    0.112521
    78  H    0.121438
    79  H    0.122240
    80  H    0.055570
    81  H    0.110795
    82  H    0.103706
    83  H    0.115946
    84  H    0.070131
    85  H    0.081911
    86  H    0.069274
    87  H    0.078824
    88  H    0.088190
    89  H    0.087420
    90  H    0.137013
    91  H    0.117155
    92  H    0.077022
    93  H    0.072233
    94  H    0.126144
    95  H    0.111274
    96  H    0.124543
    97  H    0.080654
    98  H    0.066711
 Sum of Mulliken charges =  -0.00000

 Dipole moment (field-independent basis, Debye):
    X=              1.2503    Y=             -1.0150    Z=              0.1684  Tot=              1.6192
 Quadrupole moment (field-independent basis, Debye-Ang):
   XX=           -302.2836   YY=           -240.5264   ZZ=           -261.2171
   XY=              2.9998   XZ=             35.1049   YZ=              2.2651

 Normal termination of Gaussian 16 at Sat Jul 13 21:47:51 2019.
