 Gaussian 16, Revision A.03,
 Gaussian 16:  ES64L-G16RevA.03 25-Dec-2016

 -------------------------------------
 # td=(NStates=1) CAM-B3LYP/6-31G(d,p)
 -------------------------------------

 --
 TD
 --
 Symbolic Z-matrix:
 Charge =  0 Multiplicity = 1

                         Standard orientation:
 ---------------------------------------------------------------------
 Center     Atomic      Atomic             Coordinates (Angstroms)
 Number     Number       Type             X           Y           Z
 ---------------------------------------------------------------------
      1          8           0      -14.088617   -2.162559    0.294275
      2          8           0       14.787587    0.656049    0.524059
      3          6           0      -11.760222   -0.139259    1.363157
      4          6           0      -10.948319    0.334909    0.039794
      5          6           0      -11.987159   -1.672641    1.279791
      6          6           0      -12.708564   -2.192416    0.053329
      7          6           0      -11.600467   -0.286305   -1.194529
      8          6           0       11.049326    1.051352    0.964079
      9          6           0      -11.013402    0.213376    2.667034
     10          6           0      -13.113481    0.560098    1.231258
     11          6           0       12.485678    1.555514    0.802476
     12          6           0      -12.427146   -1.404313   -1.141644
     13          6           0       13.413672    0.353504    0.650161
     14          6           0       10.794283   -0.053378   -0.000158
     15          6           0       -9.566549   -0.020103    0.088666
     16          6           0       13.105349   -0.256998   -0.813371
     17          6           0       11.694394   -0.655523   -0.789601
     18          6           0       10.023352    2.192732    0.704253
     19          6           0       10.829926    0.460407    2.386264
     20          6           0      -11.121897    0.477167   -2.475607
     21          6           0       -8.553215    0.891714   -0.094638
     22          6           0        9.268213   -0.435613   -0.038904
     23          6           0       11.461093   -1.543393   -2.048671
     24          6           0       -7.201279    0.609041   -0.062744
     25          6           0        8.795102   -1.699586   -0.301889
     26          6           0       -6.587549   -0.774326    0.159063
     27          6           0        7.443350   -2.136261   -0.169604
     28          6           0       -6.262275    1.681258   -0.190181
     29          6           0        7.122479   -3.556069    0.160913
     30          6           0        6.437929   -1.208071   -0.320138
     31          6           0       -4.901158    1.684302   -0.211002
     32          6           0        5.026342   -1.425578   -0.144086
     33          6           0       -3.977888    2.653982   -0.519179
     34          6           0       -2.607459    2.720287   -0.626147
     35          6           0        4.046527   -0.473426   -0.432259
     36          6           0        2.675631   -0.727391   -0.246077
     37          6           0       -1.973226    4.007538   -0.995071
     38          6           0       -1.792325    1.559416   -0.373540
     39          6           0        1.739479    0.309547   -0.432458
     40          6           0        2.040419   -2.154247   -0.011950
     41          6           0       -0.442893    1.345814   -0.530582
     42          6           0        0.368798    0.249007   -0.345799
     43          1           0      -11.039419    1.320046   -0.043654
     44          1           0      -12.654926   -1.961515    2.177977
     45          1           0      -11.236556   -2.087467    1.429304
     46          1           0      -12.353024   -3.206580   -0.077089
     47          1           0      -10.272144   -0.542277    2.985679
     48          1           0      -10.718218    1.321649    2.533878
     49          1           0      -11.768777    0.074511    3.372539
     50          1           0      -13.507720    0.438167    0.320062
     51          1           0      -13.631321    0.056955    2.076229
     52          1           0      -12.975964    1.708766    1.415361
     53          1           0       12.716845    2.108782   -0.088364
     54          1           0       12.677598    2.181301    1.858502
     55          1           0      -12.820657   -1.991106   -2.104810
     56          1           0       13.293143   -0.350283    1.465549
     57          1           0       -9.135676   -1.030419    0.116053
     58          1           0       13.795916   -1.202041   -0.885917
     59          1           0       13.323623    0.512050   -1.571396
     60          1           0        9.119933    1.817944    1.281833
     61          1           0        9.763635    2.441803   -0.326462
     62          1           0       10.372969    3.286215    1.127066
     63          1           0       11.626845   -0.192468    2.326001
     64          1           0        9.915901   -0.010800    2.473334
     65          1           0       10.956064    1.302867    3.199219
     66          1           0       -9.967631    0.457284   -2.501178
     67          1           0      -11.377448    1.505461   -2.476500
     68          1           0      -11.271097   -0.124199   -3.290504
     69          1           0      -14.537689   -2.961368   -0.451609
     70          1           0        8.615361    0.297765    0.297463
     71          1           0       -8.862250    1.968182   -0.263374
     72          1           0       11.861727   -2.437827   -1.723231
     73          1           0       10.372898   -1.515043   -2.172626
     74          1           0       12.018270   -1.303522   -3.027484
     75          1           0       15.191695    1.053053    1.372333
     76          1           0        9.478055   -2.705605   -0.462297
     77          1           0       -5.623652   -0.608848    0.099141
     78          1           0       -7.270770   -1.333415    0.976141
     79          1           0       -6.854654   -1.468606   -0.736355
     80          1           0       -6.685525    2.574122   -0.235472
     81          1           0        6.402990   -3.801398    0.974496
     82          1           0        6.566903   -3.878396   -0.673182
     83          1           0        7.961505   -4.084929    0.369768
     84          1           0        6.688070   -0.058783   -0.382065
     85          1           0       -4.460430    0.787833   -0.068534
     86          1           0        4.661370   -2.461187    0.298183
     87          1           0       -4.469193    3.707423   -0.640484
     88          1           0        4.185291    0.597796   -0.404715
     89          1           0       -1.091117    3.849090   -1.854106
     90          1           0       -1.383282    4.384309   -0.196491
     91          1           0       -2.826669    4.872582   -1.515292
     92          1           0       -2.291449    0.578740    0.072697
     93          1           0        2.303203    1.206291   -0.784677
     94          1           0        2.091870   -2.444736    1.079125
     95          1           0        1.038215   -2.170994   -0.237796
     96          1           0        2.822743   -2.688775   -0.534313
     97          1           0        0.158064    2.349858   -0.549661
     98          1           0       -0.134413   -0.662571   -0.207428
 ---------------------------------------------------------------------

 SCF Done:  E(RCAM-B3LYP) =  -1706.88184425     A.U. after   16 cycles

 Excitation energies and oscillator strengths:

 Excited State   1:      Singlet-A      1.8305 eV  677.33 nm  f=3.1889  <S**2>=0.000
     155 ->158        -0.13354
     156 ->157         0.70090
     156 <-157        -0.11799
 This state for optimization and/or second-order correction.
 Total Energy, E(TD-HF/TD-DFT) =  -1706.81457520
 Copying the excited state density for this state as the 1-particle RhoCI density.

 The electronic state is 1-A.
 Alpha  occ. eigenvalues --  -19.22751 -19.20878 -10.30048 -10.29999 -10.28324
 Alpha  occ. eigenvalues --  -10.27978 -10.27895 -10.27650 -10.27617 -10.27496
 Alpha  occ. eigenvalues --  -10.27373 -10.27100 -10.27062 -10.27017 -10.26582
 Alpha  occ. eigenvalues --  -10.26496 -10.26414 -10.26402 -10.26391 -10.26307
 Alpha  occ. eigenvalues --  -10.26302 -10.26281 -10.26280 -10.26279 -10.26119
 Alpha  occ. eigenvalues --  -10.25950 -10.25948 -10.25918 -10.25836 -10.25825
 Alpha  occ. eigenvalues --  -10.25684 -10.25091 -10.25059 -10.24977 -10.24931
 Alpha  occ. eigenvalues --  -10.24776 -10.24726 -10.24614 -10.24526 -10.24240
 Alpha  occ. eigenvalues --  -10.22989 -10.22904  -1.08071  -1.08027  -0.94046
 Alpha  occ. eigenvalues --   -0.93752  -0.92157  -0.91685  -0.90863  -0.90083
 Alpha  occ. eigenvalues --   -0.87512  -0.86954  -0.86549  -0.85259  -0.84095
 Alpha  occ. eigenvalues --   -0.83392  -0.82022  -0.80602  -0.80017  -0.78143
 Alpha  occ. eigenvalues --   -0.77175  -0.76924  -0.76797  -0.76475  -0.75809
 Alpha  occ. eigenvalues --   -0.75719  -0.75475  -0.74425  -0.72585  -0.70735
 Alpha  occ. eigenvalues --   -0.69261  -0.67800  -0.66146  -0.65272  -0.64011
 Alpha  occ. eigenvalues --   -0.63421  -0.62148  -0.61987  -0.59984  -0.59772
 Alpha  occ. eigenvalues --   -0.59404  -0.59023  -0.58846  -0.57806  -0.56329
 Alpha  occ. eigenvalues --   -0.55373  -0.54854  -0.54471  -0.54161  -0.53758
 Alpha  occ. eigenvalues --   -0.53555  -0.53327  -0.52896  -0.51868  -0.51309
 Alpha  occ. eigenvalues --   -0.50589  -0.50491  -0.50204  -0.49797  -0.49307
 Alpha  occ. eigenvalues --   -0.49143  -0.49019  -0.48552  -0.48133  -0.48044
 Alpha  occ. eigenvalues --   -0.47952  -0.47259  -0.47026  -0.46809  -0.46573
 Alpha  occ. eigenvalues --   -0.45944  -0.45698  -0.45579  -0.45436  -0.45239
 Alpha  occ. eigenvalues --   -0.44534  -0.44417  -0.43989  -0.43860  -0.43778
 Alpha  occ. eigenvalues --   -0.43697  -0.43547  -0.43037  -0.42580  -0.42013
 Alpha  occ. eigenvalues --   -0.41987  -0.41433  -0.41201  -0.40999  -0.40814
 Alpha  occ. eigenvalues --   -0.40324  -0.39975  -0.39894  -0.39553  -0.39529
 Alpha  occ. eigenvalues --   -0.38707  -0.38526  -0.38485  -0.38331  -0.37792
 Alpha  occ. eigenvalues --   -0.37090  -0.36615  -0.36258  -0.36161  -0.35279
 Alpha  occ. eigenvalues --   -0.34932  -0.33624  -0.32757  -0.32725  -0.31849
 Alpha  occ. eigenvalues --   -0.31240  -0.29190  -0.28920  -0.26651  -0.23336
 Alpha  occ. eigenvalues --   -0.18339
 Alpha virt. eigenvalues --   -0.06957  -0.01541   0.02525   0.05085   0.06173
 Alpha virt. eigenvalues --    0.07754   0.09351   0.11023   0.11778   0.12300
 Alpha virt. eigenvalues --    0.12479   0.12714   0.12813   0.13134   0.13558

 Mulliken charges:
               1
     1  O   -0.529662
     2  O   -0.577004
     3  C   -0.010915
     4  C   -0.118466
     5  C   -0.140539
     6  C    0.114198
     7  C    0.060906
     8  C   -0.034401
     9  C   -0.299547
    10  C   -0.272954
    11  C   -0.171494
    12  C   -0.094811
    13  C    0.157561
    14  C    0.089164
    15  C   -0.053728
    16  C   -0.220726
    17  C    0.016453
    18  C   -0.300268
    19  C   -0.280847
    20  C   -0.355891
    21  C   -0.104102
    22  C   -0.114064
    23  C   -0.348138
    24  C    0.109790
    25  C   -0.113023
    26  C   -0.347647
    27  C    0.081214
    28  C   -0.103927
    29  C   -0.369737
    30  C   -0.118913
    31  C   -0.050710
    32  C   -0.113554
    33  C   -0.140703
    34  C    0.144532
    35  C   -0.116016
    36  C    0.090086
    37  C   -0.369902
    38  C   -0.136371
    39  C   -0.125391
    40  C   -0.355884
    41  C   -0.081864
    42  C   -0.074729
    43  H    0.087471
    44  H    0.091292
    45  H    0.077652
    46  H    0.084085
    47  H    0.100856
    48  H    0.098121
    49  H    0.107031
    50  H    0.130520
    51  H    0.098213
    52  H    0.065402
    53  H    0.107621
    54  H    0.053399
    55  H    0.059906
    56  H    0.084582
    57  H    0.076071
    58  H    0.100234
    59  H    0.126529
    60  H    0.098076
    61  H    0.115586
    62  H    0.077573
    63  H    0.105974
    64  H    0.117650
    65  H    0.084845
    66  H    0.112224
    67  H    0.124271
    68  H    0.118159
    69  H    0.292824
    70  H    0.088421
    71  H    0.075192
    72  H    0.124135
    73  H    0.118314
    74  H    0.104747
    75  H    0.298485
    76  H    0.078164
    77  H    0.114936
    78  H    0.111915
    79  H    0.105435
    80  H    0.057464
    81  H    0.120824
    82  H    0.140021
    83  H    0.113439
    84  H    0.076423
    85  H    0.062078
    86  H    0.085337
    87  H    0.057241
    88  H    0.092336
    89  H    0.100779
    90  H    0.144041
    91  H    0.084432
    92  H    0.069277
    93  H    0.072988
    94  H    0.109767
    95  H    0.118015
    96  H    0.118342
    97  H    0.062514
    98  H    0.080796
 Sum of Mulliken charges =  -0.00000

 Dipole moment (field-independent basis, Debye):
    X=             -0.1328    Y=             -1.8759    Z=              0.5101  Tot=              1.9486
 Quadrupole moment (field-independent basis, Debye-Ang):
   XX=           -269.3492   YY=           -239.8845   ZZ=           -262.8535
   XY=             19.8881   XZ=             31.2773   YZ=              0.8313

 Normal termination of Gaussian 16 at Mon Jul 15 01:33:31 2019.
