 Gaussian 16, Revision A.03,
 Gaussian 16:  ES64L-G16RevA.03 25-Dec-2016

 -------------------------------------
 # td=(NStates=1) CAM-B3LYP/6-31G(d,p)
 -------------------------------------

 --
 TD
 --
 Symbolic Z-matrix:
 Charge =  0 Multiplicity = 1

                         Standard orientation:
 ---------------------------------------------------------------------
 Center     Atomic      Atomic             Coordinates (Angstroms)
 Number     Number       Type             X           Y           Z
 ---------------------------------------------------------------------
      1          8           0      -14.052463   -1.951677    0.530548
      2          8           0       14.733985    1.025138   -0.229960
      3          6           0      -11.778643    0.157892    1.256290
      4          6           0      -10.963374    0.394212   -0.055590
      5          6           0      -11.986609   -1.351037    1.523803
      6          6           0      -12.630565   -2.091561    0.347806
      7          6           0      -11.619580   -0.427108   -1.294283
      8          6           0       11.165469    0.851327    1.147662
      9          6           0      -11.009522    0.761495    2.397247
     10          6           0      -13.112816    0.854899    1.159162
     11          6           0       12.540426    1.492339    0.702784
     12          6           0      -12.306822   -1.549533   -0.973528
     13          6           0       13.487095    0.511166    0.198217
     14          6           0       10.615893   -0.042741    0.040895
     15          6           0       -9.547204   -0.006572   -0.007749
     16          6           0       12.859651    0.002340   -1.151779
     17          6           0       11.335536   -0.306564   -1.062791
     18          6           0       10.246116    2.214179    1.333499
     19          6           0       11.267739    0.116878    2.530383
     20          6           0      -11.312541    0.001018   -2.691250
     21          6           0       -8.558672    0.832286   -0.138430
     22          6           0        9.237204   -0.442255    0.179435
     23          6           0       10.909738   -1.107153   -2.306974
     24          6           0       -7.070167    0.461694   -0.257681
     25          6           0        8.838643   -1.706543   -0.009182
     26          6           0       -6.669722   -0.967693    0.086369
     27          6           0        7.334570   -2.138560    0.070441
     28          6           0       -6.170413    1.525670   -0.452118
     29          6           0        7.270193   -3.679662    0.047146
     30          6           0        6.356305   -1.319018    0.027621
     31          6           0       -4.845772    1.453296   -0.500419
     32          6           0        5.055056   -1.605070    0.057487
     33          6           0       -4.042660    2.579906   -0.605506
     34          6           0       -2.580329    2.611952   -0.622705
     35          6           0        4.073244   -0.581890   -0.067454
     36          6           0        2.617352   -0.952639   -0.078454
     37          6           0       -1.883877    3.863421   -0.751388
     38          6           0       -1.827597    1.382526   -0.419085
     39          6           0        1.759602    0.176752   -0.164620
     40          6           0        2.098157   -2.306863    0.255640
     41          6           0       -0.413172    1.390353   -0.505623
     42          6           0        0.366062    0.221710   -0.200042
     43          1           0      -11.287114    1.331306   -0.446554
     44          1           0      -12.468172   -1.368571    2.430666
     45          1           0      -11.002248   -1.675551    1.639371
     46          1           0      -12.573782   -3.301427    0.364494
     47          1           0      -10.063462    0.325108    2.384676
     48          1           0      -10.672155    1.762608    2.211219
     49          1           0      -11.546286    0.757359    3.307403
     50          1           0      -13.739026    0.417490    0.347517
     51          1           0      -13.672703    0.886838    2.075288
     52          1           0      -13.027527    1.878188    0.648477
     53          1           0       12.510414    2.242477   -0.113528
     54          1           0       12.766672    1.925462    1.723781
     55          1           0      -12.704120   -2.061907   -1.837691
     56          1           0       13.854336   -0.280997    1.036823
     57          1           0       -9.384231   -1.047323    0.154405
     58          1           0       13.801450   -0.920902   -1.294802
     59          1           0       13.060244    0.963809   -1.867226
     60          1           0        9.306107    1.711865    1.691710
     61          1           0       10.382882    2.721412    0.314740
     62          1           0       10.669630    2.851652    2.193419
     63          1           0       12.249438   -0.722441    2.445302
     64          1           0       10.417219   -0.560601    2.690706
     65          1           0       11.388733    0.715729    3.385114
     66          1           0      -10.321829    0.492040   -3.131649
     67          1           0      -12.085765    0.853361   -2.836025
     68          1           0      -11.578545   -0.718048   -3.587499
     69          1           0      -14.377330   -2.517448   -0.181941
     70          1           0        8.470373    0.342650    0.552027
     71          1           0       -8.780183    1.791810   -0.072066
     72          1           0       11.184411   -2.168857   -2.304692
     73          1           0        9.975197   -0.899635   -2.666389
     74          1           0       11.526166   -0.861953   -3.186624
     75          1           0       15.369041    1.084056    0.613225
     76          1           0        9.653858   -2.467651   -0.471397
     77          1           0       -5.574417   -1.153048   -0.089787
     78          1           0       -7.058951   -1.458533    1.088786
     79          1           0       -7.028063   -1.730638   -0.618618
     80          1           0       -6.513451    2.470144   -0.673503
     81          1           0        7.126884   -3.722586    1.117316
     82          1           0        6.391584   -3.835554   -0.483942
     83          1           0        8.084846   -4.216915   -0.120040
     84          1           0        6.613185   -0.220149   -0.205461
     85          1           0       -4.408448    0.589722   -0.523646
     86          1           0        4.698083   -2.750146    0.046231
     87          1           0       -4.466295    3.463154   -0.459062
     88          1           0        4.347248    0.384381   -0.364281
     89          1           0       -1.546437    4.071650   -1.818750
     90          1           0       -1.013167    4.183470   -0.046976
     91          1           0       -2.556210    4.766955   -0.657163
     92          1           0       -2.353049    0.462817   -0.265265
     93          1           0        2.244194    1.138781   -0.524312
     94          1           0        2.681790   -2.631641    0.995904
     95          1           0        1.135712   -2.335006    0.495681
     96          1           0        2.051074   -2.896818   -0.845339
     97          1           0       -0.039225    2.335368   -0.761238
     98          1           0       -0.194708   -0.634093   -0.174946
 ---------------------------------------------------------------------

 SCF Done:  E(RCAM-B3LYP) =  -1706.90718197     A.U. after   15 cycles

 Excitation energies and oscillator strengths:

 Excited State   1:      Singlet-A      2.0599 eV  601.89 nm  f=2.7912  <S**2>=0.000
     155 ->158         0.12581
     156 ->157         0.70050
     156 <-157        -0.10689
 This state for optimization and/or second-order correction.
 Total Energy, E(TD-HF/TD-DFT) =  -1706.83148126
 Copying the excited state density for this state as the 1-particle RhoCI density.

 The electronic state is 1-A.
 Alpha  occ. eigenvalues --  -19.21202 -19.20131 -10.31526 -10.30343 -10.28295
 Alpha  occ. eigenvalues --  -10.28168 -10.28152 -10.27935 -10.27918 -10.27648
 Alpha  occ. eigenvalues --  -10.27593 -10.27391 -10.27208 -10.27022 -10.26955
 Alpha  occ. eigenvalues --  -10.26885 -10.26703 -10.26619 -10.26548 -10.26338
 Alpha  occ. eigenvalues --  -10.26102 -10.26040 -10.25996 -10.25984 -10.25980
 Alpha  occ. eigenvalues --  -10.25976 -10.25829 -10.25689 -10.25356 -10.25353
 Alpha  occ. eigenvalues --  -10.24917 -10.24900 -10.24618 -10.24516 -10.24501
 Alpha  occ. eigenvalues --  -10.24356 -10.24335 -10.24090 -10.23937 -10.23547
 Alpha  occ. eigenvalues --  -10.22730 -10.22171  -1.09061  -1.07986  -0.93431
 Alpha  occ. eigenvalues --   -0.93131  -0.92078  -0.91927  -0.90203  -0.89195
 Alpha  occ. eigenvalues --   -0.87182  -0.86621  -0.86245  -0.85125  -0.84412
 Alpha  occ. eigenvalues --   -0.82937  -0.82334  -0.80574  -0.80127  -0.78751
 Alpha  occ. eigenvalues --   -0.77469  -0.76395  -0.76239  -0.76165  -0.75654
 Alpha  occ. eigenvalues --   -0.75034  -0.74972  -0.73262  -0.72380  -0.69997
 Alpha  occ. eigenvalues --   -0.68182  -0.67437  -0.66115  -0.64274  -0.63886
 Alpha  occ. eigenvalues --   -0.63234  -0.62362  -0.61766  -0.61749  -0.60835
 Alpha  occ. eigenvalues --   -0.59831  -0.58146  -0.57897  -0.57510  -0.55970
 Alpha  occ. eigenvalues --   -0.55497  -0.55176  -0.54756  -0.53888  -0.53643
 Alpha  occ. eigenvalues --   -0.53393  -0.53070  -0.52665  -0.52132  -0.51516
 Alpha  occ. eigenvalues --   -0.50812  -0.50066  -0.49905  -0.49752  -0.49591
 Alpha  occ. eigenvalues --   -0.49129  -0.49090  -0.48537  -0.47946  -0.47324
 Alpha  occ. eigenvalues --   -0.47134  -0.46739  -0.46641  -0.46483  -0.46374
 Alpha  occ. eigenvalues --   -0.45930  -0.45834  -0.45724  -0.45297  -0.45128
 Alpha  occ. eigenvalues --   -0.44865  -0.44420  -0.44202  -0.43571  -0.43513
 Alpha  occ. eigenvalues --   -0.43023  -0.42819  -0.42669  -0.42524  -0.41968
 Alpha  occ. eigenvalues --   -0.41736  -0.41419  -0.41270  -0.41165  -0.40529
 Alpha  occ. eigenvalues --   -0.40447  -0.39859  -0.39711  -0.39660  -0.39455
 Alpha  occ. eigenvalues --   -0.39038  -0.38289  -0.38202  -0.37715  -0.37574
 Alpha  occ. eigenvalues --   -0.37301  -0.36711  -0.36269  -0.35651  -0.34819
 Alpha  occ. eigenvalues --   -0.34557  -0.33505  -0.33088  -0.31728  -0.31399
 Alpha  occ. eigenvalues --   -0.30826  -0.28989  -0.28574  -0.27012  -0.23925
 Alpha  occ. eigenvalues --   -0.18668
 Alpha virt. eigenvalues --   -0.05820  -0.00397   0.02954   0.05381   0.06506
 Alpha virt. eigenvalues --    0.09147   0.09718   0.10442   0.11396   0.11954
 Alpha virt. eigenvalues --    0.12788   0.13125   0.13413   0.13771   0.14113

 Mulliken charges:
               1
     1  O   -0.532998
     2  O   -0.565430
     3  C    0.003836
     4  C   -0.137108
     5  C   -0.151814
     6  C    0.112047
     7  C    0.077526
     8  C   -0.050597
     9  C   -0.298964
    10  C   -0.301739
    11  C   -0.150660
    12  C   -0.096325
    13  C    0.161295
    14  C    0.083631
    15  C   -0.065861
    16  C   -0.210071
    17  C    0.043684
    18  C   -0.296025
    19  C   -0.302955
    20  C   -0.370414
    21  C   -0.067641
    22  C   -0.113432
    23  C   -0.366273
    24  C    0.073264
    25  C   -0.115936
    26  C   -0.382941
    27  C    0.021123
    28  C   -0.103879
    29  C   -0.341232
    30  C   -0.075105
    31  C   -0.005242
    32  C   -0.110582
    33  C   -0.131717
    34  C    0.097714
    35  C   -0.118419
    36  C    0.073036
    37  C   -0.411921
    38  C   -0.103818
    39  C   -0.121140
    40  C   -0.340877
    41  C   -0.083261
    42  C   -0.089914
    43  H    0.091840
    44  H    0.112096
    45  H    0.093121
    46  H    0.063437
    47  H    0.103671
    48  H    0.097448
    49  H    0.100339
    50  H    0.121101
    51  H    0.098963
    52  H    0.069659
    53  H    0.096386
    54  H    0.071259
    55  H    0.064231
    56  H    0.049587
    57  H    0.087077
    58  H    0.083799
    59  H    0.109452
    60  H    0.102532
    61  H    0.111276
    62  H    0.098036
    63  H    0.063534
    64  H    0.117692
    65  H    0.113845
    66  H    0.123889
    67  H    0.111209
    68  H    0.105975
    69  H    0.295919
    70  H    0.093940
    71  H    0.071532
    72  H    0.118869
    73  H    0.126235
    74  H    0.104648
    75  H    0.304546
    76  H    0.092587
    77  H    0.105275
    78  H    0.114802
    79  H    0.122654
    80  H    0.077939
    81  H    0.133629
    82  H    0.120624
    83  H    0.119377
    84  H    0.083635
    85  H    0.056247
    86  H    0.087032
    87  H    0.070032
    88  H    0.091145
    89  H    0.123716
    90  H    0.122389
    91  H    0.105734
    92  H    0.078238
    93  H    0.072390
    94  H    0.131858
    95  H    0.125357
    96  H    0.094939
    97  H    0.084489
    98  H    0.075903
 Sum of Mulliken charges =  -0.00000

 Dipole moment (field-independent basis, Debye):
    X=              1.1342    Y=             -1.3559    Z=             -0.3595  Tot=              1.8039
 Quadrupole moment (field-independent basis, Debye-Ang):
   XX=           -281.0047   YY=           -242.4940   ZZ=           -259.4929
   XY=              0.4156   XZ=             38.9334   YZ=              2.1206

 Normal termination of Gaussian 16 at Mon Jul 15 04:47:02 2019.
