 Gaussian 16, Revision A.03,
 Gaussian 16:  ES64L-G16RevA.03 25-Dec-2016

 -------------------------------------
 # td=(NStates=1) CAM-B3LYP/6-31G(d,p)
 -------------------------------------

 --
 TD
 --
 Symbolic Z-matrix:
 Charge =  0 Multiplicity = 1

                         Standard orientation:
 ---------------------------------------------------------------------
 Center     Atomic      Atomic             Coordinates (Angstroms)
 Number     Number       Type             X           Y           Z
 ---------------------------------------------------------------------
      1          8           0      -14.074010   -1.919342    0.738951
      2          8           0       14.860569    0.787506    0.291708
      3          6           0      -11.663024    0.078244    1.369198
      4          6           0      -10.999809    0.293737   -0.051173
      5          6           0      -11.974587   -1.344818    1.704817
      6          6           0      -12.680968   -2.103207    0.509691
      7          6           0      -11.689830   -0.475967   -1.235273
      8          6           0       10.988127    1.037796    1.074900
      9          6           0      -10.798445    0.532002    2.505852
     10          6           0      -12.990651    0.953284    1.240281
     11          6           0       12.487532    1.528790    0.893824
     12          6           0      -12.375520   -1.553507   -0.872197
     13          6           0       13.529023    0.416029    0.627324
     14          6           0       10.660916   -0.056438    0.089793
     15          6           0       -9.518467   -0.079201    0.028019
     16          6           0       13.119971   -0.380881   -0.678996
     17          6           0       11.582316   -0.613891   -0.782345
     18          6           0       10.081901    2.314441    0.974681
     19          6           0       10.922611    0.560907    2.532404
     20          6           0      -11.513424   -0.033860   -2.562015
     21          6           0       -8.438074    0.769090   -0.093817
     22          6           0        9.269778   -0.478959    0.063495
     23          6           0       11.299180   -1.480475   -1.990874
     24          6           0       -7.017331    0.425899   -0.175514
     25          6           0        8.768601   -1.707304   -0.053304
     26          6           0       -6.626372   -0.928862    0.037297
     27          6           0        7.365237   -2.191232   -0.126239
     28          6           0       -6.139623    1.498724   -0.423982
     29          6           0        7.066287   -3.550291    0.125242
     30          6           0        6.404221   -1.252997   -0.371997
     31          6           0       -4.843931    1.322470   -0.513387
     32          6           0        4.934399   -1.469606   -0.356157
     33          6           0       -4.014430    2.454997   -0.815410
     34          6           0       -2.684485    2.594666   -0.771299
     35          6           0        4.019489   -0.490405   -0.455029
     36          6           0        2.611588   -0.743892   -0.324192
     37          6           0       -1.984180    3.970705   -1.063467
     38          6           0       -1.769381    1.510577   -0.597940
     39          6           0        1.755670    0.299418   -0.444807
     40          6           0        2.177166   -2.121542   -0.094382
     41          6           0       -0.413522    1.433571   -0.743849
     42          6           0        0.392152    0.362882   -0.481038
     43          1           0      -11.161289    1.275297   -0.128246
     44          1           0      -12.632980   -1.587456    2.469095
     45          1           0      -11.051354   -1.813447    1.949079
     46          1           0      -12.481223   -3.186584    0.645681
     47          1           0       -9.903836   -0.337223    2.509170
     48          1           0      -10.634817    1.688083    2.159266
     49          1           0      -11.283898    0.483299    3.509368
     50          1           0      -13.770026    0.774820    0.514877
     51          1           0      -13.588797    0.984360    2.227666
     52          1           0      -12.651416    1.986740    1.351133
     53          1           0       12.507567    2.211971    0.094582
     54          1           0       12.684501    2.152922    1.691579
     55          1           0      -12.852390   -2.227689   -1.663499
     56          1           0       13.609116   -0.276055    1.612369
     57          1           0       -9.168583   -1.144474    0.203369
     58          1           0       13.817913   -1.175177   -0.809572
     59          1           0       13.304949    0.455349   -1.400183
     60          1           0        9.012812    1.897024    1.291550
     61          1           0        9.838964    2.637898   -0.107441
     62          1           0       10.573092    3.143679    1.560452
     63          1           0       11.507164   -0.190854    2.743926
     64          1           0        9.900165    0.048226    2.617294
     65          1           0       10.813511    1.407042    3.207544
     66          1           0      -10.409655    0.130403   -2.473875
     67          1           0      -11.933045    0.911807   -2.817186
     68          1           0      -11.987773   -0.598145   -3.447989
     69          1           0      -14.494627   -2.331824   -0.066374
     70          1           0        8.508312    0.482657    0.157362
     71          1           0       -8.676755    1.858543   -0.481188
     72          1           0       11.610345   -2.607808   -1.619511
     73          1           0       10.182917   -1.387409   -2.039480
     74          1           0       11.829762   -1.116059   -2.924523
     75          1           0       15.260892    1.029991    1.099041
     76          1           0        9.561192   -2.387488    0.031227
     77          1           0       -5.518563   -1.079616    0.042219
     78          1           0       -6.769160   -1.100486    1.248591
     79          1           0       -7.083117   -1.693875   -0.505724
     80          1           0       -6.517914    2.397480   -0.719437
     81          1           0        6.640009   -3.635178    1.097594
     82          1           0        6.279442   -3.802819   -0.568424
     83          1           0        7.773939   -4.191173   -0.172967
     84          1           0        6.863111   -0.274724   -0.517954
     85          1           0       -4.465138    0.438691   -0.608614
     86          1           0        4.634471   -2.472175    0.044779
     87          1           0       -4.569576    3.509578   -0.957167
     88          1           0        4.427937    0.568485   -0.628142
     89          1           0       -1.479750    3.790515   -2.036193
     90          1           0       -1.454857    4.428939   -0.137122
     91          1           0       -2.981670    4.571920   -1.044418
     92          1           0       -2.265276    0.566277   -0.696697
     93          1           0        2.245630    1.334567   -0.977670
     94          1           0        2.741699   -2.605192    0.739830
     95          1           0        1.165029   -2.172373    0.245630
     96          1           0        2.414980   -2.677679   -0.866507
     97          1           0        0.083008    2.550091   -0.850314
     98          1           0       -0.098107   -0.394331   -0.231944
 ---------------------------------------------------------------------

 SCF Done:  E(RCAM-B3LYP) =  -1706.92366347     A.U. after   16 cycles

 Excitation energies and oscillator strengths:

 Excited State   1:      Singlet-A      1.8981 eV  653.19 nm  f=2.8197  <S**2>=0.000
     155 ->158         0.11476
     156 ->157         0.70813
     156 <-157        -0.13891
 This state for optimization and/or second-order correction.
 Total Energy, E(TD-HF/TD-DFT) =  -1706.85390888
 Copying the excited state density for this state as the 1-particle RhoCI density.

 The electronic state is 1-A.
 Alpha  occ. eigenvalues --  -19.21044 -19.20930 -10.31468 -10.30237 -10.27657
 Alpha  occ. eigenvalues --  -10.27398 -10.27160 -10.27067 -10.26983 -10.26931
 Alpha  occ. eigenvalues --  -10.26907 -10.26907 -10.26895 -10.26862 -10.26759
 Alpha  occ. eigenvalues --  -10.26759 -10.26749 -10.26743 -10.26718 -10.26660
 Alpha  occ. eigenvalues --  -10.26551 -10.26460 -10.26374 -10.26357 -10.26347
 Alpha  occ. eigenvalues --  -10.26270 -10.25935 -10.25617 -10.25278 -10.25184
 Alpha  occ. eigenvalues --  -10.25123 -10.25119 -10.25105 -10.24991 -10.24808
 Alpha  occ. eigenvalues --  -10.24329 -10.24284 -10.23942 -10.23638 -10.23400
 Alpha  occ. eigenvalues --  -10.23284 -10.23200  -1.10156  -1.08870  -0.93656
 Alpha  occ. eigenvalues --   -0.93036  -0.92949  -0.92487  -0.91084  -0.90405
 Alpha  occ. eigenvalues --   -0.88077  -0.87847  -0.86477  -0.85469  -0.84703
 Alpha  occ. eigenvalues --   -0.83032  -0.82399  -0.80375  -0.80342  -0.79362
 Alpha  occ. eigenvalues --   -0.77436  -0.77006  -0.76367  -0.76027  -0.75417
 Alpha  occ. eigenvalues --   -0.74878  -0.74803  -0.74332  -0.73356  -0.70758
 Alpha  occ. eigenvalues --   -0.68177  -0.67695  -0.66205  -0.64238  -0.63866
 Alpha  occ. eigenvalues --   -0.63383  -0.62551  -0.62243  -0.60985  -0.60032
 Alpha  occ. eigenvalues --   -0.59042  -0.58269  -0.57987  -0.57452  -0.56116
 Alpha  occ. eigenvalues --   -0.55513  -0.55417  -0.54916  -0.54322  -0.54122
 Alpha  occ. eigenvalues --   -0.53780  -0.53359  -0.52652  -0.52133  -0.51601
 Alpha  occ. eigenvalues --   -0.51207  -0.50818  -0.50750  -0.50276  -0.49969
 Alpha  occ. eigenvalues --   -0.49951  -0.49647  -0.49216  -0.48674  -0.48254
 Alpha  occ. eigenvalues --   -0.47707  -0.47644  -0.47119  -0.47057  -0.47027
 Alpha  occ. eigenvalues --   -0.46047  -0.45826  -0.45076  -0.44964  -0.44866
 Alpha  occ. eigenvalues --   -0.44737  -0.43991  -0.43763  -0.43593  -0.43546
 Alpha  occ. eigenvalues --   -0.42960  -0.42680  -0.42500  -0.41864  -0.41434
 Alpha  occ. eigenvalues --   -0.41290  -0.41125  -0.40992  -0.40669  -0.40234
 Alpha  occ. eigenvalues --   -0.40135  -0.40030  -0.39540  -0.39430  -0.39278
 Alpha  occ. eigenvalues --   -0.39078  -0.38816  -0.38477  -0.38178  -0.37782
 Alpha  occ. eigenvalues --   -0.37656  -0.36525  -0.36041  -0.35689  -0.35346
 Alpha  occ. eigenvalues --   -0.34756  -0.34333  -0.33812  -0.32077  -0.31978
 Alpha  occ. eigenvalues --   -0.31490  -0.29386  -0.28997  -0.26774  -0.23649
 Alpha  occ. eigenvalues --   -0.18453
 Alpha virt. eigenvalues --   -0.06859  -0.00706   0.03181   0.06100   0.07442
 Alpha virt. eigenvalues --    0.08996   0.11194   0.11415   0.12092   0.12565
 Alpha virt. eigenvalues --    0.12688   0.13009   0.13385   0.13769   0.13920

 Mulliken charges:
               1
     1  O   -0.541856
     2  O   -0.539417
     3  C    0.003635
     4  C   -0.107534
     5  C   -0.159597
     6  C    0.123741
     7  C    0.137202
     8  C   -0.028258
     9  C   -0.266482
    10  C   -0.313560
    11  C   -0.184125
    12  C   -0.142319
    13  C    0.141893
    14  C    0.074772
    15  C   -0.113617
    16  C   -0.212386
    17  C    0.020953
    18  C   -0.306825
    19  C   -0.284845
    20  C   -0.366959
    21  C   -0.088668
    22  C   -0.112737
    23  C   -0.340350
    24  C    0.111019
    25  C   -0.118033
    26  C   -0.391068
    27  C    0.092572
    28  C   -0.078452
    29  C   -0.378580
    30  C   -0.110874
    31  C   -0.037183
    32  C   -0.112898
    33  C   -0.150254
    34  C    0.071224
    35  C   -0.088996
    36  C    0.111554
    37  C   -0.356058
    38  C   -0.110105
    39  C   -0.124322
    40  C   -0.374567
    41  C   -0.085779
    42  C   -0.044608
    43  H    0.094141
    44  H    0.122351
    45  H    0.078019
    46  H    0.072880
    47  H    0.083692
    48  H    0.074992
    49  H    0.110433
    50  H    0.131632
    51  H    0.082213
    52  H    0.084539
    53  H    0.098756
    54  H    0.082103
    55  H    0.054475
    56  H    0.047064
    57  H    0.084223
    58  H    0.119420
    59  H    0.124198
    60  H    0.095036
    61  H    0.102011
    62  H    0.106059
    63  H    0.111719
    64  H    0.086080
    65  H    0.101236
    66  H    0.118602
    67  H    0.124638
    68  H    0.110001
    69  H    0.300002
    70  H    0.058826
    71  H    0.064724
    72  H    0.093096
    73  H    0.120224
    74  H    0.114882
    75  H    0.300133
    76  H    0.080344
    77  H    0.112753
    78  H    0.104497
    79  H    0.138550
    80  H    0.082107
    81  H    0.135943
    82  H    0.120997
    83  H    0.116870
    84  H    0.071572
    85  H    0.081364
    86  H    0.078194
    87  H    0.063539
    88  H    0.088951
    89  H    0.141778
    90  H    0.124970
    91  H    0.089007
    92  H    0.063571
    93  H    0.054672
    94  H    0.110856
    95  H    0.113963
    96  H    0.143402
    97  H    0.061750
    98  H    0.050695
 Sum of Mulliken charges =  -0.00000

 Dipole moment (field-independent basis, Debye):
    X=             -0.6746    Y=             -1.5325    Z=             -0.0524  Tot=              1.6753
 Quadrupole moment (field-independent basis, Debye-Ang):
   XX=           -267.7978   YY=           -244.6593   ZZ=           -261.1840
   XY=              5.1418   XZ=             40.2519   YZ=              1.1105

 Normal termination of Gaussian 16 at Sat Jul 13 12:11:30 2019.
