 Gaussian 16, Revision A.03,
 Gaussian 16:  ES64L-G16RevA.03 25-Dec-2016

 -------------------------------------
 # td=(NStates=1) CAM-B3LYP/6-31G(d,p)
 -------------------------------------

 --
 TD
 --
 Symbolic Z-matrix:
 Charge =  0 Multiplicity = 1

                         Standard orientation:
 ---------------------------------------------------------------------
 Center     Atomic      Atomic             Coordinates (Angstroms)
 Number     Number       Type             X           Y           Z
 ---------------------------------------------------------------------
      1          8           0      -13.999565   -2.123080    0.675245
      2          8           0       14.793348    1.027905    0.111652
      3          6           0      -11.589006    0.105162    1.377102
      4          6           0      -10.956991    0.430633   -0.006170
      5          6           0      -11.795075   -1.549345    1.448895
      6          6           0      -12.665053   -2.120544    0.309900
      7          6           0      -11.712631   -0.353889   -1.206911
      8          6           0       11.039524    0.840810    1.193921
      9          6           0      -10.695389    0.558559    2.552674
     10          6           0      -12.997592    0.731604    1.501892
     11          6           0       12.460787    1.498965    0.808063
     12          6           0      -12.332973   -1.520649   -1.014063
     13          6           0       13.437521    0.424956    0.318549
     14          6           0       10.616926   -0.105910    0.072763
     15          6           0       -9.463767    0.066617   -0.111565
     16          6           0       12.975994   -0.044516   -0.947484
     17          6           0       11.462835   -0.482094   -0.949956
     18          6           0       10.089281    2.109257    1.207322
     19          6           0       11.124504    0.230337    2.643047
     20          6           0      -11.503976    0.232632   -2.554480
     21          6           0       -8.422966    0.967165   -0.332901
     22          6           0        9.260408   -0.478130    0.098368
     23          6           0       11.077454   -1.245662   -2.262634
     24          6           0       -7.077694    0.546049   -0.346908
     25          6           0        8.691416   -1.813132   -0.289636
     26          6           0       -6.731007   -0.964877   -0.123851
     27          6           0        7.378730   -2.159141   -0.123423
     28          6           0       -6.160350    1.496907   -0.459238
     29          6           0        7.103590   -3.592317    0.161345
     30          6           0        6.304329   -1.162072   -0.191241
     31          6           0       -4.722961    1.394234   -0.519127
     32          6           0        4.988290   -1.599562    0.011588
     33          6           0       -3.956848    2.546276   -0.578448
     34          6           0       -2.581072    2.675556   -0.660449
     35          6           0        3.968565   -0.714270   -0.162263
     36          6           0        2.480268   -0.849548   -0.134047
     37          6           0       -1.900561    4.097094   -0.809686
     38          6           0       -1.741139    1.564045   -0.550123
     39          6           0        1.722934    0.244009   -0.261748
     40          6           0        2.063690   -2.320244    0.037705
     41          6           0       -0.294772    1.490152   -0.445484
     42          6           0        0.303831    0.222896   -0.353535
     43          1           0      -11.175666    1.485839   -0.197336
     44          1           0      -12.431487   -2.006514    2.474037
     45          1           0      -10.640544   -1.693881    1.340592
     46          1           0      -12.328314   -3.190747    0.080337
     47          1           0       -9.676742    0.093884    2.171443
     48          1           0      -10.511437    1.542097    2.504954
     49          1           0      -11.159957    0.071113    3.653043
     50          1           0      -13.671367    0.417473    0.816268
     51          1           0      -13.622557    0.757037    2.368549
     52          1           0      -13.006634    1.703683    1.431281
     53          1           0       12.042853    2.138312   -0.241372
     54          1           0       12.893598    2.112288    1.597660
     55          1           0      -12.985308   -1.920627   -1.706614
     56          1           0       13.435375   -0.192903    1.092003
     57          1           0       -9.222304   -0.916364   -0.122678
     58          1           0       13.660307   -0.994663   -1.096156
     59          1           0       13.083456    0.755977   -1.704830
     60          1           0        9.074352    2.293932    1.885586
     61          1           0        9.919054    2.448355    0.098527
     62          1           0       10.971086    2.846310    1.537139
     63          1           0       12.141175   -0.522263    2.512172
     64          1           0       10.202949   -0.212677    2.999919
     65          1           0       11.412108    0.934691    3.505458
     66          1           0      -10.666788    0.772464   -2.622009
     67          1           0      -12.349014    1.138700   -2.730927
     68          1           0      -11.544408   -0.357838   -3.436698
     69          1           0      -14.506076   -2.162144   -0.182577
     70          1           0        8.527674    0.227503    0.349061
     71          1           0       -8.714125    2.067632   -0.525748
     72          1           0       11.433511   -2.238334   -2.438689
     73          1           0       10.063018   -1.233535   -2.482347
     74          1           0       11.697264   -0.725178   -3.100989
     75          1           0       14.949821    1.427468    1.010706
     76          1           0        9.398329   -2.614619   -0.667123
     77          1           0       -5.681596   -1.185322   -0.271691
     78          1           0       -7.159933   -1.286260    0.815748
     79          1           0       -7.597096   -1.463063   -0.978490
     80          1           0       -6.519188    2.530396   -0.742083
     81          1           0        6.775795   -3.957561    1.098367
     82          1           0        6.309850   -3.958147   -0.609134
     83          1           0        7.989223   -4.242963   -0.161329
     84          1           0        6.414207   -0.052916   -0.416379
     85          1           0       -4.365366    0.360068   -0.298174
     86          1           0        4.650810   -2.651860    0.071880
     87          1           0       -4.661851    3.332285   -0.847204
     88          1           0        4.272751    0.453666   -0.344967
     89          1           0       -0.973482    4.058915   -1.444432
     90          1           0       -1.358744    4.254582    0.178963
     91          1           0       -2.769412    4.832886   -1.078295
     92          1           0       -2.149109    0.565949   -0.555180
     93          1           0        2.236316    1.128798   -0.405593
     94          1           0        2.569935   -2.914049    1.021581
     95          1           0        0.939085   -2.375343    0.116300
     96          1           0        2.455950   -2.943155   -0.903860
     97          1           0        0.209337    2.389957   -0.620686
     98          1           0       -0.125274   -0.756000   -0.179749
 ---------------------------------------------------------------------

 SCF Done:  E(RCAM-B3LYP) =  -1706.88193529     A.U. after   15 cycles

 Excitation energies and oscillator strengths:

 Excited State   1:      Singlet-A      2.1317 eV  581.61 nm  f=3.0494  <S**2>=0.000
     155 ->158        -0.19060
     156 ->157         0.67826
 This state for optimization and/or second-order correction.
 Total Energy, E(TD-HF/TD-DFT) =  -1706.80359538
 Copying the excited state density for this state as the 1-particle RhoCI density.

 The electronic state is 1-A.
 Alpha  occ. eigenvalues --  -19.21954 -19.21229 -10.30184 -10.29249 -10.29081
 Alpha  occ. eigenvalues --  -10.28986 -10.28337 -10.28136 -10.27786 -10.27757
 Alpha  occ. eigenvalues --  -10.27730 -10.27704 -10.27680 -10.27565 -10.27556
 Alpha  occ. eigenvalues --  -10.27524 -10.27518 -10.27283 -10.27226 -10.27211
 Alpha  occ. eigenvalues --  -10.27163 -10.27126 -10.27114 -10.27067 -10.26954
 Alpha  occ. eigenvalues --  -10.26919 -10.26869 -10.26554 -10.26523 -10.26481
 Alpha  occ. eigenvalues --  -10.26382 -10.26234 -10.26074 -10.26046 -10.26030
 Alpha  occ. eigenvalues --  -10.26015 -10.25529 -10.25481 -10.25361 -10.25272
 Alpha  occ. eigenvalues --  -10.24119 -10.20250  -1.10569  -1.07196  -0.93429
 Alpha  occ. eigenvalues --   -0.92709  -0.92101  -0.91533  -0.90704  -0.89887
 Alpha  occ. eigenvalues --   -0.87164  -0.86242  -0.86066  -0.85502  -0.84575
 Alpha  occ. eigenvalues --   -0.83194  -0.81824  -0.80148  -0.79466  -0.77737
 Alpha  occ. eigenvalues --   -0.76614  -0.76427  -0.76421  -0.75404  -0.75215
 Alpha  occ. eigenvalues --   -0.74676  -0.74550  -0.74004  -0.72773  -0.70807
 Alpha  occ. eigenvalues --   -0.69743  -0.67206  -0.66311  -0.65129  -0.64100
 Alpha  occ. eigenvalues --   -0.63658  -0.63093  -0.62719  -0.60608  -0.59886
 Alpha  occ. eigenvalues --   -0.59102  -0.58695  -0.58256  -0.57747  -0.56656
 Alpha  occ. eigenvalues --   -0.55254  -0.54933  -0.54350  -0.53641  -0.53537
 Alpha  occ. eigenvalues --   -0.52829  -0.52193  -0.51850  -0.51401  -0.51165
 Alpha  occ. eigenvalues --   -0.50400  -0.49946  -0.49628  -0.49051  -0.48701
 Alpha  occ. eigenvalues --   -0.48486  -0.48365  -0.48305  -0.48058  -0.47378
 Alpha  occ. eigenvalues --   -0.46927  -0.46725  -0.46643  -0.46451  -0.46365
 Alpha  occ. eigenvalues --   -0.46158  -0.45665  -0.45570  -0.45375  -0.44733
 Alpha  occ. eigenvalues --   -0.44586  -0.44452  -0.44410  -0.44156  -0.43723
 Alpha  occ. eigenvalues --   -0.43500  -0.43075  -0.42555  -0.42370  -0.41895
 Alpha  occ. eigenvalues --   -0.41718  -0.41498  -0.41111  -0.40957  -0.40595
 Alpha  occ. eigenvalues --   -0.40541  -0.40155  -0.40046  -0.39372  -0.38933
 Alpha  occ. eigenvalues --   -0.38864  -0.38801  -0.38595  -0.38047  -0.37770
 Alpha  occ. eigenvalues --   -0.37456  -0.37377  -0.37062  -0.35991  -0.35868
 Alpha  occ. eigenvalues --   -0.34700  -0.34118  -0.33269  -0.32071  -0.31926
 Alpha  occ. eigenvalues --   -0.31231  -0.29463  -0.29040  -0.27100  -0.22658
 Alpha  occ. eigenvalues --   -0.19572
 Alpha virt. eigenvalues --   -0.05867  -0.02286   0.02217   0.05440   0.06721
 Alpha virt. eigenvalues --    0.08391   0.10209   0.10954   0.11155   0.11692
 Alpha virt. eigenvalues --    0.12062   0.12297   0.12617   0.12992   0.13615

 Mulliken charges:
               1
     1  O   -0.528406
     2  O   -0.569943
     3  C    0.007594
     4  C   -0.134800
     5  C   -0.168401
     6  C    0.169911
     7  C    0.116112
     8  C   -0.009999
     9  C   -0.270361
    10  C   -0.302736
    11  C   -0.219560
    12  C   -0.155811
    13  C    0.182401
    14  C    0.084578
    15  C   -0.111507
    16  C   -0.215127
    17  C    0.035310
    18  C   -0.302573
    19  C   -0.284760
    20  C   -0.349517
    21  C   -0.087843
    22  C   -0.125581
    23  C   -0.361024
    24  C    0.118567
    25  C   -0.135719
    26  C   -0.350401
    27  C    0.088126
    28  C   -0.137559
    29  C   -0.378232
    30  C   -0.113849
    31  C   -0.060388
    32  C   -0.061038
    33  C   -0.126457
    34  C    0.087617
    35  C   -0.136686
    36  C    0.123737
    37  C   -0.369311
    38  C   -0.116793
    39  C   -0.104348
    40  C   -0.364748
    41  C   -0.080915
    42  C   -0.082859
    43  H    0.096077
    44  H    0.080678
    45  H    0.078055
    46  H    0.064820
    47  H    0.081480
    48  H    0.110263
    49  H    0.082447
    50  H    0.106568
    51  H    0.095269
    52  H    0.085773
    53  H    0.067701
    54  H    0.087826
    55  H    0.063543
    56  H    0.095530
    57  H    0.090078
    58  H    0.100067
    59  H    0.131970
    60  H    0.091718
    61  H    0.099368
    62  H    0.095831
    63  H    0.065153
    64  H    0.123043
    65  H    0.099234
    66  H    0.128340
    67  H    0.076212
    68  H    0.122323
    69  H    0.306966
    70  H    0.094982
    71  H    0.085725
    72  H    0.123319
    73  H    0.130138
    74  H    0.093012
    75  H    0.300886
    76  H    0.089432
    77  H    0.115935
    78  H    0.140881
    79  H    0.083187
    80  H    0.069910
    81  H    0.139212
    82  H    0.105411
    83  H    0.102586
    84  H    0.099113
    85  H    0.076785
    86  H    0.087578
    87  H    0.079388
    88  H    0.047482
    89  H    0.121665
    90  H    0.125632
    91  H    0.110261
    92  H    0.075782
    93  H    0.081349
    94  H    0.102188
    95  H    0.100004
    96  H    0.116590
    97  H    0.083179
    98  H    0.095353
 Sum of Mulliken charges =  -0.00000

 Dipole moment (field-independent basis, Debye):
    X=              0.2654    Y=              0.0952    Z=             -0.8823  Tot=              0.9263
 Quadrupole moment (field-independent basis, Debye-Ang):
   XX=           -297.1589   YY=           -248.0803   ZZ=           -263.4250
   XY=            -12.4305   XZ=             45.6435   YZ=              4.9038

 Normal termination of Gaussian 16 at Mon Jul 15 16:58:56 2019.
