 Gaussian 16, Revision A.03,
 Gaussian 16:  ES64L-G16RevA.03 25-Dec-2016

 -------------------------------------
 # td=(NStates=1) CAM-B3LYP/6-31G(d,p)
 -------------------------------------

 --
 TD
 --
 Symbolic Z-matrix:
 Charge =  0 Multiplicity = 1

                         Standard orientation:
 ---------------------------------------------------------------------
 Center     Atomic      Atomic             Coordinates (Angstroms)
 Number     Number       Type             X           Y           Z
 ---------------------------------------------------------------------
      1          8           0      -14.139443   -1.986281    0.572600
      2          8           0       14.814807    0.718728    0.311767
      3          6           0      -11.767171    0.130996    1.344274
      4          6           0      -11.008927    0.353295   -0.049922
      5          6           0      -12.018732   -1.354079    1.466437
      6          6           0      -12.677764   -2.049711    0.388485
      7          6           0      -11.626846   -0.364799   -1.278296
      8          6           0       11.093649    1.074750    1.038753
      9          6           0      -10.990253    0.733548    2.467202
     10          6           0      -13.063905    0.788551    1.254657
     11          6           0       12.540703    1.597853    0.771679
     12          6           0      -12.304376   -1.435030   -0.994717
     13          6           0       13.415227    0.442340    0.375796
     14          6           0       10.652726   -0.026193   -0.005102
     15          6           0       -9.642107    0.022921    0.180646
     16          6           0       13.027884   -0.192743   -0.888127
     17          6           0       11.553107   -0.480063   -0.921750
     18          6           0       10.202650    2.272464    0.871756
     19          6           0       11.031868    0.672522    2.483780
     20          6           0      -11.486331    0.059800   -2.661426
     21          6           0       -8.589248    0.840037   -0.007310
     22          6           0        9.282909   -0.484554    0.189180
     23          6           0       11.273236   -1.438342   -2.080495
     24          6           0       -7.163616    0.435269   -0.097810
     25          6           0        8.889212   -1.713990    0.012411
     26          6           0       -6.735126   -0.901879    0.264202
     27          6           0        7.517511   -2.243812   -0.031318
     28          6           0       -6.190756    1.357137   -0.446650
     29          6           0        7.226158   -3.572609    0.275346
     30          6           0        6.532456   -1.239667   -0.183085
     31          6           0       -4.788455    1.312540   -0.488358
     32          6           0        5.091018   -1.557805   -0.155610
     33          6           0       -4.059612    2.437910   -0.765780
     34          6           0       -2.651291    2.482895   -0.768680
     35          6           0        4.159028   -0.608879   -0.411752
     36          6           0        2.663425   -0.800954   -0.279630
     37          6           0       -1.985408    3.806597   -1.131525
     38          6           0       -1.843765    1.408831   -0.454816
     39          6           0        1.863055    0.327424   -0.458928
     40          6           0        2.168347   -2.230386    0.043966
     41          6           0       -0.425883    1.472534   -0.437489
     42          6           0        0.395018    0.303091   -0.377519
     43          1           0      -11.017858    1.427231   -0.423444
     44          1           0      -12.584544   -1.735630    2.394509
     45          1           0      -10.946884   -1.842045    1.394501
     46          1           0      -12.676948   -2.985474    0.426165
     47          1           0      -10.118787    0.020878    2.707059
     48          1           0      -10.881565    1.844644    2.501522
     49          1           0      -11.448018    0.525405    3.334888
     50          1           0      -13.741589    0.394196    0.381403
     51          1           0      -13.686759    0.603875    2.141185
     52          1           0      -13.057205    1.891815    0.872251
     53          1           0       12.302654    2.501660   -0.144890
     54          1           0       12.810639    2.104751    1.660934
     55          1           0      -12.545648   -2.005980   -1.702216
     56          1           0       13.342514   -0.335726    1.256875
     57          1           0       -9.366601   -1.089312    0.194340
     58          1           0       13.664778   -1.098076   -1.089767
     59          1           0       13.343270    0.561847   -1.630724
     60          1           0        9.380459    2.299624    1.389813
     61          1           0        9.973242    2.414904   -0.357404
     62          1           0       10.542635    3.389213    1.129265
     63          1           0       11.973426   -0.041298    2.704883
     64          1           0       10.123469    0.090544    2.544850
     65          1           0       10.941009    1.724305    3.191177
     66          1           0      -10.321726    0.251094   -2.867669
     67          1           0      -11.873085    1.071481   -3.012887
     68          1           0      -11.733608   -0.754265   -3.395327
     69          1           0      -14.658112   -2.502743   -0.091094
     70          1           0        8.434032    0.273296    0.472396
     71          1           0       -8.859619    1.802152   -0.285394
     72          1           0       11.469419   -2.424045   -1.926008
     73          1           0       10.153301   -1.560478   -2.321877
     74          1           0       11.466389   -1.180724   -3.239799
     75          1           0       15.040979    1.207982    1.305074
     76          1           0        9.686747   -2.684520    0.013770
     77          1           0       -5.589654   -1.104128    0.233226
     78          1           0       -7.177809   -1.277643    1.061661
     79          1           0       -7.131540   -1.652057   -0.695503
     80          1           0       -6.551789    2.424616   -0.545577
     81          1           0        6.905502   -3.738553    1.394199
     82          1           0        6.481512   -4.150784   -0.472628
     83          1           0        8.126728   -4.329398    0.174421
     84          1           0        6.898762   -0.242951   -0.096482
     85          1           0       -4.225855    0.414725   -0.039913
     86          1           0        4.680665   -2.697728   -0.087104
     87          1           0       -4.731550    3.260239   -0.962642
     88          1           0        4.375451    0.500935   -0.597584
     89          1           0       -1.153608    3.754204   -1.812010
     90          1           0       -1.616903    4.371607   -0.149644
     91          1           0       -2.791610    4.296554   -1.504120
     92          1           0       -2.404097    0.453299   -0.132858
     93          1           0        2.220430    1.366657   -0.507569
     94          1           0        2.500264   -2.289460    1.093076
     95          1           0        0.926034   -2.034782    0.026400
     96          1           0        2.574776   -2.962449   -0.474771
     97          1           0        0.000122    2.409465   -0.475497
     98          1           0       -0.206858   -0.619407   -0.347230
 ---------------------------------------------------------------------

 SCF Done:  E(RCAM-B3LYP) =  -1706.86641468     A.U. after   15 cycles

 Excitation energies and oscillator strengths:

 Excited State   1:      Singlet-A      2.3531 eV  526.89 nm  f=2.8680  <S**2>=0.000
     155 ->158         0.17001
     156 ->157         0.68368
 This state for optimization and/or second-order correction.
 Total Energy, E(TD-HF/TD-DFT) =  -1706.77993848
 Copying the excited state density for this state as the 1-particle RhoCI density.

 The electronic state is 1-A.
 Alpha  occ. eigenvalues --  -19.21665 -19.19757 -10.30160 -10.28975 -10.28497
 Alpha  occ. eigenvalues --  -10.27801 -10.27730 -10.27580 -10.27482 -10.27308
 Alpha  occ. eigenvalues --  -10.27247 -10.27232 -10.27182 -10.27142 -10.27105
 Alpha  occ. eigenvalues --  -10.27082 -10.27009 -10.26891 -10.26823 -10.26663
 Alpha  occ. eigenvalues --  -10.26565 -10.26520 -10.26510 -10.26495 -10.26468
 Alpha  occ. eigenvalues --  -10.26374 -10.26316 -10.26289 -10.26122 -10.26090
 Alpha  occ. eigenvalues --  -10.26007 -10.25953 -10.25818 -10.25738 -10.25452
 Alpha  occ. eigenvalues --  -10.25362 -10.25270 -10.25209 -10.25102 -10.23662
 Alpha  occ. eigenvalues --  -10.23462 -10.22938  -1.07108  -1.06773  -0.94651
 Alpha  occ. eigenvalues --   -0.93775  -0.92132  -0.91475  -0.90434  -0.89661
 Alpha  occ. eigenvalues --   -0.88432  -0.87402  -0.86905  -0.85747  -0.84975
 Alpha  occ. eigenvalues --   -0.83544  -0.82313  -0.81560  -0.80283  -0.78274
 Alpha  occ. eigenvalues --   -0.76676  -0.76270  -0.76199  -0.75861  -0.75856
 Alpha  occ. eigenvalues --   -0.75259  -0.75014  -0.74859  -0.72811  -0.69846
 Alpha  occ. eigenvalues --   -0.68803  -0.67855  -0.65766  -0.64218  -0.63874
 Alpha  occ. eigenvalues --   -0.63639  -0.62315  -0.62218  -0.60222  -0.59673
 Alpha  occ. eigenvalues --   -0.58747  -0.58050  -0.57442  -0.56890  -0.56643
 Alpha  occ. eigenvalues --   -0.56446  -0.55594  -0.55027  -0.54683  -0.53693
 Alpha  occ. eigenvalues --   -0.53557  -0.53255  -0.52510  -0.52014  -0.51357
 Alpha  occ. eigenvalues --   -0.50990  -0.50406  -0.49888  -0.49433  -0.48933
 Alpha  occ. eigenvalues --   -0.48726  -0.48610  -0.48384  -0.48261  -0.47976
 Alpha  occ. eigenvalues --   -0.47774  -0.47371  -0.47308  -0.47034  -0.46304
 Alpha  occ. eigenvalues --   -0.45788  -0.45358  -0.45287  -0.45072  -0.44600
 Alpha  occ. eigenvalues --   -0.44401  -0.44208  -0.43782  -0.43526  -0.43345
 Alpha  occ. eigenvalues --   -0.43141  -0.42713  -0.42481  -0.42376  -0.41940
 Alpha  occ. eigenvalues --   -0.41775  -0.41501  -0.40928  -0.40389  -0.40238
 Alpha  occ. eigenvalues --   -0.39818  -0.39217  -0.39166  -0.39069  -0.38699
 Alpha  occ. eigenvalues --   -0.38417  -0.37983  -0.37850  -0.37502  -0.37195
 Alpha  occ. eigenvalues --   -0.37087  -0.36865  -0.36524  -0.36293  -0.35693
 Alpha  occ. eigenvalues --   -0.35240  -0.34312  -0.33489  -0.31619  -0.31437
 Alpha  occ. eigenvalues --   -0.31042  -0.29653  -0.29334  -0.26879  -0.23752
 Alpha  occ. eigenvalues --   -0.19999
 Alpha virt. eigenvalues --   -0.05114  -0.01360   0.02689   0.05626   0.06893
 Alpha virt. eigenvalues --    0.08469   0.09145   0.10820   0.11134   0.11380
 Alpha virt. eigenvalues --    0.12058   0.12636   0.12774   0.13024   0.13487

 Mulliken charges:
               1
     1  O   -0.590899
     2  O   -0.574755
     3  C    0.047269
     4  C   -0.173919
     5  C   -0.191513
     6  C    0.203863
     7  C    0.168691
     8  C    0.004782
     9  C   -0.294510
    10  C   -0.297965
    11  C   -0.170237
    12  C   -0.109729
    13  C    0.188423
    14  C    0.071273
    15  C   -0.044191
    16  C   -0.212269
    17  C    0.047582
    18  C   -0.300588
    19  C   -0.285208
    20  C   -0.383696
    21  C   -0.095189
    22  C   -0.120694
    23  C   -0.381521
    24  C    0.121820
    25  C   -0.090368
    26  C   -0.360815
    27  C    0.126947
    28  C   -0.156937
    29  C   -0.395774
    30  C   -0.100741
    31  C   -0.037711
    32  C   -0.113772
    33  C   -0.131894
    34  C    0.081523
    35  C   -0.082889
    36  C    0.068864
    37  C   -0.362177
    38  C   -0.104844
    39  C   -0.126045
    40  C   -0.344839
    41  C   -0.093250
    42  C   -0.099576
    43  H    0.077365
    44  H    0.103458
    45  H    0.080074
    46  H    0.080353
    47  H    0.088862
    48  H    0.109100
    49  H    0.111089
    50  H    0.111599
    51  H    0.099764
    52  H    0.070131
    53  H    0.058099
    54  H    0.090219
    55  H    0.039342
    56  H    0.056347
    57  H    0.077071
    58  H    0.120049
    59  H    0.124783
    60  H    0.109421
    61  H    0.076361
    62  H    0.083594
    63  H    0.085959
    64  H    0.114041
    65  H    0.074964
    66  H    0.096537
    67  H    0.121281
    68  H    0.117242
    69  H    0.299419
    70  H    0.095589
    71  H    0.072607
    72  H    0.132117
    73  H    0.103129
    74  H    0.096617
    75  H    0.296680
    76  H    0.065357
    77  H    0.107594
    78  H    0.133622
    79  H    0.073517
    80  H    0.070016
    81  H    0.126460
    82  H    0.107630
    83  H    0.096229
    84  H    0.083040
    85  H    0.079814
    86  H    0.083031
    87  H    0.087476
    88  H    0.080889
    89  H    0.126573
    90  H    0.104413
    91  H    0.114288
    92  H    0.068795
    93  H    0.091653
    94  H    0.135164
    95  H    0.088813
    96  H    0.132853
    97  H    0.082680
    98  H    0.084309
 Sum of Mulliken charges =  -0.00000

 Dipole moment (field-independent basis, Debye):
    X=             -1.7845    Y=             -1.2939    Z=              0.3788  Tot=              2.2365
 Quadrupole moment (field-independent basis, Debye-Ang):
   XX=           -298.7662   YY=           -239.9115   ZZ=           -261.3582
   XY=             12.6131   XZ=             36.4396   YZ=              2.8312

 Normal termination of Gaussian 16 at Mon Jul 15 20:25:20 2019.
