 Gaussian 16, Revision A.03,
 Gaussian 16:  ES64L-G16RevA.03 25-Dec-2016

 -------------------------------------
 # td=(NStates=1) CAM-B3LYP/6-31G(d,p)
 -------------------------------------

 --
 TD
 --
 Symbolic Z-matrix:
 Charge =  0 Multiplicity = 1

                         Standard orientation:
 ---------------------------------------------------------------------
 Center     Atomic      Atomic             Coordinates (Angstroms)
 Number     Number       Type             X           Y           Z
 ---------------------------------------------------------------------
      1          8           0      -14.357082   -1.719927    0.506244
      2          8           0       14.788975    0.951948   -0.005424
      3          6           0      -11.759090    0.122224    1.233006
      4          6           0      -11.010620    0.394491   -0.003124
      5          6           0      -12.113326   -1.368833    1.469010
      6          6           0      -12.922602   -1.970560    0.232825
      7          6           0      -11.650030   -0.452007   -1.230387
      8          6           0       11.178407    1.166292    1.004316
      9          6           0      -11.088308    0.726018    2.472752
     10          6           0      -13.141640    0.832786    1.139972
     11          6           0       12.521170    1.684236    0.553971
     12          6           0      -12.459226   -1.451678   -1.060545
     13          6           0       13.415696    0.461034    0.204843
     14          6           0       10.651344   -0.032289   -0.069715
     15          6           0       -9.508349   -0.087553    0.123745
     16          6           0       12.929015   -0.204045   -0.902316
     17          6           0       11.520555   -0.550365   -0.849756
     18          6           0       10.132442    2.253330    0.814722
     19          6           0       11.197625    0.702710    2.432235
     20          6           0      -11.299205    0.144562   -2.631190
     21          6           0       -8.525062    0.767463   -0.172058
     22          6           0        9.333737   -0.443126    0.207825
     23          6           0       11.244175   -1.520749   -1.998856
     24          6           0       -7.144927    0.402982   -0.254440
     25          6           0        8.892037   -1.665475    0.170957
     26          6           0       -6.748904   -0.990801   -0.142096
     27          6           0        7.518371   -2.150332    0.164437
     28          6           0       -6.193973    1.433592   -0.289784
     29          6           0        7.388022   -3.606065    0.514315
     30          6           0        6.513728   -1.269405   -0.109189
     31          6           0       -4.811928    1.339979   -0.295559
     32          6           0        5.073253   -1.567217    0.022530
     33          6           0       -3.975800    2.481445   -0.717476
     34          6           0       -2.656644    2.445340   -0.603600
     35          6           0        4.138584   -0.583815   -0.346057
     36          6           0        2.719958   -0.851410   -0.254110
     37          6           0       -1.919944    3.847316   -0.945714
     38          6           0       -1.794465    1.384767   -0.340949
     39          6           0        1.758415    0.131568   -0.309470
     40          6           0        2.218938   -2.290101    0.123928
     41          6           0       -0.382702    1.314270   -0.396080
     42          6           0        0.398025    0.061595   -0.299114
     43          1           0      -11.067527    1.490347   -0.431140
     44          1           0      -12.660011   -1.488681    2.400627
     45          1           0      -11.267857   -1.974127    1.524210
     46          1           0      -12.775463   -3.169417    0.241782
     47          1           0      -10.295890    0.102793    2.689603
     48          1           0      -10.632455    1.579022    2.228688
     49          1           0      -11.811391    0.608082    3.424455
     50          1           0      -13.878156    0.660560    0.187480
     51          1           0      -13.803086    0.543884    1.989991
     52          1           0      -13.038358    1.864476    1.527002
     53          1           0       12.458644    2.079675   -0.529749
     54          1           0       13.022850    2.598818    1.048011
     55          1           0      -12.580197   -2.106539   -2.109874
     56          1           0       13.439136   -0.193092    1.204451
     57          1           0       -9.445493   -1.183194    0.095513
     58          1           0       13.574944   -1.054021   -1.331030
     59          1           0       13.000964    0.376413   -1.842918
     60          1           0        9.152264    1.917580    1.338434
     61          1           0        9.976696    2.474698   -0.088191
     62          1           0       10.472088    3.095217    1.508020
     63          1           0       11.946274   -0.226252    2.431109
     64          1           0       10.296096    0.162435    2.601113
     65          1           0       11.325046    1.520134    2.914009
     66          1           0      -10.201195    0.327677   -2.510945
     67          1           0      -11.785112    1.101294   -2.583515
     68          1           0      -11.542128   -0.490823   -3.560041
     69          1           0      -14.711660   -2.076454   -0.409084
     70          1           0        8.617159    0.213558    0.498461
     71          1           0       -8.883289    1.840814   -0.282677
     72          1           0       11.603191   -2.499378   -1.784290
     73          1           0       10.138886   -1.720159   -2.012468
     74          1           0       11.662686   -1.294593   -3.039061
     75          1           0       15.052090    1.691013    0.698456
     76          1           0        9.722443   -2.603315   -0.131549
     77          1           0       -5.574567   -0.972829   -0.143048
     78          1           0       -7.256863   -1.301973    0.886858
     79          1           0       -7.093538   -1.873876   -0.852413
     80          1           0       -6.746493    2.503781   -0.188399
     81          1           0        7.393944   -3.738699    1.643235
     82          1           0        6.318931   -3.915897    0.138410
     83          1           0        8.411142   -4.211052    0.036496
     84          1           0        6.850723   -0.171054   -0.507117
     85          1           0       -4.358918    0.480149    0.077481
     86          1           0        4.926872   -2.395952    0.407036
     87          1           0       -4.427005    3.339456   -1.067643
     88          1           0        4.629991    0.225279   -0.665088
     89          1           0       -1.152280    3.742634   -1.810315
     90          1           0       -1.346717    4.313870   -0.073337
     91          1           0       -2.711819    4.714843   -1.236377
     92          1           0       -2.374031    0.514489   -0.065057
     93          1           0        2.297426    1.225093   -0.260321
     94          1           0        1.788850   -2.505023    1.345674
     95          1           0        1.175222   -2.297312   -0.405007
     96          1           0        2.793097   -3.252912   -0.369975
     97          1           0        0.330483    2.232749   -0.538977
     98          1           0       -0.232291   -0.933424   -0.246388
 ---------------------------------------------------------------------

 SCF Done:  E(RCAM-B3LYP) =  -1706.82754507     A.U. after   16 cycles

 Excitation energies and oscillator strengths:

 Excited State   1:      Singlet-A      1.8223 eV  680.38 nm  f=2.8105  <S**2>=0.000
     155 ->158         0.11773
     156 ->157         0.70716
     156 <-157        -0.13442
 This state for optimization and/or second-order correction.
 Total Energy, E(TD-HF/TD-DFT) =  -1706.76057805
 Copying the excited state density for this state as the 1-particle RhoCI density.

 The electronic state is 1-A.
 Alpha  occ. eigenvalues --  -19.21557 -19.20609 -10.31905 -10.30479 -10.29486
 Alpha  occ. eigenvalues --  -10.28915 -10.28529 -10.28437 -10.28418 -10.28351
 Alpha  occ. eigenvalues --  -10.28208 -10.28077 -10.27788 -10.27775 -10.27689
 Alpha  occ. eigenvalues --  -10.27621 -10.27423 -10.27330 -10.27320 -10.27150
 Alpha  occ. eigenvalues --  -10.27023 -10.26894 -10.26791 -10.26741 -10.26706
 Alpha  occ. eigenvalues --  -10.26660 -10.26426 -10.26424 -10.26334 -10.25939
 Alpha  occ. eigenvalues --  -10.25905 -10.25845 -10.25617 -10.25110 -10.25047
 Alpha  occ. eigenvalues --  -10.24835 -10.24778 -10.24275 -10.23907 -10.23703
 Alpha  occ. eigenvalues --  -10.23524 -10.23519  -1.06657  -1.05752  -0.94798
 Alpha  occ. eigenvalues --   -0.93719  -0.92552  -0.91765  -0.91124  -0.90382
 Alpha  occ. eigenvalues --   -0.88637  -0.87460  -0.86892  -0.86018  -0.84959
 Alpha  occ. eigenvalues --   -0.83054  -0.81629  -0.80761  -0.79954  -0.77650
 Alpha  occ. eigenvalues --   -0.77403  -0.76385  -0.76032  -0.75850  -0.75543
 Alpha  occ. eigenvalues --   -0.75254  -0.74660  -0.74332  -0.72358  -0.70886
 Alpha  occ. eigenvalues --   -0.69560  -0.67372  -0.66949  -0.65492  -0.64487
 Alpha  occ. eigenvalues --   -0.63529  -0.62358  -0.61641  -0.60269  -0.59686
 Alpha  occ. eigenvalues --   -0.59358  -0.58573  -0.57770  -0.56763  -0.56098
 Alpha  occ. eigenvalues --   -0.55099  -0.54799  -0.54636  -0.54054  -0.53707
 Alpha  occ. eigenvalues --   -0.53099  -0.52765  -0.52576  -0.52067  -0.51559
 Alpha  occ. eigenvalues --   -0.51187  -0.49972  -0.49850  -0.49737  -0.48825
 Alpha  occ. eigenvalues --   -0.48597  -0.48496  -0.47965  -0.47694  -0.47269
 Alpha  occ. eigenvalues --   -0.47088  -0.46904  -0.46796  -0.46592  -0.46576
 Alpha  occ. eigenvalues --   -0.46340  -0.45885  -0.45499  -0.45226  -0.44987
 Alpha  occ. eigenvalues --   -0.44653  -0.44029  -0.43955  -0.43596  -0.43447
 Alpha  occ. eigenvalues --   -0.43062  -0.42681  -0.42396  -0.42305  -0.42204
 Alpha  occ. eigenvalues --   -0.41811  -0.41756  -0.41125  -0.40230  -0.40133
 Alpha  occ. eigenvalues --   -0.40105  -0.40069  -0.39728  -0.39663  -0.39338
 Alpha  occ. eigenvalues --   -0.39212  -0.38460  -0.38421  -0.38165  -0.37520
 Alpha  occ. eigenvalues --   -0.37420  -0.37297  -0.36375  -0.35802  -0.35593
 Alpha  occ. eigenvalues --   -0.35371  -0.34095  -0.33356  -0.32112  -0.31782
 Alpha  occ. eigenvalues --   -0.30583  -0.30537  -0.30011  -0.27482  -0.24528
 Alpha  occ. eigenvalues --   -0.19037
 Alpha virt. eigenvalues --   -0.07698  -0.01412   0.02335   0.05270   0.06983
 Alpha virt. eigenvalues --    0.08166   0.10675   0.10989   0.11098   0.11281
 Alpha virt. eigenvalues --    0.11641   0.11703   0.12340   0.12845   0.13153

 Mulliken charges:
               1
     1  O   -0.538476
     2  O   -0.601322
     3  C    0.024118
     4  C   -0.129540
     5  C   -0.172391
     6  C    0.107783
     7  C    0.097485
     8  C   -0.027258
     9  C   -0.297970
    10  C   -0.296054
    11  C   -0.214241
    12  C   -0.132867
    13  C    0.201060
    14  C    0.054690
    15  C   -0.101621
    16  C   -0.221724
    17  C    0.063641
    18  C   -0.282215
    19  C   -0.265609
    20  C   -0.349907
    21  C   -0.089836
    22  C   -0.085643
    23  C   -0.383331
    24  C    0.129285
    25  C   -0.106253
    26  C   -0.366478
    27  C    0.093313
    28  C   -0.116133
    29  C   -0.347738
    30  C   -0.140061
    31  C   -0.107719
    32  C   -0.035752
    33  C   -0.111759
    34  C    0.125996
    35  C   -0.092045
    36  C    0.084516
    37  C   -0.373306
    38  C   -0.117915
    39  C   -0.098945
    40  C   -0.344455
    41  C   -0.095499
    42  C   -0.089867
    43  H    0.084614
    44  H    0.115492
    45  H    0.091694
    46  H    0.061290
    47  H    0.105743
    48  H    0.108416
    49  H    0.087178
    50  H    0.102081
    51  H    0.097649
    52  H    0.079449
    53  H    0.092252
    54  H    0.079267
    55  H    0.062639
    56  H    0.064823
    57  H    0.100257
    58  H    0.114708
    59  H    0.125784
    60  H    0.086461
    61  H    0.114473
    62  H    0.080555
    63  H    0.088878
    64  H    0.110235
    65  H    0.104581
    66  H    0.117415
    67  H    0.130739
    68  H    0.106421
    69  H    0.300868
    70  H    0.080316
    71  H    0.087053
    72  H    0.121895
    73  H    0.111582
    74  H    0.104733
    75  H    0.306158
    76  H    0.044228
    77  H    0.094325
    78  H    0.112998
    79  H    0.116956
    80  H    0.079709
    81  H    0.129378
    82  H    0.101374
    83  H    0.093728
    84  H    0.077611
    85  H    0.103294
    86  H    0.055467
    87  H    0.092751
    88  H    0.078114
    89  H    0.115063
    90  H    0.117488
    91  H    0.083478
    92  H    0.070910
    93  H    0.076227
    94  H    0.091994
    95  H    0.103453
    96  H    0.098882
    97  H    0.092382
    98  H    0.096537
 Sum of Mulliken charges =  -0.00000

 Dipole moment (field-independent basis, Debye):
    X=             -0.4129    Y=             -0.0003    Z=             -0.4626  Tot=              0.6201
 Quadrupole moment (field-independent basis, Debye-Ang):
   XX=           -317.2659   YY=           -245.4988   ZZ=           -263.3147
   XY=             13.6853   XZ=             29.8022   YZ=              2.9895

 Normal termination of Gaussian 16 at Tue Jul 16 08:15:42 2019.
