 Gaussian 16, Revision A.03,
 Gaussian 16:  ES64L-G16RevA.03 25-Dec-2016

 -------------------------------------
 # td=(NStates=1) CAM-B3LYP/6-31G(d,p)
 -------------------------------------

 --
 TD
 --
 Symbolic Z-matrix:
 Charge =  0 Multiplicity = 1

                         Standard orientation:
 ---------------------------------------------------------------------
 Center     Atomic      Atomic             Coordinates (Angstroms)
 Number     Number       Type             X           Y           Z
 ---------------------------------------------------------------------
      1          8           0      -14.251779   -1.936038    0.447357
      2          8           0       14.857080    0.613990    0.268714
      3          6           0      -11.731351   -0.085850    1.455916
      4          6           0      -11.063405    0.319760    0.151916
      5          6           0      -12.079018   -1.609487    1.430588
      6          6           0      -12.864796   -2.155237    0.171633
      7          6           0      -11.731086   -0.307623   -1.112823
      8          6           0       11.150632    0.892558    1.203952
      9          6           0      -10.899766    0.297247    2.680901
     10          6           0      -13.047610    0.736031    1.444379
     11          6           0       12.569238    1.373234    0.912715
     12          6           0      -12.411183   -1.414715   -1.025728
     13          6           0       13.523355    0.214763    0.463543
     14          6           0       10.733358   -0.040676    0.056292
     15          6           0       -9.587672   -0.063458    0.044775
     16          6           0       12.920822   -0.186220   -0.898422
     17          6           0       11.538511   -0.469797   -0.999590
     18          6           0       10.394431    2.274515    1.164129
     19          6           0       11.104873    0.235520    2.531810
     20          6           0      -11.318772    0.326964   -2.402864
     21          6           0       -8.503727    0.708418   -0.159974
     22          6           0        9.269166   -0.377954    0.066731
     23          6           0       11.046544   -1.112082   -2.280152
     24          6           0       -7.134152    0.445957   -0.280393
     25          6           0        8.834515   -1.661500   -0.159474
     26          6           0       -6.696845   -0.991654   -0.338356
     27          6           0        7.497952   -1.990855   -0.110996
     28          6           0       -6.269107    1.527226   -0.369452
     29          6           0        7.186633   -3.618718   -0.022959
     30          6           0        6.362590   -1.160452   -0.165952
     31          6           0       -4.813973    1.420418   -0.530098
     32          6           0        5.036610   -1.488898   -0.071181
     33          6           0       -4.017136    2.571154   -0.562999
     34          6           0       -2.563771    2.710332   -0.732946
     35          6           0        4.024124   -0.553172   -0.245960
     36          6           0        2.673634   -0.721877   -0.204563
     37          6           0       -2.022857    4.017083   -1.037113
     38          6           0       -1.757242    1.487846   -0.489814
     39          6           0        1.778742    0.386431   -0.334767
     40          6           0        2.148572   -2.146918   -0.003854
     41          6           0       -0.359792    1.448867   -0.555638
     42          6           0        0.438787    0.372387   -0.237033
     43          1           0      -10.999182    1.475602    0.022525
     44          1           0      -12.549446   -1.930927    2.258223
     45          1           0      -11.060728   -2.007357    1.609805
     46          1           0      -12.550787   -3.233842    0.216318
     47          1           0       -9.863986    0.109629    2.529654
     48          1           0      -10.984432    1.590286    2.868769
     49          1           0      -11.291263   -0.008056    3.541978
     50          1           0      -13.734099    0.718826    0.490682
     51          1           0      -13.593230    0.666171    2.388671
     52          1           0      -12.855847    1.878066    1.329345
     53          1           0       12.706510    2.135364    0.219606
     54          1           0       12.979395    1.887434    1.739090
     55          1           0      -13.126343   -1.724126   -1.935566
     56          1           0       13.593370   -0.644984    1.201055
     57          1           0       -9.445144   -1.048267    0.313763
     58          1           0       13.553719   -1.218567   -1.154470
     59          1           0       13.188892    0.586377   -1.671069
     60          1           0        9.485205    2.102821    1.685585
     61          1           0        9.939207    2.567586    0.242996
     62          1           0       10.748314    2.954352    1.945049
     63          1           0       11.692907   -0.649921    2.650746
     64          1           0        9.959332    0.096333    2.728790
     65          1           0       11.437131    0.854258    3.377493
     66          1           0      -10.213031    0.339973   -2.702977
     67          1           0      -11.544817    1.406060   -2.479689
     68          1           0      -11.864536   -0.104157   -3.259541
     69          1           0      -14.661403   -2.079709   -0.401627
     70          1           0        8.780853    0.444356    0.379363
     71          1           0       -8.813723    1.718474   -0.230818
     72          1           0       11.188646   -2.332368   -2.375911
     73          1           0        9.900887   -0.950578   -2.586605
     74          1           0       11.721341   -0.448441   -3.065241
     75          1           0       15.075423    1.129261    1.230023
     76          1           0        9.844849   -2.283429   -0.631870
     77          1           0       -5.639723   -1.373466   -0.411948
     78          1           0       -7.149508   -1.732458    0.363198
     79          1           0       -7.180358   -1.547031   -1.111487
     80          1           0       -6.535452    2.750864   -0.219718
     81          1           0        6.795477   -3.754826    1.059768
     82          1           0        6.770053   -3.997988   -1.112851
     83          1           0        8.097842   -4.086671   -0.012469
     84          1           0        6.589592   -0.133259   -0.373492
     85          1           0       -4.476414    0.441726   -0.683701
     86          1           0        4.800477   -2.714534   -0.041469
     87          1           0       -4.345462    3.633801   -0.468215
     88          1           0        4.367954    0.357534   -0.479408
     89          1           0       -1.516168    4.104220   -1.927603
     90          1           0       -1.447024    4.314133   -0.266776
     91          1           0       -2.730534    4.719348   -1.298086
     92          1           0       -2.430328    0.686798   -0.278679
     93          1           0        2.098405    1.385903   -0.811945
     94          1           0        2.142349   -2.490007    1.106496
     95          1           0        1.085926   -2.206099   -0.295620
     96          1           0        2.832172   -2.984502   -0.721248
     97          1           0        0.321627    2.151869   -0.962860
     98          1           0       -0.096258   -0.602884    0.068328
 ---------------------------------------------------------------------

 SCF Done:  E(RCAM-B3LYP) =  -1706.88991148     A.U. after   16 cycles

 Excitation energies and oscillator strengths:

 Excited State   1:      Singlet-A      1.8162 eV  682.65 nm  f=3.1628  <S**2>=0.000
     155 ->158        -0.13485
     156 ->157         0.70073
     156 <-157        -0.12200
 This state for optimization and/or second-order correction.
 Total Energy, E(TD-HF/TD-DFT) =  -1706.82316701
 Copying the excited state density for this state as the 1-particle RhoCI density.

 The electronic state is 1-A.
 Alpha  occ. eigenvalues --  -19.22299 -19.21731 -10.31432 -10.30536 -10.28960
 Alpha  occ. eigenvalues --  -10.28198 -10.28030 -10.27929 -10.27791 -10.27656
 Alpha  occ. eigenvalues --  -10.27534 -10.27416 -10.27391 -10.27232 -10.27227
 Alpha  occ. eigenvalues --  -10.27131 -10.26934 -10.26934 -10.26933 -10.26795
 Alpha  occ. eigenvalues --  -10.26574 -10.26544 -10.26539 -10.26138 -10.26133
 Alpha  occ. eigenvalues --  -10.26100 -10.25999 -10.25990 -10.25812 -10.25776
 Alpha  occ. eigenvalues --  -10.25386 -10.25220 -10.25180 -10.24999 -10.24890
 Alpha  occ. eigenvalues --  -10.24810 -10.24712 -10.24570 -10.24299 -10.24195
 Alpha  occ. eigenvalues --  -10.23684 -10.23382  -1.10172  -1.08143  -0.93933
 Alpha  occ. eigenvalues --   -0.93591  -0.92093  -0.91247  -0.90491  -0.89661
 Alpha  occ. eigenvalues --   -0.88045  -0.87560  -0.86923  -0.85171  -0.84419
 Alpha  occ. eigenvalues --   -0.82896  -0.81848  -0.80540  -0.79527  -0.78561
 Alpha  occ. eigenvalues --   -0.77525  -0.77182  -0.76233  -0.75454  -0.75218
 Alpha  occ. eigenvalues --   -0.75107  -0.75032  -0.74554  -0.72234  -0.70445
 Alpha  occ. eigenvalues --   -0.69126  -0.68272  -0.66409  -0.64960  -0.64231
 Alpha  occ. eigenvalues --   -0.63674  -0.63189  -0.61677  -0.60651  -0.60512
 Alpha  occ. eigenvalues --   -0.59494  -0.58531  -0.58107  -0.57424  -0.55994
 Alpha  occ. eigenvalues --   -0.55791  -0.54793  -0.54571  -0.53969  -0.53732
 Alpha  occ. eigenvalues --   -0.53479  -0.52694  -0.52299  -0.51735  -0.51596
 Alpha  occ. eigenvalues --   -0.51428  -0.50812  -0.50504  -0.49522  -0.49407
 Alpha  occ. eigenvalues --   -0.49125  -0.48752  -0.48275  -0.47986  -0.47193
 Alpha  occ. eigenvalues --   -0.46897  -0.46857  -0.46469  -0.45986  -0.45959
 Alpha  occ. eigenvalues --   -0.45712  -0.45549  -0.45420  -0.44984  -0.44862
 Alpha  occ. eigenvalues --   -0.44572  -0.44520  -0.43974  -0.43904  -0.43403
 Alpha  occ. eigenvalues --   -0.42970  -0.42735  -0.42423  -0.41905  -0.41733
 Alpha  occ. eigenvalues --   -0.41528  -0.41303  -0.41140  -0.40628  -0.40472
 Alpha  occ. eigenvalues --   -0.40056  -0.39683  -0.39477  -0.39451  -0.39236
 Alpha  occ. eigenvalues --   -0.38928  -0.38417  -0.38361  -0.38066  -0.37705
 Alpha  occ. eigenvalues --   -0.37439  -0.36947  -0.36448  -0.36245  -0.35541
 Alpha  occ. eigenvalues --   -0.34861  -0.34531  -0.33867  -0.32527  -0.31607
 Alpha  occ. eigenvalues --   -0.31194  -0.30216  -0.28723  -0.26425  -0.23400
 Alpha  occ. eigenvalues --   -0.18120
 Alpha virt. eigenvalues --   -0.06882  -0.01157   0.02481   0.05372   0.06614
 Alpha virt. eigenvalues --    0.08334   0.09250   0.10433   0.11629   0.12235
 Alpha virt. eigenvalues --    0.12609   0.12741   0.13174   0.13459   0.13714

 Mulliken charges:
               1
     1  O   -0.525614
     2  O   -0.558746
     3  C    0.028436
     4  C   -0.132424
     5  C   -0.183881
     6  C    0.133985
     7  C    0.152655
     8  C   -0.008965
     9  C   -0.295178
    10  C   -0.283279
    11  C   -0.195679
    12  C   -0.136874
    13  C    0.171992
    14  C    0.006590
    15  C   -0.095563
    16  C   -0.229745
    17  C    0.101257
    18  C   -0.333154
    19  C   -0.294301
    20  C   -0.369633
    21  C   -0.093842
    22  C   -0.071250
    23  C   -0.346209
    24  C    0.147293
    25  C   -0.114168
    26  C   -0.408718
    27  C    0.038570
    28  C   -0.140519
    29  C   -0.367177
    30  C   -0.093440
    31  C   -0.066140
    32  C   -0.075584
    33  C   -0.125957
    34  C    0.058161
    35  C   -0.098290
    36  C    0.102223
    37  C   -0.378627
    38  C   -0.110690
    39  C   -0.139336
    40  C   -0.351768
    41  C   -0.089028
    42  C   -0.045110
    43  H    0.082774
    44  H    0.112091
    45  H    0.083893
    46  H    0.090814
    47  H    0.119343
    48  H    0.053019
    49  H    0.117141
    50  H    0.100476
    51  H    0.095825
    52  H    0.066939
    53  H    0.109880
    54  H    0.063785
    55  H    0.043244
    56  H    0.072141
    57  H    0.067901
    58  H    0.081083
    59  H    0.115456
    60  H    0.098590
    61  H    0.123749
    62  H    0.112564
    63  H    0.117400
    64  H    0.095434
    65  H    0.096730
    66  H    0.128047
    67  H    0.109773
    68  H    0.106653
    69  H    0.301899
    70  H    0.074400
    71  H    0.070590
    72  H    0.102509
    73  H    0.122055
    74  H    0.089079
    75  H    0.303073
    76  H    0.090654
    77  H    0.115486
    78  H    0.117768
    79  H    0.129741
    80  H    0.080563
    81  H    0.126353
    82  H    0.107343
    83  H    0.118006
    84  H    0.074015
    85  H    0.092134
    86  H    0.080698
    87  H    0.079736
    88  H    0.069655
    89  H    0.133268
    90  H    0.141876
    91  H    0.111924
    92  H    0.082913
    93  H    0.075202
    94  H    0.116675
    95  H    0.110337
    96  H    0.087429
    97  H    0.077422
    98  H    0.070173
 Sum of Mulliken charges =  -0.00000

 Dipole moment (field-independent basis, Debye):
    X=              0.3314    Y=              0.6486    Z=             -0.3414  Tot=              0.8044
 Quadrupole moment (field-independent basis, Debye-Ang):
   XX=           -286.8867   YY=           -242.9500   ZZ=           -258.9786
   XY=             14.0869   XZ=             39.0012   YZ=              1.1154

 Normal termination of Gaussian 16 at Sat Jul 13 10:47:14 2019.
