 Gaussian 16, Revision A.03,
 Gaussian 16:  ES64L-G16RevA.03 25-Dec-2016

 -------------------------------------
 # td=(NStates=1) CAM-B3LYP/6-31G(d,p)
 -------------------------------------

 --
 TD
 --
 Symbolic Z-matrix:
 Charge =  0 Multiplicity = 1

                         Standard orientation:
 ---------------------------------------------------------------------
 Center     Atomic      Atomic             Coordinates (Angstroms)
 Number     Number       Type             X           Y           Z
 ---------------------------------------------------------------------
      1          8           0      -14.143167   -2.029762    0.355595
      2          8           0       14.875528    0.872652    0.432216
      3          6           0      -11.764116    0.010340    1.454346
      4          6           0      -11.068023    0.455663    0.128367
      5          6           0      -11.969100   -1.460958    1.439660
      6          6           0      -12.662188   -2.095592    0.178783
      7          6           0      -11.773757   -0.180945   -1.116203
      8          6           0       11.102380    1.141123    1.119266
      9          6           0      -10.918574    0.391339    2.696136
     10          6           0      -13.126022    0.735405    1.553465
     11          6           0       12.532170    1.641150    0.910767
     12          6           0      -12.393027   -1.356768   -1.054944
     13          6           0       13.447606    0.571765    0.468744
     14          6           0       10.697373   -0.013307   -0.013468
     15          6           0       -9.628772    0.040202    0.170292
     16          6           0       13.074461   -0.014213   -0.770806
     17          6           0       11.627229   -0.353576   -0.914234
     18          6           0       10.132861    2.210132    1.116970
     19          6           0       11.154104    0.312669    2.527469
     20          6           0      -11.590302    0.701902   -2.377333
     21          6           0       -8.569388    0.851071   -0.112196
     22          6           0        9.249045   -0.376316    0.068971
     23          6           0       11.341785   -1.224763   -2.161979
     24          6           0       -7.124877    0.490100   -0.178848
     25          6           0        8.821303   -1.682417   -0.142213
     26          6           0       -6.729560   -0.893769   -0.125629
     27          6           0        7.451933   -2.132304   -0.092293
     28          6           0       -6.256986    1.492465   -0.330433
     29          6           0        7.318226   -3.619070    0.122375
     30          6           0        6.390993   -1.259245   -0.171471
     31          6           0       -4.788196    1.348372   -0.572702
     32          6           0        5.006349   -1.687135   -0.168946
     33          6           0       -3.947874    2.486835   -0.671776
     34          6           0       -2.579893    2.528819   -0.855844
     35          6           0        3.952792   -0.707892   -0.457978
     36          6           0        2.653704   -1.004627   -0.273067
     37          6           0       -1.886580    3.854223   -0.984197
     38          6           0       -1.816869    1.372799   -0.659646
     39          6           0        1.789185    0.015473   -0.513009
     40          6           0        2.022018   -2.368990   -0.063848
     41          6           0       -0.415385    1.232362   -0.679445
     42          6           0        0.353513    0.144353   -0.553064
     43          1           0      -11.114137    1.561469    0.005016
     44          1           0      -12.520272   -1.771343    2.256792
     45          1           0      -11.079370   -2.170800    1.746502
     46          1           0      -12.245849   -3.245311    0.122332
     47          1           0      -10.082869   -0.221093    3.128683
     48          1           0      -10.333306    1.536230    2.644868
     49          1           0      -11.794726    0.272668    3.502807
     50          1           0      -13.587247    0.525750    0.556198
     51          1           0      -13.707246    0.226169    2.409527
     52          1           0      -12.864244    1.793087    1.840285
     53          1           0       12.437800    2.191246    0.110246
     54          1           0       12.938970    1.968049    1.739185
     55          1           0      -13.000469   -1.712114   -1.846446
     56          1           0       13.550524   -0.372833    1.091746
     57          1           0       -9.364144   -1.016498    0.277249
     58          1           0       13.881727   -0.888507   -1.075085
     59          1           0       13.212097    0.612381   -1.740818
     60          1           0        9.273017    1.882511    1.487887
     61          1           0        9.805412    2.460003    0.196460
     62          1           0       10.501677    2.988243    1.699714
     63          1           0       11.740815   -0.396978    2.705428
     64          1           0       10.113658   -0.157429    2.671085
     65          1           0       11.357808    1.083825    3.349524
     66          1           0      -10.611987    0.931483   -2.449136
     67          1           0      -12.267727    1.624354   -2.274156
     68          1           0      -11.894063    0.110651   -3.206480
     69          1           0      -14.448029   -2.265576   -0.672258
     70          1           0        8.542212    0.496883    0.314362
     71          1           0       -8.724665    1.894771   -0.531773
     72          1           0       11.484083   -2.446160   -2.059953
     73          1           0       10.233455   -1.046165   -2.287119
     74          1           0       11.969678   -0.936747   -2.786293
     75          1           0       15.110975    1.616305    1.321708
     76          1           0        9.653789   -2.326350   -0.346808
     77          1           0       -5.725208   -1.281342   -0.399730
     78          1           0       -7.089099   -1.286223    0.905070
     79          1           0       -7.363970   -1.458424   -0.814094
     80          1           0       -6.380513    2.597907   -0.459418
     81          1           0        6.627205   -3.761733    0.981518
     82          1           0        6.810781   -4.116798   -0.961316
     83          1           0        8.176594   -4.235100    0.307412
     84          1           0        6.732378   -0.325757   -0.259978
     85          1           0       -4.336577    0.500437   -0.557778
     86          1           0        5.082668   -2.717239    0.134983
     87          1           0       -4.454607    3.492884   -0.756553
     88          1           0        4.175454    0.340180   -0.642267
     89          1           0       -1.263320    3.686866   -1.920021
     90          1           0       -1.137465    3.875551   -0.182160
     91          1           0       -2.498990    4.767126   -0.907361
     92          1           0       -2.094489    0.344975   -0.470620
     93          1           0        2.243122    1.064754   -0.549186
     94          1           0        2.432487   -2.836747    0.720837
     95          1           0        0.924443   -2.285039   -0.012557
     96          1           0        2.122297   -2.833305   -0.963107
     97          1           0        0.262235    2.170807   -0.596924
     98          1           0        0.071091   -0.829124   -0.440762
 ---------------------------------------------------------------------

 SCF Done:  E(RCAM-B3LYP) =  -1706.86164703     A.U. after   15 cycles

 Excitation energies and oscillator strengths:

 Excited State   1:      Singlet-A      2.1137 eV  586.56 nm  f=3.0633  <S**2>=0.000
     155 ->158         0.15764
     156 ->157         0.69066
 This state for optimization and/or second-order correction.
 Total Energy, E(TD-HF/TD-DFT) =  -1706.78396816
 Copying the excited state density for this state as the 1-particle RhoCI density.

 The electronic state is 1-A.
 Alpha  occ. eigenvalues --  -19.22569 -19.21682 -10.32227 -10.29096 -10.27695
 Alpha  occ. eigenvalues --  -10.27653 -10.27645 -10.27311 -10.27303 -10.27288
 Alpha  occ. eigenvalues --  -10.27172 -10.27080 -10.27055 -10.27028 -10.27002
 Alpha  occ. eigenvalues --  -10.26984 -10.26655 -10.26574 -10.26523 -10.26449
 Alpha  occ. eigenvalues --  -10.26446 -10.26364 -10.26348 -10.26262 -10.26257
 Alpha  occ. eigenvalues --  -10.26220 -10.26067 -10.26048 -10.25921 -10.25913
 Alpha  occ. eigenvalues --  -10.25793 -10.25336 -10.25254 -10.25248 -10.25239
 Alpha  occ. eigenvalues --  -10.24755 -10.24735 -10.24665 -10.24240 -10.23723
 Alpha  occ. eigenvalues --  -10.22826 -10.22097  -1.06347  -1.05287  -0.93623
 Alpha  occ. eigenvalues --   -0.93585  -0.92858  -0.91994  -0.90924  -0.90608
 Alpha  occ. eigenvalues --   -0.87824  -0.87254  -0.87112  -0.85470  -0.84808
 Alpha  occ. eigenvalues --   -0.82965  -0.82357  -0.80652  -0.80476  -0.79047
 Alpha  occ. eigenvalues --   -0.77946  -0.77685  -0.76989  -0.76798  -0.76740
 Alpha  occ. eigenvalues --   -0.75621  -0.75122  -0.73824  -0.72980  -0.70789
 Alpha  occ. eigenvalues --   -0.68980  -0.67502  -0.66658  -0.64733  -0.63815
 Alpha  occ. eigenvalues --   -0.63505  -0.63023  -0.62861  -0.61385  -0.60437
 Alpha  occ. eigenvalues --   -0.59671  -0.58714  -0.58061  -0.57444  -0.56380
 Alpha  occ. eigenvalues --   -0.55860  -0.55048  -0.54340  -0.54184  -0.53779
 Alpha  occ. eigenvalues --   -0.53369  -0.52790  -0.52349  -0.52147  -0.51942
 Alpha  occ. eigenvalues --   -0.51375  -0.50815  -0.50181  -0.50039  -0.49757
 Alpha  occ. eigenvalues --   -0.49207  -0.48929  -0.48603  -0.48376  -0.48280
 Alpha  occ. eigenvalues --   -0.48092  -0.47918  -0.47018  -0.46811  -0.46400
 Alpha  occ. eigenvalues --   -0.46091  -0.45827  -0.45274  -0.45234  -0.44902
 Alpha  occ. eigenvalues --   -0.44525  -0.44446  -0.44127  -0.43886  -0.43749
 Alpha  occ. eigenvalues --   -0.43532  -0.43225  -0.43099  -0.42872  -0.42798
 Alpha  occ. eigenvalues --   -0.42351  -0.42066  -0.41605  -0.41212  -0.40577
 Alpha  occ. eigenvalues --   -0.40513  -0.40181  -0.40067  -0.39891  -0.39730
 Alpha  occ. eigenvalues --   -0.39190  -0.39071  -0.38237  -0.37723  -0.37581
 Alpha  occ. eigenvalues --   -0.37424  -0.36646  -0.36158  -0.35970  -0.35542
 Alpha  occ. eigenvalues --   -0.35246  -0.33784  -0.33210  -0.32645  -0.31520
 Alpha  occ. eigenvalues --   -0.30692  -0.30335  -0.28960  -0.26967  -0.23640
 Alpha  occ. eigenvalues --   -0.19326
 Alpha virt. eigenvalues --   -0.06027  -0.01227   0.03209   0.05262   0.06811
 Alpha virt. eigenvalues --    0.07774   0.09180   0.10574   0.11410   0.12685
 Alpha virt. eigenvalues --    0.12883   0.13280   0.13490   0.13630   0.14175

 Mulliken charges:
               1
     1  O   -0.544965
     2  O   -0.585074
     3  C    0.025253
     4  C   -0.140636
     5  C   -0.180833
     6  C    0.134040
     7  C    0.083855
     8  C   -0.027728
     9  C   -0.290462
    10  C   -0.283712
    11  C   -0.147893
    12  C   -0.114957
    13  C    0.191821
    14  C    0.022506
    15  C   -0.065483
    16  C   -0.230015
    17  C    0.039200
    18  C   -0.307118
    19  C   -0.301362
    20  C   -0.349324
    21  C   -0.106019
    22  C   -0.120784
    23  C   -0.318981
    24  C    0.130340
    25  C   -0.119847
    26  C   -0.389812
    27  C    0.079426
    28  C   -0.131747
    29  C   -0.371406
    30  C   -0.070133
    31  C   -0.038665
    32  C   -0.109975
    33  C   -0.139737
    34  C    0.090797
    35  C   -0.131944
    36  C    0.147501
    37  C   -0.371573
    38  C   -0.103398
    39  C   -0.160705
    40  C   -0.363905
    41  C   -0.098509
    42  C   -0.053215
    43  H    0.090313
    44  H    0.119465
    45  H    0.079759
    46  H    0.065284
    47  H    0.106074
    48  H    0.072620
    49  H    0.079185
    50  H    0.117235
    51  H    0.097262
    52  H    0.097580
    53  H    0.107225
    54  H    0.079411
    55  H    0.064647
    56  H    0.083267
    57  H    0.087452
    58  H    0.098150
    59  H    0.093815
    60  H    0.116704
    61  H    0.116041
    62  H    0.105457
    63  H    0.118557
    64  H    0.089054
    65  H    0.071473
    66  H    0.134671
    67  H    0.113079
    68  H    0.111481
    69  H    0.298746
    70  H    0.086787
    71  H    0.079215
    72  H    0.081528
    73  H    0.118952
    74  H    0.108707
    75  H    0.284035
    76  H    0.102065
    77  H    0.120186
    78  H    0.115062
    79  H    0.123983
    80  H    0.080285
    81  H    0.123716
    82  H    0.083124
    83  H    0.123707
    84  H    0.057710
    85  H    0.061658
    86  H    0.091117
    87  H    0.068547
    88  H    0.101833
    89  H    0.129053
    90  H    0.134873
    91  H    0.115246
    92  H    0.085653
    93  H    0.050725
    94  H    0.127128
    95  H    0.108733
    96  H    0.141895
    97  H    0.061402
    98  H    0.044250
 Sum of Mulliken charges =  -0.00000

 Dipole moment (field-independent basis, Debye):
    X=             -0.9757    Y=             -0.0577    Z=             -0.3869  Tot=              1.0512
 Quadrupole moment (field-independent basis, Debye-Ang):
   XX=           -306.7333   YY=           -241.4524   ZZ=           -261.9265
   XY=             10.1939   XZ=             39.2001   YZ=              2.6516

 Normal termination of Gaussian 16 at Tue Jul 16 04:53:54 2019.
