 Gaussian 16, Revision A.03,
 Gaussian 16:  ES64L-G16RevA.03 25-Dec-2016

 -------------------------------------
 # td=(NStates=1) CAM-B3LYP/6-31G(d,p)
 -------------------------------------

 --
 TD
 --
 Symbolic Z-matrix:
 Charge =  0 Multiplicity = 1

                         Standard orientation:
 ---------------------------------------------------------------------
 Center     Atomic      Atomic             Coordinates (Angstroms)
 Number     Number       Type             X           Y           Z
 ---------------------------------------------------------------------
      1          8           0       14.043965    2.040715    0.609196
      2          8           0      -14.830955   -1.044098    0.118177
      3          6           0       11.836022   -0.198896    1.340025
      4          6           0       10.996370   -0.423723    0.000227
      5          6           0       11.973854    1.225442    1.624290
      6          6           0       12.550819    2.137965    0.421458
      7          6           0       11.693011    0.474712   -1.172766
      8          6           0      -11.102993   -0.991220    1.168625
      9          6           0       11.050432   -0.828878    2.506243
     10          6           0       13.159376   -0.899965    1.206529
     11          6           0      -12.466264   -1.554735    0.902108
     12          6           0       12.315428    1.633659   -0.879647
     13          6           0      -13.602320   -0.574563    0.436230
     14          6           0      -10.700812    0.003377    0.107789
     15          6           0        9.543857   -0.019945    0.060577
     16          6           0      -13.124227    0.082899   -0.837172
     17          6           0      -11.568369    0.372497   -0.909984
     18          6           0      -10.204318   -2.247248    1.157084
     19          6           0      -11.004175   -0.434255    2.582108
     20          6           0       11.516121   -0.068369   -2.531451
     21          6           0        8.509649   -0.788286   -0.226775
     22          6           0       -9.291787    0.489086    0.101633
     23          6           0      -11.227450    1.251285   -2.052419
     24          6           0        7.113211   -0.541394   -0.157745
     25          6           0       -8.850429    1.802260   -0.316570
     26          6           0        6.748626    0.915657    0.044461
     27          6           0       -7.428825    2.186678   -0.126329
     28          6           0        6.275169   -1.508754   -0.344366
     29          6           0       -7.257642    3.659895    0.111364
     30          6           0       -6.430582    1.240697   -0.157699
     31          6           0        4.800123   -1.379062   -0.336797
     32          6           0       -5.080666    1.654546   -0.234002
     33          6           0        4.012037   -2.437438   -0.870307
     34          6           0        2.581965   -2.457320   -0.875161
     35          6           0       -4.018742    0.740115   -0.455366
     36          6           0       -2.608433    0.863445   -0.227171
     37          6           0        1.959914   -3.816214   -1.260911
     38          6           0        1.858737   -1.351031   -0.538208
     39          6           0       -1.748187   -0.235608   -0.295983
     40          6           0       -2.096001    2.300003    0.070175
     41          6           0        0.431666   -1.419860   -0.624754
     42          6           0       -0.375092   -0.242519   -0.284538
     43          1           0       11.083585   -1.547942   -0.402714
     44          1           0       12.453341    1.569112    2.531869
     45          1           0       11.017120    1.656277    1.925903
     46          1           0       12.306732    3.213230    0.666687
     47          1           0       10.107940   -0.226766    2.720120
     48          1           0       10.760849   -1.865531    2.219151
     49          1           0       11.801151   -0.786412    3.381261
     50          1           0       13.822412   -0.471481    0.539664
     51          1           0       13.657163   -0.821851    2.240467
     52          1           0       12.951463   -1.965163    0.823647
     53          1           0      -12.364869   -2.594167    0.267399
     54          1           0      -12.885847   -1.733686    1.958867
     55          1           0       12.527285    2.044006   -1.751343
     56          1           0      -13.724591    0.342258    1.197655
     57          1           0        9.484239    1.187062    0.151490
     58          1           0      -13.730306    0.991361   -1.066849
     59          1           0      -13.462111   -0.681500   -1.707415
     60          1           0       -9.155511   -2.068914    1.667409
     61          1           0      -10.104791   -2.635395    0.108562
     62          1           0      -10.781047   -2.945933    1.723284
     63          1           0      -11.711219    0.474981    2.636686
     64          1           0      -10.057588   -0.154200    3.030786
     65          1           0      -11.397126   -0.812991    3.543677
     66          1           0       10.439322   -0.128053   -2.707096
     67          1           0       11.856986   -1.040415   -2.554253
     68          1           0       12.011560    0.538100   -3.180307
     69          1           0       14.402336    1.988790   -0.485656
     70          1           0       -8.488845   -0.250855    0.393047
     71          1           0        8.774019   -1.817450   -0.370479
     72          1           0      -11.331289    2.388390   -1.799295
     73          1           0       -9.997893    1.224817   -2.407775
     74          1           0      -11.866129    0.970654   -2.992537
     75          1           0      -15.280764   -1.386223    0.962316
     76          1           0       -9.598709    2.491637   -0.580176
     77          1           0        5.628428    1.178985   -0.100799
     78          1           0        7.065889    1.035235    1.026612
     79          1           0        7.372861    1.618927   -0.723106
     80          1           0        6.746551   -2.318814   -0.677984
     81          1           0       -6.775576    3.931918    1.017076
     82          1           0       -6.478437    4.110194   -0.529360
     83          1           0       -8.062819    4.358381    0.154658
     84          1           0       -6.866963    0.206732   -0.286570
     85          1           0        4.451927   -0.562481   -0.029252
     86          1           0       -4.759597    2.671156    0.192729
     87          1           0        4.619809   -3.239829   -1.187031
     88          1           0       -4.186419   -0.334038   -0.526939
     89          1           0        1.334184   -3.663243   -2.266006
     90          1           0        1.366700   -4.175407   -0.440836
     91          1           0        2.716959   -4.552472   -1.533457
     92          1           0        2.621576   -0.409413   -0.213883
     93          1           0       -2.392706   -0.939222   -0.759462
     94          1           0       -2.054071    2.437492    1.242736
     95          1           0       -0.985038    2.361586   -0.344451
     96          1           0       -2.941139    3.122494   -0.405599
     97          1           0       -0.106349   -2.343112   -0.681921
     98          1           0        0.026853    0.696649   -0.179027
 ---------------------------------------------------------------------

 SCF Done:  E(RCAM-B3LYP) =  -1706.93326716     A.U. after   15 cycles

 Excitation energies and oscillator strengths:

 Excited State   1:      Singlet-A      2.0900 eV  593.21 nm  f=2.9447  <S**2>=0.000
     155 ->158        -0.15145
     156 ->157         0.69250
 This state for optimization and/or second-order correction.
 Total Energy, E(TD-HF/TD-DFT) =  -1706.85645927
 Copying the excited state density for this state as the 1-particle RhoCI density.

 The electronic state is 1-A.
 Alpha  occ. eigenvalues --  -19.22878 -19.21050 -10.31439 -10.30854 -10.28464
 Alpha  occ. eigenvalues --  -10.28026 -10.27973 -10.27849 -10.27712 -10.27617
 Alpha  occ. eigenvalues --  -10.27533 -10.27527 -10.27411 -10.27384 -10.27361
 Alpha  occ. eigenvalues --  -10.27295 -10.26945 -10.26906 -10.26846 -10.26786
 Alpha  occ. eigenvalues --  -10.26620 -10.26365 -10.26347 -10.26297 -10.26244
 Alpha  occ. eigenvalues --  -10.26237 -10.26194 -10.26184 -10.26167 -10.25764
 Alpha  occ. eigenvalues --  -10.25576 -10.25521 -10.25209 -10.25106 -10.25043
 Alpha  occ. eigenvalues --  -10.24956 -10.24894 -10.24511 -10.24293 -10.24234
 Alpha  occ. eigenvalues --  -10.24049 -10.23434  -1.11850  -1.04141  -0.93511
 Alpha  occ. eigenvalues --   -0.93356  -0.92230  -0.91447  -0.90736  -0.89843
 Alpha  occ. eigenvalues --   -0.88273  -0.86819  -0.86067  -0.84960  -0.83660
 Alpha  occ. eigenvalues --   -0.82441  -0.81536  -0.80575  -0.79387  -0.77849
 Alpha  occ. eigenvalues --   -0.76999  -0.76936  -0.76478  -0.76056  -0.75128
 Alpha  occ. eigenvalues --   -0.74789  -0.74629  -0.74376  -0.72978  -0.70611
 Alpha  occ. eigenvalues --   -0.68652  -0.68074  -0.66821  -0.64379  -0.64225
 Alpha  occ. eigenvalues --   -0.63554  -0.63031  -0.61981  -0.60080  -0.59066
 Alpha  occ. eigenvalues --   -0.58783  -0.58404  -0.57928  -0.56677  -0.55827
 Alpha  occ. eigenvalues --   -0.55456  -0.55257  -0.54714  -0.54567  -0.53558
 Alpha  occ. eigenvalues --   -0.53262  -0.52588  -0.52135  -0.51677  -0.51030
 Alpha  occ. eigenvalues --   -0.50273  -0.50104  -0.49639  -0.49352  -0.49071
 Alpha  occ. eigenvalues --   -0.48918  -0.48824  -0.48378  -0.48025  -0.47799
 Alpha  occ. eigenvalues --   -0.47235  -0.47151  -0.46688  -0.46414  -0.46078
 Alpha  occ. eigenvalues --   -0.45942  -0.45802  -0.45558  -0.45242  -0.44907
 Alpha  occ. eigenvalues --   -0.44649  -0.44378  -0.44058  -0.43790  -0.43013
 Alpha  occ. eigenvalues --   -0.42773  -0.42543  -0.42425  -0.41885  -0.41463
 Alpha  occ. eigenvalues --   -0.41373  -0.41219  -0.41140  -0.40770  -0.40512
 Alpha  occ. eigenvalues --   -0.40391  -0.40179  -0.40142  -0.39891  -0.39081
 Alpha  occ. eigenvalues --   -0.38758  -0.38587  -0.38293  -0.37921  -0.37858
 Alpha  occ. eigenvalues --   -0.37778  -0.36982  -0.36552  -0.36119  -0.36033
 Alpha  occ. eigenvalues --   -0.35046  -0.34437  -0.33338  -0.32373  -0.31431
 Alpha  occ. eigenvalues --   -0.30731  -0.29581  -0.29008  -0.26685  -0.23783
 Alpha  occ. eigenvalues --   -0.19049
 Alpha virt. eigenvalues --   -0.05895  -0.00950   0.02380   0.05005   0.06447
 Alpha virt. eigenvalues --    0.08317   0.09999   0.10618   0.11434   0.11501
 Alpha virt. eigenvalues --    0.12247   0.12576   0.12918   0.12950   0.13777

 Mulliken charges:
               1
     1  O   -0.561399
     2  O   -0.532956
     3  C    0.030813
     4  C   -0.151443
     5  C   -0.175262
     6  C    0.143252
     7  C    0.075307
     8  C    0.013233
     9  C   -0.286873
    10  C   -0.268161
    11  C   -0.212479
    12  C   -0.122028
    13  C    0.184440
    14  C    0.073103
    15  C   -0.070809
    16  C   -0.220775
    17  C    0.071517
    18  C   -0.303727
    19  C   -0.326423
    20  C   -0.347537
    21  C   -0.109997
    22  C   -0.114906
    23  C   -0.366949
    24  C    0.137459
    25  C   -0.117330
    26  C   -0.359473
    27  C    0.106695
    28  C   -0.131312
    29  C   -0.399621
    30  C   -0.104788
    31  C   -0.035487
    32  C   -0.113451
    33  C   -0.127876
    34  C    0.100832
    35  C   -0.117078
    36  C    0.087972
    37  C   -0.370094
    38  C   -0.093697
    39  C   -0.104922
    40  C   -0.355175
    41  C   -0.121893
    42  C   -0.080084
    43  H    0.064968
    44  H    0.112409
    45  H    0.083352
    46  H    0.087195
    47  H    0.097074
    48  H    0.095867
    49  H    0.089330
    50  H    0.118739
    51  H    0.087571
    52  H    0.072484
    53  H    0.091993
    54  H    0.079703
    55  H    0.067605
    56  H    0.052488
    57  H    0.079161
    58  H    0.110000
    59  H    0.096179
    60  H    0.087012
    61  H    0.103565
    62  H    0.115428
    63  H    0.087373
    64  H    0.112153
    65  H    0.104110
    66  H    0.127723
    67  H    0.126283
    68  H    0.108467
    69  H    0.288348
    70  H    0.087207
    71  H    0.072972
    72  H    0.111681
    73  H    0.096666
    74  H    0.101142
    75  H    0.309853
    76  H    0.095009
    77  H    0.096073
    78  H    0.137146
    79  H    0.102718
    80  H    0.063072
    81  H    0.131314
    82  H    0.117675
    83  H    0.120061
    84  H    0.092192
    85  H    0.048080
    86  H    0.095208
    87  H    0.083171
    88  H    0.073374
    89  H    0.108342
    90  H    0.133151
    91  H    0.112746
    92  H    0.079520
    93  H    0.075798
    94  H    0.116083
    95  H    0.102276
    96  H    0.089314
    97  H    0.105334
    98  H    0.075630
 Sum of Mulliken charges =  -0.00000

 Dipole moment (field-independent basis, Debye):
    X=             -2.5633    Y=              0.0235    Z=             -0.0193  Tot=              2.5635
 Quadrupole moment (field-independent basis, Debye-Ang):
   XX=           -270.8266   YY=           -246.6041   ZZ=           -260.7370
   XY=             -6.4904   XZ=            -51.2996   YZ=              0.5103

 Normal termination of Gaussian 16 at Tue Jul 16 08:37:58 2019.
