 Gaussian 16, Revision A.03,
 Gaussian 16:  ES64L-G16RevA.03 25-Dec-2016

 -------------------------------------
 # td=(NStates=1) CAM-B3LYP/6-31G(d,p)
 -------------------------------------

 --
 TD
 --
 Symbolic Z-matrix:
 Charge =  0 Multiplicity = 1

                         Standard orientation:
 ---------------------------------------------------------------------
 Center     Atomic      Atomic             Coordinates (Angstroms)
 Number     Number       Type             X           Y           Z
 ---------------------------------------------------------------------
      1          8           0      -14.328945   -1.732778    0.508763
      2          8           0       14.851382    0.949675    0.271289
      3          6           0      -11.819856    0.078026    1.342177
      4          6           0      -10.937836    0.282859    0.032274
      5          6           0      -12.055473   -1.475727    1.405464
      6          6           0      -12.917067   -2.035286    0.277230
      7          6           0      -11.680358   -0.343336   -1.116166
      8          6           0       11.202809    0.983806    1.158095
      9          6           0      -11.036911    0.551215    2.547658
     10          6           0      -13.044524    0.917167    1.371085
     11          6           0       12.640311    1.563088    0.846221
     12          6           0      -12.400895   -1.471478   -1.055136
     13          6           0       13.542072    0.458602    0.416193
     14          6           0       10.739834    0.018332    0.049236
     15          6           0       -9.505404   -0.034982    0.169727
     16          6           0       13.101666   -0.091374   -0.877697
     17          6           0       11.524436   -0.507112   -0.870542
     18          6           0       10.234067    2.187534    1.054378
     19          6           0       11.065268    0.290157    2.466306
     20          6           0      -11.296408    0.123631   -2.503297
     21          6           0       -8.523330    0.756504   -0.206854
     22          6           0        9.354253   -0.326687    0.010620
     23          6           0       11.172744   -1.394946   -2.013353
     24          6           0       -7.102773    0.401385   -0.103291
     25          6           0        8.780543   -1.647392   -0.070787
     26          6           0       -6.707747   -1.022433    0.136916
     27          6           0        7.408254   -2.118786    0.045847
     28          6           0       -6.144313    1.470737   -0.335012
     29          6           0        7.201597   -3.499202    0.417904
     30          6           0        6.458517   -1.274708   -0.289840
     31          6           0       -4.824997    1.290500   -0.379629
     32          6           0        5.019005   -1.527455   -0.156712
     33          6           0       -4.003992    2.420915   -0.644926
     34          6           0       -2.664970    2.586723   -0.763946
     35          6           0        4.029019   -0.645150   -0.340636
     36          6           0        2.661576   -0.888977   -0.383168
     37          6           0       -2.040861    3.982257   -1.044096
     38          6           0       -1.789796    1.468065   -0.535659
     39          6           0        1.771040    0.247766   -0.617917
     40          6           0        2.129579   -2.264898   -0.194454
     41          6           0       -0.402539    1.339060   -0.697622
     42          6           0        0.415457    0.197933   -0.500973
     43          1           0      -11.073695    1.287460    0.081679
     44          1           0      -12.643569   -1.618271    2.378206
     45          1           0      -11.028933   -1.725572    1.704866
     46          1           0      -12.765162   -3.023478    0.206491
     47          1           0      -10.107813   -0.017529    2.551411
     48          1           0      -10.864394    1.570500    2.503874
     49          1           0      -11.708577    0.608805    3.416820
     50          1           0      -13.377760    0.933420    0.213699
     51          1           0      -13.998075    0.471085    2.085038
     52          1           0      -12.590367    2.025787    1.459543
     53          1           0       12.327405    2.186728   -0.027165
     54          1           0       12.992796    2.205449    1.584614
     55          1           0      -13.025510   -1.889760   -1.843199
     56          1           0       13.455804   -0.418023    1.156390
     57          1           0       -9.349901   -1.157990    0.382334
     58          1           0       13.675729   -1.117847   -1.443897
     59          1           0       13.222522    0.564507   -1.619332
     60          1           0        9.343153    2.062563    1.625009
     61          1           0       10.165320    2.528354    0.081673
     62          1           0       10.753857    3.142122    1.635400
     63          1           0       11.791889   -0.536286    2.552649
     64          1           0       10.073562    0.037582    2.736981
     65          1           0       11.387039    1.055776    3.160034
     66          1           0      -10.227821    0.047124   -2.600639
     67          1           0      -11.569197    1.156833   -2.523595
     68          1           0      -11.868586   -0.251854   -3.305820
     69          1           0      -14.872874   -1.895456   -0.271503
     70          1           0        8.506535    0.424327    0.015243
     71          1           0       -8.733071    1.812858   -0.494145
     72          1           0       11.571973   -2.479239   -1.895100
     73          1           0       10.107240   -1.608086   -2.312015
     74          1           0       11.679398   -1.059860   -2.962842
     75          1           0       15.210076    1.302416    1.146344
     76          1           0        9.433519   -2.503584    0.217537
     77          1           0       -5.603444   -1.071775    0.156166
     78          1           0       -7.049603   -1.607058    1.075025
     79          1           0       -6.954242   -1.635016   -0.778714
     80          1           0       -6.400007    2.472654   -0.370016
     81          1           0        6.920444   -3.557700    1.470578
     82          1           0        6.210172   -3.955296   -0.045025
     83          1           0        8.099140   -4.215762    0.124333
     84          1           0        6.764813   -0.235574   -0.346709
     85          1           0       -4.341023    0.278932   -0.445270
     86          1           0        4.725815   -2.530058    0.305361
     87          1           0       -4.482500    3.495750   -0.557470
     88          1           0        4.364490    0.315627   -0.628567
     89          1           0       -1.104532    3.793784   -1.691516
     90          1           0       -1.595858    4.585056   -0.067330
     91          1           0       -2.831144    4.572313   -1.652496
     92          1           0       -2.216305    0.463786   -0.278009
     93          1           0        2.307355    1.167367   -0.639179
     94          1           0        2.313730   -2.666622    0.703876
     95          1           0        0.863607   -2.396598   -0.222789
     96          1           0        2.609819   -3.063324   -0.939286
     97          1           0        0.075112    2.379405   -0.659434
     98          1           0       -0.059820   -0.723918   -0.624245
 ---------------------------------------------------------------------

 SCF Done:  E(RCAM-B3LYP) =  -1706.97224972     A.U. after   16 cycles

 Excitation energies and oscillator strengths:

 Excited State   1:      Singlet-A      1.7651 eV  702.43 nm  f=2.9295  <S**2>=0.000
     155 ->158        -0.11858
     156 ->157         0.70899
     156 <-157        -0.14412
 This state for optimization and/or second-order correction.
 Total Energy, E(TD-HF/TD-DFT) =  -1706.90738424
 Copying the excited state density for this state as the 1-particle RhoCI density.

 The electronic state is 1-A.
 Alpha  occ. eigenvalues --  -19.21435 -19.20881 -10.30749 -10.29711 -10.28368
 Alpha  occ. eigenvalues --  -10.28262 -10.28040 -10.27683 -10.27490 -10.27331
 Alpha  occ. eigenvalues --  -10.27178 -10.27060 -10.26993 -10.26878 -10.26867
 Alpha  occ. eigenvalues --  -10.26730 -10.26718 -10.26604 -10.26586 -10.26564
 Alpha  occ. eigenvalues --  -10.26509 -10.26448 -10.26363 -10.26220 -10.26197
 Alpha  occ. eigenvalues --  -10.26158 -10.26118 -10.26082 -10.25886 -10.25792
 Alpha  occ. eigenvalues --  -10.25532 -10.25271 -10.25257 -10.25201 -10.25124
 Alpha  occ. eigenvalues --  -10.25071 -10.25046 -10.24748 -10.24573 -10.24038
 Alpha  occ. eigenvalues --  -10.23682 -10.22580  -1.09287  -1.07763  -0.94188
 Alpha  occ. eigenvalues --   -0.93866  -0.92470  -0.91930  -0.91052  -0.89704
 Alpha  occ. eigenvalues --   -0.87517  -0.87029  -0.86901  -0.85810  -0.85277
 Alpha  occ. eigenvalues --   -0.83122  -0.82175  -0.80714  -0.79832  -0.78606
 Alpha  occ. eigenvalues --   -0.77336  -0.76773  -0.76572  -0.75893  -0.75531
 Alpha  occ. eigenvalues --   -0.75509  -0.74901  -0.73898  -0.72583  -0.70395
 Alpha  occ. eigenvalues --   -0.69010  -0.68434  -0.66234  -0.65200  -0.64211
 Alpha  occ. eigenvalues --   -0.63118  -0.62478  -0.62010  -0.60671  -0.60173
 Alpha  occ. eigenvalues --   -0.59390  -0.58733  -0.57642  -0.57357  -0.56357
 Alpha  occ. eigenvalues --   -0.55841  -0.55059  -0.54701  -0.54022  -0.53765
 Alpha  occ. eigenvalues --   -0.53299  -0.53204  -0.52505  -0.52230  -0.51708
 Alpha  occ. eigenvalues --   -0.50850  -0.50717  -0.50078  -0.50014  -0.49416
 Alpha  occ. eigenvalues --   -0.48819  -0.48756  -0.48513  -0.48110  -0.48074
 Alpha  occ. eigenvalues --   -0.47741  -0.47381  -0.46885  -0.46694  -0.46178
 Alpha  occ. eigenvalues --   -0.45643  -0.45428  -0.45313  -0.45135  -0.44930
 Alpha  occ. eigenvalues --   -0.44511  -0.43835  -0.43728  -0.43212  -0.43135
 Alpha  occ. eigenvalues --   -0.42802  -0.42420  -0.42252  -0.42005  -0.41655
 Alpha  occ. eigenvalues --   -0.41613  -0.41333  -0.41275  -0.41157  -0.40673
 Alpha  occ. eigenvalues --   -0.40480  -0.40175  -0.39755  -0.39733  -0.39716
 Alpha  occ. eigenvalues --   -0.39615  -0.39006  -0.38285  -0.38063  -0.37925
 Alpha  occ. eigenvalues --   -0.37238  -0.36507  -0.36324  -0.35952  -0.35653
 Alpha  occ. eigenvalues --   -0.35137  -0.34591  -0.32924  -0.32203  -0.31974
 Alpha  occ. eigenvalues --   -0.30907  -0.30068  -0.29618  -0.26725  -0.23693
 Alpha  occ. eigenvalues --   -0.18179
 Alpha virt. eigenvalues --   -0.07403  -0.01172   0.02421   0.05576   0.07184
 Alpha virt. eigenvalues --    0.08959   0.10749   0.11582   0.11756   0.11865
 Alpha virt. eigenvalues --    0.12201   0.12521   0.12558   0.13062   0.13710

 Mulliken charges:
               1
     1  O   -0.564047
     2  O   -0.570928
     3  C   -0.005412
     4  C   -0.117784
     5  C   -0.181927
     6  C    0.170872
     7  C    0.108284
     8  C   -0.031358
     9  C   -0.296814
    10  C   -0.274579
    11  C   -0.188417
    12  C   -0.149263
    13  C    0.197397
    14  C    0.074623
    15  C   -0.083825
    16  C   -0.205568
    17  C    0.066857
    18  C   -0.307300
    19  C   -0.291891
    20  C   -0.351949
    21  C   -0.085323
    22  C   -0.138304
    23  C   -0.372241
    24  C    0.076154
    25  C   -0.123574
    26  C   -0.376995
    27  C    0.140995
    28  C   -0.093267
    29  C   -0.392557
    30  C   -0.112771
    31  C   -0.053352
    32  C   -0.106931
    33  C   -0.142993
    34  C    0.094656
    35  C   -0.106648
    36  C    0.120389
    37  C   -0.361177
    38  C   -0.108776
    39  C   -0.107288
    40  C   -0.375920
    41  C   -0.099525
    42  C   -0.081205
    43  H    0.086849
    44  H    0.087156
    45  H    0.095279
    46  H    0.092239
    47  H    0.095154
    48  H    0.100643
    49  H    0.099551
    50  H    0.075601
    51  H    0.110363
    52  H    0.068144
    53  H    0.102270
    54  H    0.091299
    55  H    0.067651
    56  H    0.070176
    57  H    0.087781
    58  H    0.064996
    59  H    0.131236
    60  H    0.112215
    61  H    0.123047
    62  H    0.060681
    63  H    0.102904
    64  H    0.116629
    65  H    0.093961
    66  H    0.125110
    67  H    0.105895
    68  H    0.108661
    69  H    0.306002
    70  H    0.088613
    71  H    0.084847
    72  H    0.104717
    73  H    0.123295
    74  H    0.103049
    75  H    0.307373
    76  H    0.070254
    77  H    0.105747
    78  H    0.119314
    79  H    0.123498
    80  H    0.085902
    81  H    0.136086
    82  H    0.108230
    83  H    0.107442
    84  H    0.073986
    85  H    0.094224
    86  H    0.070900
    87  H    0.066515
    88  H    0.078063
    89  H    0.118573
    90  H    0.109116
    91  H    0.109616
    92  H    0.068014
    93  H    0.083579
    94  H    0.142860
    95  H    0.079097
    96  H    0.107046
    97  H    0.069208
    98  H    0.089022
 Sum of Mulliken charges =  -0.00000

 Dipole moment (field-independent basis, Debye):
    X=              1.5018    Y=             -0.4069    Z=              0.3888  Tot=              1.6038
 Quadrupole moment (field-independent basis, Debye-Ang):
   XX=           -282.0700   YY=           -244.4900   ZZ=           -262.7745
   XY=              8.3808   XZ=             44.4352   YZ=              2.2783

 Normal termination of Gaussian 16 at Tue Jul 16 05:05:20 2019.
