 Gaussian 16, Revision A.03,
 Gaussian 16:  ES64L-G16RevA.03 25-Dec-2016

 -------------------------------------
 # td=(NStates=1) CAM-B3LYP/6-31G(d,p)
 -------------------------------------

 --
 TD
 --
 Symbolic Z-matrix:
 Charge =  0 Multiplicity = 1

                         Standard orientation:
 ---------------------------------------------------------------------
 Center     Atomic      Atomic             Coordinates (Angstroms)
 Number     Number       Type             X           Y           Z
 ---------------------------------------------------------------------
      1          8           0      -14.074371   -2.091378    0.793743
      2          8           0       14.830807    0.795017    0.298114
      3          6           0      -11.764784    0.154581    1.301837
      4          6           0      -10.976289    0.271576   -0.020990
      5          6           0      -11.930038   -1.303338    1.638015
      6          6           0      -12.648504   -2.096813    0.548984
      7          6           0      -11.675539   -0.568867   -1.132244
      8          6           0       11.183231    0.987661    1.218281
      9          6           0      -11.015508    0.842434    2.470768
     10          6           0      -13.160942    0.768044    1.228081
     11          6           0       12.560725    1.442370    0.982584
     12          6           0      -12.334027   -1.639277   -0.876766
     13          6           0       13.514482    0.366380    0.469657
     14          6           0       10.673558   -0.030315    0.072175
     15          6           0       -9.464453   -0.058616    0.034252
     16          6           0       13.006466   -0.156030   -0.822539
     17          6           0       11.559060   -0.488696   -0.838087
     18          6           0       10.283692    2.204832    1.251475
     19          6           0       11.012066    0.280335    2.538311
     20          6           0      -11.483830   -0.063875   -2.576800
     21          6           0       -8.476190    0.804589   -0.301442
     22          6           0        9.278390   -0.439245    0.083820
     23          6           0       11.039488   -1.336183   -2.064000
     24          6           0       -7.038294    0.530151   -0.095832
     25          6           0        8.841882   -1.691493   -0.171215
     26          6           0       -6.672932   -0.923659    0.045447
     27          6           0        7.472823   -2.166502   -0.111115
     28          6           0       -6.231297    1.512712   -0.354151
     29          6           0        7.181061   -3.491142    0.027492
     30          6           0        6.393028   -1.292284   -0.322019
     31          6           0       -4.773495    1.531715   -0.373245
     32          6           0        5.057569   -1.510841   -0.225291
     33          6           0       -3.913258    2.597228   -0.777778
     34          6           0       -2.557822    2.678839   -0.818338
     35          6           0        4.018792   -0.574778   -0.524737
     36          6           0        2.627436   -0.842952   -0.315299
     37          6           0       -2.012688    4.158010   -1.157837
     38          6           0       -1.740078    1.561983   -0.582211
     39          6           0        1.747983    0.282722   -0.480498
     40          6           0        2.051255   -2.237322   -0.033632
     41          6           0       -0.348401    1.418613   -0.603745
     42          6           0        0.369145    0.295313   -0.506983
     43          1           0      -11.155301    1.318473   -0.547181
     44          1           0      -12.487041   -1.546303    2.586593
     45          1           0      -11.037116   -1.861030    1.859277
     46          1           0      -12.342038   -3.198481    0.663972
     47          1           0       -9.942299    0.376271    2.539185
     48          1           0      -10.935847    2.002155    2.167558
     49          1           0      -11.616258    0.753534    3.226853
     50          1           0      -13.646714    0.187016    0.429287
     51          1           0      -13.762891    0.411498    2.267974
     52          1           0      -13.018117    1.672964    0.992462
     53          1           0       12.346698    2.210904    0.168919
     54          1           0       12.860614    1.868853    1.945952
     55          1           0      -12.911629   -2.286965   -1.646117
     56          1           0       13.638390   -0.506154    1.221968
     57          1           0       -9.395311   -0.960723    0.479078
     58          1           0       13.672887   -0.997893   -1.242940
     59          1           0       13.050358    0.590217   -1.637736
     60          1           0        9.437244    1.739639    1.475641
     61          1           0       10.016595    2.757040    0.256043
     62          1           0       10.729722    3.163949    1.891627
     63          1           0       11.610085   -0.608356    2.699736
     64          1           0       10.210223   -0.232595    2.771772
     65          1           0       11.326955    1.054254    3.234143
     66          1           0      -10.500214   -0.007304   -2.905550
     67          1           0      -11.937794    0.997651   -2.553489
     68          1           0      -12.018667   -0.900972   -3.161472
     69          1           0      -14.508973   -1.939647   -0.167901
     70          1           0        8.483617    0.029390    0.300625
     71          1           0       -8.820049    1.828169   -0.655487
     72          1           0       11.445108   -2.424241   -1.942400
     73          1           0        9.896077   -1.370397   -2.038046
     74          1           0       11.293917   -0.825835   -2.992253
     75          1           0       15.235991    1.342124    1.160444
     76          1           0        9.393976   -2.599501   -0.407761
     77          1           0       -5.568633   -1.303016    0.097004
     78          1           0       -7.140132   -1.418670    0.800798
     79          1           0       -7.055561   -1.608275   -0.648393
     80          1           0       -6.728363    2.345210   -0.674279
     81          1           0        6.447430   -3.723100    0.877385
     82          1           0        6.681356   -3.754309   -1.064852
     83          1           0        7.986105   -4.134674   -0.080798
     84          1           0        6.667414   -0.256048   -0.372179
     85          1           0       -4.285124    0.463039   -0.123941
     86          1           0        4.591383   -2.418795    0.013778
     87          1           0       -4.427963    3.523833   -0.966873
     88          1           0        4.460857    0.349850   -0.763877
     89          1           0       -1.471663    4.165967   -2.098117
     90          1           0       -1.437997    4.253084   -0.360283
     91          1           0       -2.704035    4.907777   -1.137330
     92          1           0       -2.275309    0.802620   -0.229805
     93          1           0        2.325359    1.296816   -0.661243
     94          1           0        2.077926   -2.553217    1.093482
     95          1           0        0.948423   -2.091722    0.014038
     96          1           0        2.496326   -3.071245   -0.594568
     97          1           0        0.220408    2.344141   -0.873235
     98          1           0       -0.394478   -0.453222   -0.368650
 ---------------------------------------------------------------------

 SCF Done:  E(RCAM-B3LYP) =  -1706.90786227     A.U. after   15 cycles

 Excitation energies and oscillator strengths:

 Excited State   1:      Singlet-A      1.9673 eV  630.21 nm  f=3.0317  <S**2>=0.000
     155 ->158        -0.14776
     156 ->157         0.69569
     156 <-157        -0.10354
 This state for optimization and/or second-order correction.
 Total Energy, E(TD-HF/TD-DFT) =  -1706.83556372
 Copying the excited state density for this state as the 1-particle RhoCI density.

 The electronic state is 1-A.
 Alpha  occ. eigenvalues --  -19.21421 -19.21387 -10.30647 -10.30549 -10.28423
 Alpha  occ. eigenvalues --  -10.28067 -10.27786 -10.27474 -10.27412 -10.27305
 Alpha  occ. eigenvalues --  -10.27260 -10.26984 -10.26926 -10.26775 -10.26762
 Alpha  occ. eigenvalues --  -10.26333 -10.26330 -10.26219 -10.26188 -10.26068
 Alpha  occ. eigenvalues --  -10.26039 -10.25975 -10.25868 -10.25796 -10.25784
 Alpha  occ. eigenvalues --  -10.25779 -10.25689 -10.25653 -10.25607 -10.25303
 Alpha  occ. eigenvalues --  -10.25215 -10.25176 -10.25128 -10.25073 -10.24953
 Alpha  occ. eigenvalues --  -10.24943 -10.24501 -10.24458 -10.24318 -10.24035
 Alpha  occ. eigenvalues --  -10.23368 -10.22737  -1.07887  -1.07071  -0.94223
 Alpha  occ. eigenvalues --   -0.93835  -0.92695  -0.92220  -0.91512  -0.90060
 Alpha  occ. eigenvalues --   -0.88137  -0.87519  -0.87462  -0.85875  -0.84836
 Alpha  occ. eigenvalues --   -0.83323  -0.81756  -0.80584  -0.80516  -0.79034
 Alpha  occ. eigenvalues --   -0.78531  -0.77378  -0.76319  -0.76303  -0.75887
 Alpha  occ. eigenvalues --   -0.75660  -0.75380  -0.75306  -0.73303  -0.70698
 Alpha  occ. eigenvalues --   -0.69422  -0.67205  -0.66563  -0.66158  -0.64181
 Alpha  occ. eigenvalues --   -0.62846  -0.62623  -0.62595  -0.61298  -0.61021
 Alpha  occ. eigenvalues --   -0.60456  -0.58279  -0.58137  -0.57380  -0.57201
 Alpha  occ. eigenvalues --   -0.55794  -0.55509  -0.55354  -0.55076  -0.54189
 Alpha  occ. eigenvalues --   -0.53442  -0.53016  -0.52707  -0.52130  -0.51369
 Alpha  occ. eigenvalues --   -0.51022  -0.50792  -0.49973  -0.49869  -0.49423
 Alpha  occ. eigenvalues --   -0.49207  -0.48855  -0.48761  -0.48526  -0.48000
 Alpha  occ. eigenvalues --   -0.47668  -0.47165  -0.47046  -0.46729  -0.46317
 Alpha  occ. eigenvalues --   -0.46000  -0.45785  -0.45684  -0.45452  -0.45224
 Alpha  occ. eigenvalues --   -0.44803  -0.44528  -0.44276  -0.44101  -0.44006
 Alpha  occ. eigenvalues --   -0.43716  -0.43164  -0.42981  -0.42319  -0.42197
 Alpha  occ. eigenvalues --   -0.41582  -0.41355  -0.41067  -0.40746  -0.40661
 Alpha  occ. eigenvalues --   -0.40601  -0.40100  -0.40021  -0.39943  -0.39771
 Alpha  occ. eigenvalues --   -0.39151  -0.38642  -0.38632  -0.38161  -0.37563
 Alpha  occ. eigenvalues --   -0.37420  -0.37294  -0.36590  -0.36504  -0.35928
 Alpha  occ. eigenvalues --   -0.35341  -0.34411  -0.33746  -0.32077  -0.31572
 Alpha  occ. eigenvalues --   -0.31222  -0.30366  -0.29206  -0.27207  -0.23633
 Alpha  occ. eigenvalues --   -0.18733
 Alpha virt. eigenvalues --   -0.06428  -0.01370   0.03352   0.05811   0.07384
 Alpha virt. eigenvalues --    0.08830   0.09808   0.11613   0.12075   0.12574
 Alpha virt. eigenvalues --    0.12795   0.13172   0.13338   0.13679   0.14291

 Mulliken charges:
               1
     1  O   -0.557777
     2  O   -0.582177
     3  C   -0.011319
     4  C   -0.132976
     5  C   -0.179792
     6  C    0.153187
     7  C    0.106109
     8  C   -0.020913
     9  C   -0.263354
    10  C   -0.251542
    11  C   -0.198787
    12  C   -0.169808
    13  C    0.225094
    14  C    0.075620
    15  C   -0.055225
    16  C   -0.229321
    17  C    0.034068
    18  C   -0.287725
    19  C   -0.290262
    20  C   -0.343744
    21  C   -0.122330
    22  C   -0.085354
    23  C   -0.355830
    24  C    0.147102
    25  C   -0.111988
    26  C   -0.390754
    27  C    0.105070
    28  C   -0.113288
    29  C   -0.390138
    30  C   -0.119727
    31  C   -0.091880
    32  C   -0.072721
    33  C   -0.123525
    34  C    0.068567
    35  C   -0.119295
    36  C    0.106576
    37  C   -0.361778
    38  C   -0.114876
    39  C   -0.143333
    40  C   -0.377582
    41  C   -0.078948
    42  C   -0.053230
    43  H    0.060362
    44  H    0.106575
    45  H    0.089332
    46  H    0.073110
    47  H    0.089361
    48  H    0.069918
    49  H    0.109321
    50  H    0.094295
    51  H    0.086122
    52  H    0.095206
    53  H    0.100546
    54  H    0.075978
    55  H    0.072964
    56  H    0.064088
    57  H    0.083956
    58  H    0.106978
    59  H    0.121753
    60  H    0.116743
    61  H    0.088750
    62  H    0.081273
    63  H    0.096043
    64  H    0.113943
    65  H    0.091548
    66  H    0.135608
    67  H    0.105396
    68  H    0.100351
    69  H    0.304668
    70  H    0.061223
    71  H    0.089653
    72  H    0.100566
    73  H    0.122850
    74  H    0.108880
    75  H    0.306883
    76  H    0.079537
    77  H    0.100329
    78  H    0.123297
    79  H    0.132196
    80  H    0.074210
    81  H    0.130556
    82  H    0.104213
    83  H    0.112619
    84  H    0.067531
    85  H    0.072753
    86  H    0.063859
    87  H    0.079272
    88  H    0.074757
    89  H    0.125652
    90  H    0.139745
    91  H    0.114569
    92  H    0.065555
    93  H    0.087745
    94  H    0.108224
    95  H    0.118231
    96  H    0.130789
    97  H    0.066273
    98  H    0.083748
 Sum of Mulliken charges =  -0.00000

 Dipole moment (field-independent basis, Debye):
    X=              0.9076    Y=             -0.0889    Z=             -0.2730  Tot=              0.9520
 Quadrupole moment (field-independent basis, Debye-Ang):
   XX=           -286.2902   YY=           -244.2581   ZZ=           -262.7784
   XY=             -2.5886   XZ=             39.2651   YZ=              0.0342

 Normal termination of Gaussian 16 at Fri Jul 12 17:35:58 2019.
