 Gaussian 16, Revision A.03,
 Gaussian 16:  ES64L-G16RevA.03 25-Dec-2016

 -------------------------------------
 # td=(NStates=1) CAM-B3LYP/6-31G(d,p)
 -------------------------------------

 --
 TD
 --
 Symbolic Z-matrix:
 Charge =  0 Multiplicity = 1

                         Standard orientation:
 ---------------------------------------------------------------------
 Center     Atomic      Atomic             Coordinates (Angstroms)
 Number     Number       Type             X           Y           Z
 ---------------------------------------------------------------------
      1          8           0      -14.127448   -2.266588    0.470429
      2          8           0       14.919338    0.751311    0.218144
      3          6           0      -11.865855    0.092256    1.304032
      4          6           0      -10.942089    0.290512    0.019374
      5          6           0      -11.997957   -1.574677    1.423460
      6          6           0      -12.692890   -2.262033    0.247570
      7          6           0      -11.640757   -0.395023   -1.120222
      8          6           0       11.231372    0.825266    1.059696
      9          6           0      -11.143480    0.718077    2.530080
     10          6           0      -13.237303    0.670407    1.126377
     11          6           0       12.654049    1.322861    0.843886
     12          6           0      -12.257343   -1.529681   -0.962737
     13          6           0       13.595176    0.256601    0.501288
     14          6           0       10.695224   -0.095444   -0.004240
     15          6           0       -9.592056   -0.035941    0.015988
     16          6           0       13.164252   -0.201688   -0.870990
     17          6           0       11.614223   -0.534275   -0.930295
     18          6           0       10.313118    2.109983    1.169899
     19          6           0       11.224902    0.174576    2.501060
     20          6           0      -11.246450    0.051422   -2.546347
     21          6           0       -8.602250    0.828885   -0.135296
     22          6           0        9.301141   -0.388871    0.037155
     23          6           0       11.107129   -1.300000   -2.217284
     24          6           0       -7.180005    0.606219   -0.073122
     25          6           0        8.761560   -1.726883   -0.074697
     26          6           0       -6.799281   -0.901016    0.411484
     27          6           0        7.405025   -2.062175   -0.146928
     28          6           0       -6.201831    1.592835   -0.433485
     29          6           0        7.053582   -3.453871   -0.037502
     30          6           0        6.354244   -1.117758   -0.203546
     31          6           0       -4.882705    1.463479   -0.402196
     32          6           0        4.969124   -1.415023   -0.189378
     33          6           0       -4.074609    2.554534   -0.747954
     34          6           0       -2.614962    2.710454   -0.800897
     35          6           0        3.977379   -0.423631   -0.285343
     36          6           0        2.651375   -0.632971   -0.184413
     37          6           0       -1.926116    4.067670   -0.941446
     38          6           0       -1.870479    1.551238   -0.555408
     39          6           0        1.624233    0.393966   -0.298470
     40          6           0        2.197329   -2.064534    0.083153
     41          6           0       -0.501985    1.486272   -0.523615
     42          6           0        0.319025    0.343125   -0.188728
     43          1           0      -11.181101    1.421727   -0.173725
     44          1           0      -12.354431   -2.008693    2.255262
     45          1           0      -11.054709   -1.821128    1.313292
     46          1           0      -12.404152   -3.295753    0.249878
     47          1           0      -10.294395   -0.115043    2.832088
     48          1           0      -10.543270    1.699489    2.425850
     49          1           0      -11.916803    0.670639    3.295472
     50          1           0      -13.652971    0.068537    0.231854
     51          1           0      -13.881084    0.609434    1.960045
     52          1           0      -13.457250    1.868790    0.882596
     53          1           0       12.837727    2.177437    0.151651
     54          1           0       13.038773    1.796421    1.707711
     55          1           0      -12.509349   -2.184398   -1.878014
     56          1           0       13.509313   -0.426358    1.345926
     57          1           0       -9.335695   -1.121937    0.373244
     58          1           0       13.718178   -1.344204   -1.043299
     59          1           0       13.512704    0.596626   -1.491544
     60          1           0        9.248150    2.021637    1.477220
     61          1           0       10.223675    2.414970   -0.013287
     62          1           0       10.989501    2.799882    1.793134
     63          1           0       11.804634   -0.674233    2.563489
     64          1           0       10.260178   -0.116478    2.930236
     65          1           0       11.335464    0.893866    3.065555
     66          1           0      -10.087174    0.393605   -2.675442
     67          1           0      -11.830349    0.976206   -2.780819
     68          1           0      -11.445481   -0.612973   -3.457568
     69          1           0      -14.409806   -2.536856   -0.427391
     70          1           0        8.678516    0.356705    0.435666
     71          1           0       -8.910239    1.903009   -0.259065
     72          1           0       11.417685   -2.452279   -2.296350
     73          1           0       10.090996   -1.362331   -2.447959
     74          1           0       11.622456   -0.713892   -3.064239
     75          1           0       15.614450    1.038433    0.896063
     76          1           0        9.413536   -2.538533   -0.452210
     77          1           0       -5.792285   -0.862872    0.213748
     78          1           0       -6.875657   -0.698909    1.539541
     79          1           0       -7.401384   -1.416533   -0.149668
     80          1           0       -6.683857    2.489893   -0.763608
     81          1           0        6.647394   -3.983190    0.839256
     82          1           0        6.417463   -3.701902   -0.922740
     83          1           0        8.050404   -3.847384   -0.328491
     84          1           0        6.775200   -0.274905   -0.408224
     85          1           0       -4.371960    0.464335   -0.169316
     86          1           0        4.914473   -2.445537   -0.064469
     87          1           0       -4.668862    3.442468   -1.157693
     88          1           0        4.434437    0.623256   -0.255848
     89          1           0       -1.022022    3.997484   -1.689809
     90          1           0       -1.654376    4.468093    0.227520
     91          1           0       -2.680967    4.778731   -1.546368
     92          1           0       -2.429610    0.710511   -0.121808
     93          1           0        1.926777    1.369629   -0.324253
     94          1           0        2.429752   -2.198959    1.073915
     95          1           0        1.205097   -2.229817   -0.344774
     96          1           0        2.908826   -2.785014   -0.611435
     97          1           0        0.142727    2.364961   -0.644579
     98          1           0       -0.312706   -0.495313   -0.024583
 ---------------------------------------------------------------------

 SCF Done:  E(RCAM-B3LYP) =  -1706.86660486     A.U. after   18 cycles

 Excitation energies and oscillator strengths:

 Excited State   1:      Singlet-A      1.5930 eV  778.30 nm  f=3.2041  <S**2>=0.000
     155 ->158        -0.12467
     156 ->157         0.71021
     156 <-157        -0.15698
 This state for optimization and/or second-order correction.
 Total Energy, E(TD-HF/TD-DFT) =  -1706.80806285
 Copying the excited state density for this state as the 1-particle RhoCI density.

 The electronic state is 1-A.
 Alpha  occ. eigenvalues --  -19.21268 -19.21012 -10.30175 -10.30108 -10.29513
 Alpha  occ. eigenvalues --  -10.28272 -10.28068 -10.27975 -10.27850 -10.27571
 Alpha  occ. eigenvalues --  -10.27493 -10.27190 -10.27100 -10.27075 -10.26974
 Alpha  occ. eigenvalues --  -10.26938 -10.26831 -10.26749 -10.26583 -10.26566
 Alpha  occ. eigenvalues --  -10.26440 -10.26417 -10.26321 -10.26190 -10.26179
 Alpha  occ. eigenvalues --  -10.26057 -10.26049 -10.26026 -10.25940 -10.25874
 Alpha  occ. eigenvalues --  -10.25778 -10.25737 -10.25632 -10.25272 -10.25098
 Alpha  occ. eigenvalues --  -10.24885 -10.24789 -10.24287 -10.23986 -10.23838
 Alpha  occ. eigenvalues --  -10.23177 -10.22188  -1.08885  -1.07514  -0.94484
 Alpha  occ. eigenvalues --   -0.93753  -0.92465  -0.91862  -0.91165  -0.89865
 Alpha  occ. eigenvalues --   -0.87958  -0.86571  -0.85851  -0.85802  -0.85380
 Alpha  occ. eigenvalues --   -0.83863  -0.82414  -0.80995  -0.79877  -0.78806
 Alpha  occ. eigenvalues --   -0.77335  -0.76717  -0.76033  -0.75526  -0.75371
 Alpha  occ. eigenvalues --   -0.75230  -0.74618  -0.74105  -0.72314  -0.70775
 Alpha  occ. eigenvalues --   -0.69560  -0.67922  -0.66730  -0.65166  -0.63922
 Alpha  occ. eigenvalues --   -0.63638  -0.63065  -0.62261  -0.61276  -0.60310
 Alpha  occ. eigenvalues --   -0.59812  -0.59094  -0.58328  -0.57722  -0.56311
 Alpha  occ. eigenvalues --   -0.56021  -0.54990  -0.54966  -0.54613  -0.53945
 Alpha  occ. eigenvalues --   -0.53116  -0.52884  -0.52561  -0.52324  -0.51761
 Alpha  occ. eigenvalues --   -0.51151  -0.50904  -0.50523  -0.50001  -0.49493
 Alpha  occ. eigenvalues --   -0.49038  -0.48711  -0.48453  -0.48169  -0.47940
 Alpha  occ. eigenvalues --   -0.47553  -0.47306  -0.46816  -0.46459  -0.46160
 Alpha  occ. eigenvalues --   -0.45906  -0.45487  -0.45250  -0.45058  -0.44978
 Alpha  occ. eigenvalues --   -0.44266  -0.44167  -0.44003  -0.43721  -0.43014
 Alpha  occ. eigenvalues --   -0.42963  -0.42866  -0.42197  -0.42126  -0.41935
 Alpha  occ. eigenvalues --   -0.41836  -0.41328  -0.40935  -0.40656  -0.40262
 Alpha  occ. eigenvalues --   -0.40081  -0.39896  -0.39642  -0.39279  -0.38924
 Alpha  occ. eigenvalues --   -0.38649  -0.38439  -0.38133  -0.37773  -0.37547
 Alpha  occ. eigenvalues --   -0.37468  -0.37252  -0.37045  -0.35652  -0.35489
 Alpha  occ. eigenvalues --   -0.34907  -0.34664  -0.33541  -0.32390  -0.32128
 Alpha  occ. eigenvalues --   -0.31718  -0.30506  -0.29460  -0.26350  -0.23313
 Alpha  occ. eigenvalues --   -0.17565
 Alpha virt. eigenvalues --   -0.07979  -0.01843   0.01738   0.05436   0.06981
 Alpha virt. eigenvalues --    0.09270   0.10966   0.11541   0.11806   0.12365
 Alpha virt. eigenvalues --    0.12518   0.13064   0.13148   0.13631   0.13821

 Mulliken charges:
               1
     1  O   -0.536764
     2  O   -0.600664
     3  C    0.018898
     4  C   -0.167508
     5  C   -0.180970
     6  C    0.120024
     7  C    0.121626
     8  C   -0.047246
     9  C   -0.295290
    10  C   -0.281216
    11  C   -0.182322
    12  C   -0.137384
    13  C    0.181361
    14  C    0.108795
    15  C   -0.048281
    16  C   -0.184345
    17  C    0.001498
    18  C   -0.308446
    19  C   -0.282795
    20  C   -0.359830
    21  C   -0.077939
    22  C   -0.121511
    23  C   -0.348475
    24  C   -0.010494
    25  C   -0.116193
    26  C   -0.334003
    27  C    0.070870
    28  C   -0.094033
    29  C   -0.384424
    30  C   -0.068152
    31  C   -0.052048
    32  C   -0.079765
    33  C   -0.145737
    34  C    0.084050
    35  C   -0.110879
    36  C    0.077035
    37  C   -0.348254
    38  C   -0.100931
    39  C   -0.105409
    40  C   -0.354634
    41  C   -0.105624
    42  C   -0.061043
    43  H    0.089569
    44  H    0.101368
    45  H    0.100516
    46  H    0.093546
    47  H    0.067979
    48  H    0.106368
    49  H    0.107618
    50  H    0.114327
    51  H    0.113515
    52  H    0.052887
    53  H    0.094958
    54  H    0.082576
    55  H    0.058055
    56  H    0.086353
    57  H    0.092286
    58  H    0.076760
    59  H    0.137190
    60  H    0.110036
    61  H    0.084561
    62  H    0.098309
    63  H    0.109028
    64  H    0.092132
    65  H    0.103106
    66  H    0.102521
    67  H    0.112795
    68  H    0.108012
    69  H    0.301112
    70  H    0.090520
    71  H    0.076545
    72  H    0.086732
    73  H    0.128826
    74  H    0.099845
    75  H    0.311005
    76  H    0.088968
    77  H    0.108541
    78  H    0.129521
    79  H    0.133909
    80  H    0.082131
    81  H    0.130698
    82  H    0.115258
    83  H    0.092875
    84  H    0.050732
    85  H    0.093609
    86  H    0.083664
    87  H    0.075229
    88  H    0.085089
    89  H    0.121161
    90  H    0.116593
    91  H    0.098093
    92  H    0.082292
    93  H    0.072039
    94  H    0.142812
    95  H    0.115046
    96  H    0.088357
    97  H    0.076864
    98  H    0.074012
 Sum of Mulliken charges =  -0.00000

 Dipole moment (field-independent basis, Debye):
    X=              1.9789    Y=              0.0426    Z=              0.5222  Tot=              2.0471
 Quadrupole moment (field-independent basis, Debye-Ang):
   XX=           -272.4255   YY=           -247.3595   ZZ=           -260.9464
   XY=              7.7988   XZ=             41.2951   YZ=              2.8372

 Normal termination of Gaussian 16 at Mon Jul 15 09:11:32 2019.
