 Gaussian 16, Revision A.03,
 Gaussian 16:  ES64L-G16RevA.03 25-Dec-2016

 -------------------------------------
 # td=(NStates=1) CAM-B3LYP/6-31G(d,p)
 -------------------------------------

 --
 TD
 --
 Symbolic Z-matrix:
 Charge =  0 Multiplicity = 1

                         Standard orientation:
 ---------------------------------------------------------------------
 Center     Atomic      Atomic             Coordinates (Angstroms)
 Number     Number       Type             X           Y           Z
 ---------------------------------------------------------------------
      1          8           0      -14.066291   -2.123504    0.209416
      2          8           0       14.814149    0.683333   -0.081956
      3          6           0      -11.770582   -0.202306    1.310431
      4          6           0      -10.978419    0.337211    0.012030
      5          6           0      -11.998843   -1.674949    1.261835
      6          6           0      -12.737414   -2.179478   -0.052660
      7          6           0      -11.643295   -0.297690   -1.301722
      8          6           0       11.137393    0.931348    0.931395
      9          6           0      -11.013008    0.075668    2.648126
     10          6           0      -13.173848    0.484934    1.365472
     11          6           0       12.621476    1.335008    0.772302
     12          6           0      -12.253188   -1.520408   -1.322995
     13          6           0       13.556169    0.197700    0.262427
     14          6           0       10.711851   -0.156200   -0.012311
     15          6           0       -9.507026   -0.017761    0.078400
     16          6           0       13.005838   -0.376356   -0.962702
     17          6           0       11.538616   -0.623340   -0.982196
     18          6           0       10.271632    2.214415    0.905790
     19          6           0       11.029507    0.403623    2.440260
     20          6           0      -11.332584    0.447191   -2.506739
     21          6           0       -8.611735    0.893676    0.063696
     22          6           0        9.262560   -0.431378    0.012687
     23          6           0       11.132994   -1.518461   -2.097991
     24          6           0       -7.115909    0.618896   -0.108580
     25          6           0        8.798682   -1.747792   -0.035471
     26          6           0       -6.776824   -0.842363    0.085692
     27          6           0        7.331711   -2.064868    0.135992
     28          6           0       -6.199868    1.625860   -0.378392
     29          6           0        7.021331   -3.549019    0.366599
     30          6           0        6.377224   -1.061969   -0.062891
     31          6           0       -4.782880    1.519564   -0.347016
     32          6           0        5.013346   -1.348919    0.028064
     33          6           0       -3.987310    2.694128   -0.515350
     34          6           0       -2.634387    2.737530   -0.433073
     35          6           0        4.037998   -0.379527   -0.233170
     36          6           0        2.676560   -0.713142   -0.224941
     37          6           0       -1.939484    4.090562   -0.664307
     38          6           0       -1.703721    1.710010   -0.461858
     39          6           0        1.808801    0.465754   -0.369018
     40          6           0        2.113347   -2.132401   -0.137841
     41          6           0       -0.361591    1.625961   -0.396836
     42          6           0        0.430482    0.418431   -0.228784
     43          1           0      -11.150522    1.548305   -0.237314
     44          1           0      -12.628130   -1.912890    2.156869
     45          1           0      -11.074237   -2.350987    1.279900
     46          1           0      -12.436876   -3.293209   -0.304276
     47          1           0      -10.104220   -0.611499    2.692243
     48          1           0      -10.579718    1.092033    2.850139
     49          1           0      -11.639937   -0.207533    3.393426
     50          1           0      -13.855935    0.422343    0.437632
     51          1           0      -13.624993    0.085583    2.202497
     52          1           0      -12.977026    1.773898    1.923494
     53          1           0       12.449801    2.123466    0.141454
     54          1           0       12.964862    1.709354    1.624988
     55          1           0      -12.659771   -1.743944   -2.344291
     56          1           0       13.530408   -0.574614    1.019928
     57          1           0       -9.372066   -1.182715    0.106123
     58          1           0       13.268231   -1.511920   -1.299894
     59          1           0       13.097953    0.237229   -1.703639
     60          1           0        9.352337    2.078891    1.645460
     61          1           0        9.862708    2.562343   -0.034735
     62          1           0       10.711970    2.960245    1.518451
     63          1           0       11.789455   -0.403332    2.708868
     64          1           0       10.117573   -0.030001    2.373660
     65          1           0       11.066476    1.330844    2.974641
     66          1           0      -10.119414    0.643639   -2.850467
     67          1           0      -11.914416    1.477794   -2.422725
     68          1           0      -11.362647   -0.092721   -3.442204
     69          1           0      -14.650828   -2.370945   -0.659940
     70          1           0        8.638387    0.314446    0.392243
     71          1           0       -8.842811    1.785635   -0.059467
     72          1           0       11.414321   -2.520472   -1.810162
     73          1           0       10.086091   -1.317940   -2.199158
     74          1           0       11.705332   -1.158929   -2.945799
     75          1           0       15.285025    1.014527    0.623029
     76          1           0        9.560903   -2.566281   -0.055667
     77          1           0       -5.712237   -1.065756    0.095339
     78          1           0       -7.378960   -1.147501    0.886829
     79          1           0       -7.311333   -1.214741   -0.728425
     80          1           0       -6.426160    2.607290   -0.389535
     81          1           0        6.278879   -3.683559    1.232116
     82          1           0        6.498927   -3.911445   -0.480396
     83          1           0        7.916102   -4.042842    0.355825
     84          1           0        6.637838   -0.111300   -0.160968
     85          1           0       -4.225272    0.579997   -0.195906
     86          1           0        4.551960   -2.296540    0.398612
     87          1           0       -4.510133    3.647059   -0.589545
     88          1           0        4.268394    0.692828   -0.350683
     89          1           0       -1.333974    4.068676   -1.695329
     90          1           0       -1.183602    4.158045    0.107146
     91          1           0       -2.639036    4.955434   -0.476491
     92          1           0       -2.053601    0.663615   -0.689360
     93          1           0        2.277251    1.429374   -0.540834
     94          1           0        1.744829   -2.053484    1.325749
     95          1           0        1.070631   -2.304348   -0.902330
     96          1           0        3.464002   -2.769714   -0.421379
     97          1           0        0.246132    2.556877   -0.550884
     98          1           0       -0.205403   -0.482105   -0.010653
 ---------------------------------------------------------------------

 SCF Done:  E(RCAM-B3LYP) =  -1706.78391723     A.U. after   17 cycles

 Excitation energies and oscillator strengths:

 Excited State   1:      Singlet-A      1.7054 eV  726.99 nm  f=2.7461  <S**2>=0.000
     155 ->158        -0.11576
     156 ->157         0.71006
     156 <-157        -0.14838
 This state for optimization and/or second-order correction.
 Total Energy, E(TD-HF/TD-DFT) =  -1706.72124358
 Copying the excited state density for this state as the 1-particle RhoCI density.

 The electronic state is 1-A.
 Alpha  occ. eigenvalues --  -19.22880 -19.20641 -10.33110 -10.31893 -10.30033
 Alpha  occ. eigenvalues --  -10.28506 -10.28131 -10.27704 -10.27563 -10.27519
 Alpha  occ. eigenvalues --  -10.27464 -10.27434 -10.27017 -10.26753 -10.26686
 Alpha  occ. eigenvalues --  -10.26663 -10.26655 -10.26502 -10.26463 -10.26238
 Alpha  occ. eigenvalues --  -10.26209 -10.26167 -10.25998 -10.25943 -10.25924
 Alpha  occ. eigenvalues --  -10.25892 -10.25884 -10.25433 -10.25426 -10.25399
 Alpha  occ. eigenvalues --  -10.25254 -10.25000 -10.24900 -10.24626 -10.24564
 Alpha  occ. eigenvalues --  -10.24490 -10.24352 -10.24315 -10.23931 -10.23867
 Alpha  occ. eigenvalues --  -10.23359 -10.22483  -1.11176  -1.10682  -0.93793
 Alpha  occ. eigenvalues --   -0.92984  -0.91778  -0.91160  -0.90412  -0.89036
 Alpha  occ. eigenvalues --   -0.88054  -0.87331  -0.86958  -0.85626  -0.84675
 Alpha  occ. eigenvalues --   -0.82770  -0.81500  -0.80423  -0.80244  -0.78086
 Alpha  occ. eigenvalues --   -0.76585  -0.76520  -0.76103  -0.75592  -0.75476
 Alpha  occ. eigenvalues --   -0.75056  -0.74418  -0.73718  -0.71331  -0.70012
 Alpha  occ. eigenvalues --   -0.69164  -0.67352  -0.66650  -0.65451  -0.63703
 Alpha  occ. eigenvalues --   -0.63526  -0.62616  -0.61834  -0.60744  -0.60475
 Alpha  occ. eigenvalues --   -0.60380  -0.59240  -0.58758  -0.57390  -0.55783
 Alpha  occ. eigenvalues --   -0.55089  -0.54745  -0.54565  -0.53933  -0.53907
 Alpha  occ. eigenvalues --   -0.53101  -0.52520  -0.52248  -0.51981  -0.51560
 Alpha  occ. eigenvalues --   -0.51128  -0.50479  -0.50079  -0.49898  -0.49322
 Alpha  occ. eigenvalues --   -0.48972  -0.48877  -0.48186  -0.47591  -0.47505
 Alpha  occ. eigenvalues --   -0.47434  -0.47337  -0.47070  -0.46834  -0.46043
 Alpha  occ. eigenvalues --   -0.45899  -0.45497  -0.45290  -0.45242  -0.44981
 Alpha  occ. eigenvalues --   -0.44893  -0.44531  -0.44410  -0.44270  -0.43558
 Alpha  occ. eigenvalues --   -0.43103  -0.42847  -0.42760  -0.42671  -0.42360
 Alpha  occ. eigenvalues --   -0.41864  -0.41432  -0.41111  -0.41013  -0.40592
 Alpha  occ. eigenvalues --   -0.40326  -0.39756  -0.39561  -0.39102  -0.38587
 Alpha  occ. eigenvalues --   -0.38194  -0.38109  -0.37956  -0.37734  -0.36896
 Alpha  occ. eigenvalues --   -0.36592  -0.36255  -0.35890  -0.35485  -0.35356
 Alpha  occ. eigenvalues --   -0.35002  -0.33906  -0.33321  -0.31926  -0.31810
 Alpha  occ. eigenvalues --   -0.31254  -0.29432  -0.28924  -0.26339  -0.23333
 Alpha  occ. eigenvalues --   -0.17386
 Alpha virt. eigenvalues --   -0.06958  -0.00502   0.02871   0.04680   0.05047
 Alpha virt. eigenvalues --    0.07181   0.08684   0.09670   0.10905   0.11213
 Alpha virt. eigenvalues --    0.11986   0.12203   0.12949   0.13095   0.13584

 Mulliken charges:
               1
     1  O   -0.529410
     2  O   -0.543405
     3  C    0.028088
     4  C   -0.135347
     5  C   -0.180991
     6  C    0.163859
     7  C    0.115686
     8  C   -0.049583
     9  C   -0.300577
    10  C   -0.257341
    11  C   -0.179842
    12  C   -0.154400
    13  C    0.169003
    14  C    0.083861
    15  C   -0.052257
    16  C   -0.166868
    17  C   -0.013290
    18  C   -0.333887
    19  C   -0.293806
    20  C   -0.351358
    21  C   -0.035993
    22  C   -0.125721
    23  C   -0.354696
    24  C    0.052815
    25  C   -0.122549
    26  C   -0.363452
    27  C    0.050438
    28  C   -0.118968
    29  C   -0.365715
    30  C   -0.078048
    31  C   -0.064646
    32  C   -0.137762
    33  C   -0.134871
    34  C    0.104359
    35  C   -0.082848
    36  C    0.094747
    37  C   -0.371542
    38  C   -0.121273
    39  C   -0.121390
    40  C   -0.286928
    41  C   -0.087992
    42  C   -0.093881
    43  H    0.067970
    44  H    0.113981
    45  H    0.089158
    46  H    0.045470
    47  H    0.089555
    48  H    0.103727
    49  H    0.107576
    50  H    0.117456
    51  H    0.115617
    52  H    0.013495
    53  H    0.100858
    54  H    0.081063
    55  H    0.076306
    56  H    0.076528
    57  H    0.091884
    58  H    0.079853
    59  H    0.129102
    60  H    0.081724
    61  H    0.118489
    62  H    0.112862
    63  H    0.087738
    64  H    0.112208
    65  H    0.094260
    66  H    0.081179
    67  H    0.111803
    68  H    0.117361
    69  H    0.308109
    70  H    0.094505
    71  H    0.059205
    72  H    0.119431
    73  H    0.128125
    74  H    0.108706
    75  H    0.295223
    76  H    0.092067
    77  H    0.111484
    78  H    0.130417
    79  H    0.137602
    80  H    0.074633
    81  H    0.118652
    82  H    0.131791
    83  H    0.114810
    84  H    0.075483
    85  H    0.088467
    86  H    0.103030
    87  H    0.081100
    88  H    0.086410
    89  H    0.114146
    90  H    0.125423
    91  H    0.095942
    92  H    0.062868
    93  H    0.085081
    94  H    0.054361
    95  H    0.113852
    96  H    0.065725
    97  H    0.068813
    98  H    0.085096
 Sum of Mulliken charges =  -0.00000

 Dipole moment (field-independent basis, Debye):
    X=             -1.3973    Y=             -0.2759    Z=             -0.2814  Tot=              1.4518
 Quadrupole moment (field-independent basis, Debye-Ang):
   XX=           -234.0310   YY=           -248.9546   ZZ=           -262.6905
   XY=             13.1748   XZ=             39.0935   YZ=              3.9929

 Normal termination of Gaussian 16 at Sun Jul 14 05:02:01 2019.
