 Gaussian 16, Revision A.03,
 Gaussian 16:  ES64L-G16RevA.03 25-Dec-2016

 -------------------------------------
 # td=(NStates=1) CAM-B3LYP/6-31G(d,p)
 -------------------------------------

 --
 TD
 --
 Symbolic Z-matrix:
 Charge =  0 Multiplicity = 1

                         Standard orientation:
 ---------------------------------------------------------------------
 Center     Atomic      Atomic             Coordinates (Angstroms)
 Number     Number       Type             X           Y           Z
 ---------------------------------------------------------------------
      1          8           0      -14.110863   -2.051245    0.394032
      2          8           0       14.790031    1.021466    0.041651
      3          6           0      -11.741646   -0.030119    1.244052
      4          6           0      -10.958931    0.402848   -0.096382
      5          6           0      -11.953826   -1.576584    1.313200
      6          6           0      -12.640666   -2.145831    0.104732
      7          6           0      -11.579124   -0.276732   -1.255658
      8          6           0       10.994283    1.145728    0.860734
      9          6           0      -10.968518    0.412709    2.465337
     10          6           0      -13.088567    0.721422    1.241172
     11          6           0       12.409566    1.666731    0.559205
     12          6           0      -12.335099   -1.377860   -1.174688
     13          6           0       13.469639    0.522264    0.367340
     14          6           0       10.617018   -0.057195   -0.009915
     15          6           0       -9.525391   -0.025521    0.057796
     16          6           0       13.043088   -0.367135   -0.763702
     17          6           0       11.492465   -0.712799   -0.877210
     18          6           0       10.055558    2.309688    0.683962
     19          6           0       10.859204    0.682379    2.397181
     20          6           0      -11.242960    0.408204   -2.638820
     21          6           0       -8.556450    0.876885   -0.184433
     22          6           0        9.248485   -0.537325    0.055597
     23          6           0       11.247863   -1.814166   -1.866950
     24          6           0       -7.067249    0.501989   -0.067398
     25          6           0        8.796475   -1.743189   -0.008702
     26          6           0       -6.630451   -0.791050    0.323296
     27          6           0        7.426792   -2.180636    0.070644
     28          6           0       -6.206084    1.493488   -0.182145
     29          6           0        7.133408   -3.636311    0.400695
     30          6           0        6.375077   -1.284068   -0.109527
     31          6           0       -4.807804    1.495394   -0.203517
     32          6           0        4.990785   -1.527980   -0.052450
     33          6           0       -3.957631    2.581562   -0.381062
     34          6           0       -2.570164    2.665111   -0.582292
     35          6           0        4.021427   -0.655654   -0.303513
     36          6           0        2.652202   -0.897549   -0.279071
     37          6           0       -1.800804    3.817401   -0.903907
     38          6           0       -1.794287    1.520072   -0.375023
     39          6           0        1.820796    0.259705   -0.428332
     40          6           0        2.100064   -2.202747    0.081273
     41          6           0       -0.389371    1.497807   -0.522629
     42          6           0        0.380391    0.330288   -0.410581
     43          1           0      -11.039982    1.472221   -0.236162
     44          1           0      -12.871539   -1.720806    2.238570
     45          1           0      -11.108077   -1.972994    1.649556
     46          1           0      -12.279437   -3.261375   -0.173919
     47          1           0      -10.166980   -0.068082    2.430737
     48          1           0      -10.756895    1.447743    2.284531
     49          1           0      -11.699343    0.176267    3.286616
     50          1           0      -13.587623    0.277840    0.397246
     51          1           0      -13.628988    0.564478    2.172922
     52          1           0      -13.051941    1.825140    0.979245
     53          1           0       12.542472    2.415309   -0.215596
     54          1           0       12.462680    2.163526    1.569923
     55          1           0      -12.718808   -1.809678   -2.059265
     56          1           0       13.263126   -0.132128    1.281030
     57          1           0       -9.296002   -1.103770    0.381495
     58          1           0       13.547202   -1.315847   -0.669614
     59          1           0       13.132981   -0.056251   -1.744368
     60          1           0        9.114122    2.243268    1.109773
     61          1           0       10.161711    2.703748   -0.305969
     62          1           0       10.682776    3.176765    1.085512
     63          1           0       11.820605   -0.062995    2.461522
     64          1           0        9.751729    0.453987    2.728353
     65          1           0       11.156687    1.723352    3.043914
     66          1           0      -10.087298    0.215799   -2.575392
     67          1           0      -11.512026    1.441262   -2.761020
     68          1           0      -11.573528   -0.303886   -3.614131
     69          1           0      -14.509317   -2.741944   -0.303932
     70          1           0        8.535424    0.361909    0.236489
     71          1           0       -9.027673    1.917757   -0.315341
     72          1           0       11.524387   -2.816681   -1.523989
     73          1           0       10.371996   -1.970327   -2.234198
     74          1           0       12.039560   -1.662335   -2.833767
     75          1           0       15.105463    1.560364    0.854655
     76          1           0        9.433206   -2.638511   -0.129150
     77          1           0       -5.484491   -0.839602    0.210882
     78          1           0       -6.905381   -1.032864    1.244331
     79          1           0       -7.098882   -1.560619   -0.373239
     80          1           0       -6.653292    2.497736   -0.426738
     81          1           0        6.614633   -3.695276    1.370834
     82          1           0        6.624481   -4.176350   -0.370393
     83          1           0        8.144137   -4.333354    0.429578
     84          1           0        6.753629   -0.247145   -0.444509
     85          1           0       -4.432236    0.341755    0.002596
     86          1           0        4.607107   -2.592428    0.046628
     87          1           0       -4.459989    3.581188   -0.462088
     88          1           0        4.122282    0.356850   -0.370672
     89          1           0       -1.154963    3.593763   -1.801015
     90          1           0       -0.914674    4.351008   -0.377172
     91          1           0       -2.495412    4.626361   -1.119705
     92          1           0       -2.271966    0.465158   -0.012853
     93          1           0        2.299395    1.497169   -0.552665
     94          1           0        2.168054   -2.541438    1.100162
     95          1           0        0.968379   -2.288708   -0.032593
     96          1           0        2.472355   -2.973916   -0.501983
     97          1           0        0.138408    2.576333   -0.647186
     98          1           0       -0.122961   -0.697860   -0.183781
 ---------------------------------------------------------------------

 SCF Done:  E(RCAM-B3LYP) =  -1706.91812372     A.U. after   15 cycles

 Excitation energies and oscillator strengths:

 Excited State   1:      Singlet-A      2.1366 eV  580.30 nm  f=2.9152  <S**2>=0.000
     155 ->158        -0.14252
     156 ->157         0.69411
 This state for optimization and/or second-order correction.
 Total Energy, E(TD-HF/TD-DFT) =  -1706.83960682
 Copying the excited state density for this state as the 1-particle RhoCI density.

 The electronic state is 1-A.
 Alpha  occ. eigenvalues --  -19.22762 -19.22255 -10.32242 -10.31593 -10.28988
 Alpha  occ. eigenvalues --  -10.28771 -10.27945 -10.27876 -10.27797 -10.27595
 Alpha  occ. eigenvalues --  -10.27497 -10.27472 -10.27270 -10.27165 -10.27075
 Alpha  occ. eigenvalues --  -10.27033 -10.26928 -10.26897 -10.26838 -10.26636
 Alpha  occ. eigenvalues --  -10.26619 -10.26588 -10.26197 -10.26101 -10.26004
 Alpha  occ. eigenvalues --  -10.25991 -10.25915 -10.25869 -10.25712 -10.25697
 Alpha  occ. eigenvalues --  -10.25586 -10.25498 -10.25375 -10.25186 -10.25183
 Alpha  occ. eigenvalues --  -10.25130 -10.24523 -10.24376 -10.24375 -10.24356
 Alpha  occ. eigenvalues --  -10.22508 -10.21782  -1.08240  -1.06282  -0.93678
 Alpha  occ. eigenvalues --   -0.93414  -0.92541  -0.92252  -0.91273  -0.90250
 Alpha  occ. eigenvalues --   -0.87237  -0.86691  -0.86415  -0.85563  -0.84835
 Alpha  occ. eigenvalues --   -0.83257  -0.82380  -0.80600  -0.80491  -0.78242
 Alpha  occ. eigenvalues --   -0.77393  -0.76817  -0.76556  -0.76179  -0.76121
 Alpha  occ. eigenvalues --   -0.75026  -0.74647  -0.74239  -0.72496  -0.70526
 Alpha  occ. eigenvalues --   -0.68814  -0.67167  -0.66494  -0.64986  -0.63783
 Alpha  occ. eigenvalues --   -0.62484  -0.61326  -0.60926  -0.59991  -0.59388
 Alpha  occ. eigenvalues --   -0.58688  -0.58338  -0.58236  -0.57660  -0.56204
 Alpha  occ. eigenvalues --   -0.55520  -0.55241  -0.54322  -0.54302  -0.53784
 Alpha  occ. eigenvalues --   -0.53711  -0.53125  -0.52473  -0.52008  -0.51225
 Alpha  occ. eigenvalues --   -0.50699  -0.50323  -0.50124  -0.50003  -0.49619
 Alpha  occ. eigenvalues --   -0.49407  -0.49203  -0.49108  -0.48882  -0.48348
 Alpha  occ. eigenvalues --   -0.47606  -0.47216  -0.46848  -0.46450  -0.46355
 Alpha  occ. eigenvalues --   -0.46222  -0.45499  -0.44872  -0.44468  -0.44169
 Alpha  occ. eigenvalues --   -0.44100  -0.43863  -0.43383  -0.43219  -0.43100
 Alpha  occ. eigenvalues --   -0.43066  -0.42696  -0.42286  -0.42106  -0.41893
 Alpha  occ. eigenvalues --   -0.41631  -0.41589  -0.41237  -0.40856  -0.40487
 Alpha  occ. eigenvalues --   -0.40175  -0.40100  -0.39788  -0.39424  -0.38995
 Alpha  occ. eigenvalues --   -0.38852  -0.38635  -0.38440  -0.38267  -0.37814
 Alpha  occ. eigenvalues --   -0.37087  -0.36834  -0.36569  -0.36068  -0.35606
 Alpha  occ. eigenvalues --   -0.35585  -0.35152  -0.33575  -0.32526  -0.32408
 Alpha  occ. eigenvalues --   -0.31327  -0.29027  -0.29004  -0.26906  -0.23711
 Alpha  occ. eigenvalues --   -0.19408
 Alpha virt. eigenvalues --   -0.05951  -0.00597   0.03097   0.05821   0.07400
 Alpha virt. eigenvalues --    0.09075   0.09880   0.10378   0.10516   0.11338
 Alpha virt. eigenvalues --    0.11601   0.11878   0.12463   0.12555   0.13478

 Mulliken charges:
               1
     1  O   -0.538244
     2  O   -0.559464
     3  C   -0.024077
     4  C   -0.147670
     5  C   -0.164297
     6  C    0.109530
     7  C    0.120809
     8  C   -0.043704
     9  C   -0.253626
    10  C   -0.294475
    11  C   -0.206887
    12  C   -0.112373
    13  C    0.163920
    14  C    0.084898
    15  C   -0.079433
    16  C   -0.205983
    17  C    0.020203
    18  C   -0.299188
    19  C   -0.277466
    20  C   -0.347043
    21  C   -0.098110
    22  C   -0.112512
    23  C   -0.346418
    24  C    0.100405
    25  C   -0.087003
    26  C   -0.372700
    27  C    0.078339
    28  C   -0.096391
    29  C   -0.375661
    30  C   -0.118738
    31  C   -0.063663
    32  C   -0.106766
    33  C   -0.145472
    34  C    0.142151
    35  C   -0.052720
    36  C    0.106699
    37  C   -0.410194
    38  C   -0.106994
    39  C   -0.133818
    40  C   -0.391838
    41  C   -0.083725
    42  C   -0.090342
    43  H    0.093894
    44  H    0.086138
    45  H    0.097447
    46  H    0.071874
    47  H    0.094561
    48  H    0.094826
    49  H    0.090722
    50  H    0.129219
    51  H    0.094114
    52  H    0.074277
    53  H    0.108458
    54  H    0.083212
    55  H    0.072547
    56  H    0.070349
    57  H    0.088051
    58  H    0.113920
    59  H    0.124598
    60  H    0.112519
    61  H    0.112910
    62  H    0.087568
    63  H    0.094765
    64  H    0.120019
    65  H    0.065928
    66  H    0.116848
    67  H    0.124144
    68  H    0.080878
    69  H    0.304573
    70  H    0.072386
    71  H    0.089501
    72  H    0.120050
    73  H    0.131758
    74  H    0.070697
    75  H    0.312049
    76  H    0.078347
    77  H    0.100001
    78  H    0.141151
    79  H    0.106107
    80  H    0.070173
    81  H    0.132812
    82  H    0.131819
    83  H    0.078776
    84  H    0.080336
    85  H    0.058937
    86  H    0.077414
    87  H    0.075213
    88  H    0.071490
    89  H    0.130092
    90  H    0.122440
    91  H    0.100592
    92  H    0.075790
    93  H    0.058164
    94  H    0.135363
    95  H    0.100077
    96  H    0.129386
    97  H    0.079720
    98  H    0.081044
 Sum of Mulliken charges =  -0.00000

 Dipole moment (field-independent basis, Debye):
    X=              1.0898    Y=             -1.4062    Z=              0.1807  Tot=              1.7882
 Quadrupole moment (field-independent basis, Debye-Ang):
   XX=           -287.5894   YY=           -236.8954   ZZ=           -266.8842
   XY=             16.0685   XZ=             32.4060   YZ=              2.4489

 Normal termination of Gaussian 16 at Sat Jul 13 05:19:55 2019.
