 Gaussian 16, Revision A.03,
 Gaussian 16:  ES64L-G16RevA.03 25-Dec-2016

 -------------------------------------
 # td=(NStates=1) CAM-B3LYP/6-31G(d,p)
 -------------------------------------

 --
 TD
 --
 Symbolic Z-matrix:
 Charge =  0 Multiplicity = 1

                         Standard orientation:
 ---------------------------------------------------------------------
 Center     Atomic      Atomic             Coordinates (Angstroms)
 Number     Number       Type             X           Y           Z
 ---------------------------------------------------------------------
      1          8           0      -13.897697   -2.206448    0.792838
      2          8           0       14.698615    1.088266    0.445592
      3          6           0      -11.636826    0.126539    1.352979
      4          6           0      -10.940339    0.377755   -0.005756
      5          6           0      -11.755081   -1.393691    1.616437
      6          6           0      -12.534682   -2.197786    0.449542
      7          6           0      -11.589787   -0.385508   -1.125993
      8          6           0       10.897844    0.955491    1.173363
      9          6           0      -10.778325    0.680639    2.485157
     10          6           0      -13.013661    0.732571    1.333145
     11          6           0       12.387529    1.489735    0.981066
     12          6           0      -12.277101   -1.543193   -0.901370
     13          6           0       13.376343    0.515611    0.567724
     14          6           0       10.561724   -0.026480    0.098004
     15          6           0       -9.468266    0.094405    0.076894
     16          6           0       12.973002   -0.009555   -0.854636
     17          6           0       11.478965   -0.364655   -0.910702
     18          6           0        9.976688    2.073983    1.237931
     19          6           0       10.911881    0.156472    2.598902
     20          6           0      -11.423099    0.076190   -2.505259
     21          6           0       -8.449600    0.940705   -0.305364
     22          6           0        9.248272   -0.511835    0.041973
     23          6           0       11.247038   -1.174694   -2.139939
     24          6           0       -7.033903    0.560783   -0.299452
     25          6           0        8.706868   -1.767407   -0.144374
     26          6           0       -6.652065   -0.839958    0.004579
     27          6           0        7.347836   -2.117362   -0.144719
     28          6           0       -6.188345    1.602430   -0.479278
     29          6           0        7.019523   -3.616700   -0.037510
     30          6           0        6.325553   -1.340340   -0.238353
     31          6           0       -4.748175    1.513862   -0.534733
     32          6           0        4.961608   -1.729211   -0.232907
     33          6           0       -3.993626    2.658661   -0.639139
     34          6           0       -2.574836    2.689866   -0.738816
     35          6           0        4.014371   -0.636452   -0.292355
     36          6           0        2.597250   -0.876276   -0.328071
     37          6           0       -1.834120    3.975737   -0.994027
     38          6           0       -1.770853    1.428633   -0.531000
     39          6           0        1.747882    0.264830   -0.544398
     40          6           0        2.099807   -2.275147   -0.249820
     41          6           0       -0.430053    1.393259   -0.719225
     42          6           0        0.392615    0.240663   -0.538011
     43          1           0      -11.092020    1.359506   -0.190020
     44          1           0      -12.379571   -1.612249    2.613075
     45          1           0      -10.881450   -1.808464    1.709130
     46          1           0      -12.113135   -3.272422    0.547237
     47          1           0       -9.865599    0.126672    2.812523
     48          1           0      -10.558075    1.714002    2.479691
     49          1           0      -11.585056    0.608254    3.346415
     50          1           0      -13.603591    0.596084    0.441228
     51          1           0      -13.595416    0.162706    2.091763
     52          1           0      -13.007460    1.860927    1.395869
     53          1           0       12.293837    2.186886    0.068630
     54          1           0       12.746622    1.902612    1.820465
     55          1           0      -12.636445   -1.914421   -1.726578
     56          1           0       13.637351   -0.333593    1.209254
     57          1           0       -9.324649   -1.005509    0.532699
     58          1           0       13.680581   -0.920115   -1.227412
     59          1           0       13.450250    0.749293   -1.469578
     60          1           0        8.919784    1.810446    1.523946
     61          1           0        9.620325    2.774956    0.171327
     62          1           0       10.306781    2.798379    2.021542
     63          1           0       11.897074   -0.702360    2.631587
     64          1           0       10.111702   -0.472998    2.935242
     65          1           0       11.181796    0.816872    3.302905
     66          1           0      -10.311547    0.212020   -2.689472
     67          1           0      -11.856992    1.043169   -2.578692
     68          1           0      -11.883324   -0.572382   -3.257268
     69          1           0      -14.502770   -2.250064   -0.077657
     70          1           0        8.558083    0.566795    0.037041
     71          1           0       -8.634886    2.063316   -0.407187
     72          1           0       12.043901   -2.107754   -2.169965
     73          1           0       10.136968   -1.562604   -2.185816
     74          1           0       11.545966   -0.543236   -3.093816
     75          1           0       15.101635    0.979764    1.321845
     76          1           0        9.546614   -2.606053   -0.324625
     77          1           0       -5.657232   -0.997896   -0.028747
     78          1           0       -7.359633   -1.272761    0.873950
     79          1           0       -6.894345   -1.346150   -0.980794
     80          1           0       -6.563693    2.642804   -1.017385
     81          1           0        6.477192   -3.847659    0.789100
     82          1           0        6.353833   -3.951631   -0.741563
     83          1           0        7.984271   -4.358055    0.039183
     84          1           0        6.427192   -0.173002   -0.243315
     85          1           0       -4.280225    0.499240   -0.739881
     86          1           0        4.615840   -2.896507   -0.338992
     87          1           0       -4.575014    3.648399   -0.711538
     88          1           0        4.190414    0.427354   -0.303036
     89          1           0       -1.169662    3.715142   -1.904500
     90          1           0       -1.325528    4.093060    0.031170
     91          1           0       -2.622926    4.720368   -1.247393
     92          1           0       -2.144765    0.336477   -0.454497
     93          1           0        2.172764    1.368531   -0.282814
     94          1           0        2.407517   -2.857902    0.857905
     95          1           0        0.982680   -2.331654   -0.291885
     96          1           0        2.399097   -3.132777   -1.065613
     97          1           0        0.125125    2.254416   -0.945217
     98          1           0        0.023325   -0.698219   -0.311825
 ---------------------------------------------------------------------

 SCF Done:  E(RCAM-B3LYP) =  -1706.89184403     A.U. after   16 cycles

 Excitation energies and oscillator strengths:

 Excited State   1:      Singlet-A      1.7940 eV  691.09 nm  f=2.8113  <S**2>=0.000
     155 ->158         0.11915
     156 ->157         0.70580
     156 <-157        -0.13459
 This state for optimization and/or second-order correction.
 Total Energy, E(TD-HF/TD-DFT) =  -1706.82591415
 Copying the excited state density for this state as the 1-particle RhoCI density.

 The electronic state is 1-A.
 Alpha  occ. eigenvalues --  -19.21752 -19.20353 -10.31447 -10.29441 -10.28993
 Alpha  occ. eigenvalues --  -10.28560 -10.28414 -10.27728 -10.27715 -10.27703
 Alpha  occ. eigenvalues --  -10.27619 -10.27615 -10.27283 -10.27277 -10.27187
 Alpha  occ. eigenvalues --  -10.27180 -10.27143 -10.27068 -10.27065 -10.26982
 Alpha  occ. eigenvalues --  -10.26952 -10.26910 -10.26876 -10.26788 -10.26686
 Alpha  occ. eigenvalues --  -10.26612 -10.26460 -10.26012 -10.25871 -10.25830
 Alpha  occ. eigenvalues --  -10.25578 -10.25519 -10.25300 -10.25274 -10.25262
 Alpha  occ. eigenvalues --  -10.24895 -10.24543 -10.24540 -10.24372 -10.24360
 Alpha  occ. eigenvalues --  -10.24062 -10.23617  -1.08463  -1.08181  -0.94016
 Alpha  occ. eigenvalues --   -0.93641  -0.92015  -0.91649  -0.90962  -0.89741
 Alpha  occ. eigenvalues --   -0.87614  -0.86945  -0.86211  -0.85295  -0.84460
 Alpha  occ. eigenvalues --   -0.82825  -0.81721  -0.80327  -0.79873  -0.78272
 Alpha  occ. eigenvalues --   -0.77474  -0.76474  -0.76285  -0.75566  -0.75559
 Alpha  occ. eigenvalues --   -0.75188  -0.74962  -0.74229  -0.71647  -0.70082
 Alpha  occ. eigenvalues --   -0.68214  -0.67537  -0.65847  -0.63817  -0.63702
 Alpha  occ. eigenvalues --   -0.62970  -0.62528  -0.62149  -0.60238  -0.59175
 Alpha  occ. eigenvalues --   -0.58918  -0.58394  -0.58072  -0.56997  -0.56348
 Alpha  occ. eigenvalues --   -0.55722  -0.55254  -0.54835  -0.54029  -0.53620
 Alpha  occ. eigenvalues --   -0.53127  -0.53018  -0.52329  -0.51739  -0.50777
 Alpha  occ. eigenvalues --   -0.50109  -0.49830  -0.49411  -0.49125  -0.48993
 Alpha  occ. eigenvalues --   -0.48583  -0.48440  -0.48122  -0.47661  -0.47621
 Alpha  occ. eigenvalues --   -0.47171  -0.46956  -0.46785  -0.46044  -0.45898
 Alpha  occ. eigenvalues --   -0.45766  -0.45680  -0.45534  -0.45244  -0.44671
 Alpha  occ. eigenvalues --   -0.44599  -0.44389  -0.44019  -0.43567  -0.43001
 Alpha  occ. eigenvalues --   -0.42618  -0.42364  -0.42260  -0.41973  -0.41911
 Alpha  occ. eigenvalues --   -0.41539  -0.41245  -0.41214  -0.41099  -0.40529
 Alpha  occ. eigenvalues --   -0.40144  -0.39871  -0.39616  -0.39333  -0.38983
 Alpha  occ. eigenvalues --   -0.38928  -0.38706  -0.38606  -0.37896  -0.37669
 Alpha  occ. eigenvalues --   -0.37463  -0.37110  -0.37012  -0.35667  -0.35378
 Alpha  occ. eigenvalues --   -0.34825  -0.34518  -0.33568  -0.32193  -0.31333
 Alpha  occ. eigenvalues --   -0.31172  -0.29298  -0.28326  -0.26507  -0.23636
 Alpha  occ. eigenvalues --   -0.18092
 Alpha virt. eigenvalues --   -0.06970  -0.00601   0.02409   0.04875   0.06630
 Alpha virt. eigenvalues --    0.07839   0.09975   0.10909   0.11003   0.11036
 Alpha virt. eigenvalues --    0.11808   0.12004   0.12416   0.12640   0.12952

 Mulliken charges:
               1
     1  O   -0.551747
     2  O   -0.572362
     3  C    0.021815
     4  C   -0.115341
     5  C   -0.177231
     6  C    0.163307
     7  C    0.123674
     8  C   -0.003248
     9  C   -0.297677
    10  C   -0.305008
    11  C   -0.150270
    12  C   -0.138818
    13  C    0.149262
    14  C    0.065578
    15  C   -0.081792
    16  C   -0.236704
    17  C    0.081976
    18  C   -0.302118
    19  C   -0.301233
    20  C   -0.363721
    21  C   -0.116215
    22  C   -0.100711
    23  C   -0.352050
    24  C    0.124173
    25  C   -0.149290
    26  C   -0.350335
    27  C    0.124382
    28  C   -0.152518
    29  C   -0.382034
    30  C   -0.107409
    31  C   -0.064438
    32  C   -0.102057
    33  C   -0.116757
    34  C    0.033607
    35  C   -0.111526
    36  C    0.114157
    37  C   -0.353274
    38  C   -0.104147
    39  C   -0.131315
    40  C   -0.364480
    41  C   -0.078082
    42  C   -0.079510
    43  H    0.082973
    44  H    0.094184
    45  H    0.092324
    46  H    0.066921
    47  H    0.101741
    48  H    0.103952
    49  H    0.079531
    50  H    0.105946
    51  H    0.114703
    52  H    0.082564
    53  H    0.106141
    54  H    0.084088
    55  H    0.054932
    56  H    0.076463
    57  H    0.078373
    58  H    0.078649
    59  H    0.127420
    60  H    0.114356
    61  H    0.067906
    62  H    0.103345
    63  H    0.053705
    64  H    0.124889
    65  H    0.113325
    66  H    0.117658
    67  H    0.117586
    68  H    0.109387
    69  H    0.308225
    70  H    0.067013
    71  H    0.091089
    72  H    0.090350
    73  H    0.106696
    74  H    0.105836
    75  H    0.303570
    76  H    0.092332
    77  H    0.115768
    78  H    0.115638
    79  H    0.124119
    80  H    0.078290
    81  H    0.131930
    82  H    0.124125
    83  H    0.082148
    84  H    0.077211
    85  H    0.096980
    86  H    0.094664
    87  H    0.078645
    88  H    0.087238
    89  H    0.131252
    90  H    0.139848
    91  H    0.112796
    92  H    0.080031
    93  H    0.076398
    94  H    0.089132
    95  H    0.106690
    96  H    0.104775
    97  H    0.074860
    98  H    0.070774
 Sum of Mulliken charges =  -0.00000

 Dipole moment (field-independent basis, Debye):
    X=             -2.4874    Y=              0.0643    Z=             -0.3806  Tot=              2.5172
 Quadrupole moment (field-independent basis, Debye-Ang):
   XX=           -278.5512   YY=           -248.2888   ZZ=           -262.7330
   XY=            -10.3543   XZ=             50.0715   YZ=              2.2184

 Normal termination of Gaussian 16 at Sun Jul 14 02:03:09 2019.
