 Gaussian 16, Revision A.03,
 Gaussian 16:  ES64L-G16RevA.03 25-Dec-2016

 -------------------------------------
 # td=(NStates=1) CAM-B3LYP/6-31G(d,p)
 -------------------------------------

 --
 TD
 --
 Symbolic Z-matrix:
 Charge =  0 Multiplicity = 1

                         Standard orientation:
 ---------------------------------------------------------------------
 Center     Atomic      Atomic             Coordinates (Angstroms)
 Number     Number       Type             X           Y           Z
 ---------------------------------------------------------------------
      1          8           0      -14.242105   -1.837383    0.519871
      2          8           0       14.853509    0.763382    0.538961
      3          6           0      -11.807808    0.001590    1.368804
      4          6           0      -10.857283    0.202362    0.041487
      5          6           0      -12.058958   -1.522615    1.544278
      6          6           0      -12.823455   -2.125091    0.327921
      7          6           0      -11.582137   -0.453564   -1.160590
      8          6           0       11.036009    1.038995    1.083743
      9          6           0      -10.877832    0.435809    2.596588
     10          6           0      -12.966380    0.868698    1.303945
     11          6           0       12.516496    1.500840    0.858925
     12          6           0      -12.299737   -1.560473   -0.931265
     13          6           0       13.466595    0.341537    0.548905
     14          6           0       10.634086   -0.066397    0.062025
     15          6           0       -9.464250   -0.251244    0.074151
     16          6           0       12.985312   -0.238368   -0.766686
     17          6           0       11.522642   -0.569339   -0.831628
     18          6           0       10.111388    2.216114    1.061985
     19          6           0       10.974801    0.305049    2.523845
     20          6           0      -11.146259    0.031921   -2.568840
     21          6           0       -8.489863    0.740985   -0.063255
     22          6           0        9.249085   -0.458724    0.088955
     23          6           0       11.182781   -1.381087   -2.033279
     24          6           0       -7.129616    0.468174   -0.053373
     25          6           0        8.843589   -1.774258    0.054578
     26          6           0       -6.621273   -1.002106    0.240745
     27          6           0        7.368021   -2.069422   -0.172393
     28          6           0       -6.233603    1.484918   -0.379314
     29          6           0        7.126930   -3.593201    0.039480
     30          6           0        6.429437   -1.171142   -0.460832
     31          6           0       -4.815167    1.502588   -0.460342
     32          6           0        5.008669   -1.507494   -0.405874
     33          6           0       -4.044251    2.632800   -0.691883
     34          6           0       -2.582462    2.745199   -0.763661
     35          6           0        4.072078   -0.512428   -0.593974
     36          6           0        2.654955   -0.722520   -0.349351
     37          6           0       -2.075717    4.094824   -0.926274
     38          6           0       -1.764102    1.547003   -0.585353
     39          6           0        1.858582    0.366637   -0.571004
     40          6           0        2.105970   -2.053421   -0.118968
     41          6           0       -0.416728    1.580000   -0.851076
     42          6           0        0.450587    0.445642   -0.499314
     43          1           0      -10.903888    1.325108   -0.193280
     44          1           0      -12.484112   -1.590560    2.492068
     45          1           0      -11.125936   -1.993205    1.428918
     46          1           0      -12.681072   -3.259686    0.432782
     47          1           0       -9.875961   -0.186816    2.792747
     48          1           0      -10.719034    1.538827    2.413147
     49          1           0      -11.582811    0.202785    3.475095
     50          1           0      -13.484484    0.450816    0.261139
     51          1           0      -13.853276    0.481136    1.981868
     52          1           0      -12.824873    1.936957    1.318822
     53          1           0       12.440108    2.316708    0.034148
     54          1           0       12.908454    1.989523    1.855704
     55          1           0      -12.759210   -2.105366   -1.795054
     56          1           0       13.386516   -0.536388    1.316723
     57          1           0       -9.085801   -1.225148    0.265295
     58          1           0       13.433569   -1.298437   -0.936351
     59          1           0       13.421989    0.403860   -1.670517
     60          1           0        9.108067    2.083735    1.620690
     61          1           0        9.924300    2.426427    0.010421
     62          1           0       10.640361    3.154840    1.711570
     63          1           0       11.460266   -0.908553    2.536162
     64          1           0        9.963875   -0.106482    2.497251
     65          1           0       11.400949    0.747367    3.406501
     66          1           0      -10.167554    0.079847   -2.592677
     67          1           0      -11.754456    1.061004   -2.783508
     68          1           0      -11.466748   -0.686791   -3.346935
     69          1           0      -14.749495   -1.435690   -0.390991
     70          1           0        8.447123    0.476068    0.122017
     71          1           0       -9.017878    1.707220   -0.142158
     72          1           0       11.464052   -2.446939   -1.874295
     73          1           0       10.068427   -1.468266   -2.076788
     74          1           0       11.544872   -0.840277   -3.097694
     75          1           0       15.189332    1.105095    1.416350
     76          1           0        9.599924   -2.639749    0.104503
     77          1           0       -5.480019   -1.071873    0.585656
     78          1           0       -7.249711   -1.172324    1.262141
     79          1           0       -6.925117   -1.697093   -0.506716
     80          1           0       -6.486174    2.491742   -0.495579
     81          1           0        6.463109   -3.714838    1.076758
     82          1           0        6.421445   -4.000402   -0.790013
     83          1           0        8.058574   -4.346544    0.391022
     84          1           0        6.721785   -0.071762   -0.626729
     85          1           0       -4.252620    0.587139   -0.304930
     86          1           0        4.602580   -2.426374   -0.210172
     87          1           0       -4.815118    3.622349   -0.639766
     88          1           0        4.287433    0.376420   -0.895379
     89          1           0       -1.259891    4.200765   -1.627826
     90          1           0       -1.426588    4.586758   -0.246144
     91          1           0       -2.860118    4.783926   -1.084841
     92          1           0       -2.138530    0.550235   -0.288270
     93          1           0        2.368261    1.372136   -0.871901
     94          1           0        2.028292   -2.204382    1.095446
     95          1           0        0.895782   -2.100432   -0.516490
     96          1           0        2.795614   -2.947562   -0.660261
     97          1           0        0.281566    2.429541   -1.074112
     98          1           0       -0.034185   -0.527116   -0.127198
 ---------------------------------------------------------------------

 SCF Done:  E(RCAM-B3LYP) =  -1706.90548324     A.U. after   15 cycles

 Excitation energies and oscillator strengths:

 Excited State   1:      Singlet-A      1.9934 eV  621.96 nm  f=2.7824  <S**2>=0.000
     155 ->158         0.12631
     156 ->157         0.69977
     156 <-157        -0.10655
 This state for optimization and/or second-order correction.
 Total Energy, E(TD-HF/TD-DFT) =  -1706.83222589
 Copying the excited state density for this state as the 1-particle RhoCI density.

 The electronic state is 1-A.
 Alpha  occ. eigenvalues --  -19.21579 -19.20804 -10.31144 -10.31040 -10.29809
 Alpha  occ. eigenvalues --  -10.29114 -10.29105 -10.28301 -10.28290 -10.28200
 Alpha  occ. eigenvalues --  -10.28091 -10.27832 -10.27637 -10.27615 -10.27544
 Alpha  occ. eigenvalues --  -10.27501 -10.27482 -10.27384 -10.27235 -10.27084
 Alpha  occ. eigenvalues --  -10.27077 -10.26949 -10.26721 -10.26691 -10.26567
 Alpha  occ. eigenvalues --  -10.26502 -10.26461 -10.26459 -10.26287 -10.26128
 Alpha  occ. eigenvalues --  -10.26076 -10.26073 -10.26015 -10.25989 -10.25957
 Alpha  occ. eigenvalues --  -10.25954 -10.25610 -10.25334 -10.25081 -10.25052
 Alpha  occ. eigenvalues --  -10.24797 -10.23766  -1.07130  -1.05586  -0.93582
 Alpha  occ. eigenvalues --   -0.93105  -0.92223  -0.91365  -0.90268  -0.89641
 Alpha  occ. eigenvalues --   -0.86913  -0.86753  -0.86342  -0.85560  -0.84545
 Alpha  occ. eigenvalues --   -0.82766  -0.82248  -0.80303  -0.79606  -0.78190
 Alpha  occ. eigenvalues --   -0.76325  -0.76241  -0.75404  -0.75139  -0.74927
 Alpha  occ. eigenvalues --   -0.74708  -0.74034  -0.73476  -0.72522  -0.70323
 Alpha  occ. eigenvalues --   -0.68225  -0.67520  -0.66106  -0.64013  -0.63638
 Alpha  occ. eigenvalues --   -0.62527  -0.62235  -0.61143  -0.60712  -0.60428
 Alpha  occ. eigenvalues --   -0.59759  -0.58012  -0.57096  -0.56833  -0.55892
 Alpha  occ. eigenvalues --   -0.55106  -0.54863  -0.54385  -0.53811  -0.53699
 Alpha  occ. eigenvalues --   -0.53146  -0.52640  -0.51988  -0.51516  -0.50784
 Alpha  occ. eigenvalues --   -0.50416  -0.50232  -0.49442  -0.49391  -0.49205
 Alpha  occ. eigenvalues --   -0.48790  -0.48024  -0.47658  -0.47561  -0.47359
 Alpha  occ. eigenvalues --   -0.47310  -0.46863  -0.46746  -0.46602  -0.45883
 Alpha  occ. eigenvalues --   -0.45637  -0.45568  -0.45103  -0.44852  -0.44648
 Alpha  occ. eigenvalues --   -0.43888  -0.43823  -0.43547  -0.43528  -0.43446
 Alpha  occ. eigenvalues --   -0.43218  -0.42691  -0.42447  -0.42238  -0.42054
 Alpha  occ. eigenvalues --   -0.41867  -0.41381  -0.40953  -0.40625  -0.40484
 Alpha  occ. eigenvalues --   -0.39630  -0.39535  -0.39329  -0.39025  -0.38979
 Alpha  occ. eigenvalues --   -0.38864  -0.38604  -0.38251  -0.37942  -0.37421
 Alpha  occ. eigenvalues --   -0.37214  -0.37112  -0.36617  -0.35946  -0.35389
 Alpha  occ. eigenvalues --   -0.34816  -0.34380  -0.33024  -0.31808  -0.31681
 Alpha  occ. eigenvalues --   -0.30798  -0.29696  -0.28783  -0.26390  -0.24035
 Alpha  occ. eigenvalues --   -0.19068
 Alpha virt. eigenvalues --   -0.06488  -0.01047   0.01693   0.05135   0.06311
 Alpha virt. eigenvalues --    0.08165   0.10110   0.10708   0.11121   0.11362
 Alpha virt. eigenvalues --    0.11659   0.12188   0.12448   0.12808   0.12919

 Mulliken charges:
               1
     1  O   -0.570780
     2  O   -0.586638
     3  C    0.019598
     4  C   -0.156057
     5  C   -0.157272
     6  C    0.168972
     7  C    0.101140
     8  C    0.016275
     9  C   -0.287353
    10  C   -0.285742
    11  C   -0.180761
    12  C   -0.160892
    13  C    0.199459
    14  C    0.047323
    15  C   -0.062654
    16  C   -0.217575
    17  C    0.064636
    18  C   -0.306147
    19  C   -0.299994
    20  C   -0.339167
    21  C   -0.078618
    22  C   -0.115793
    23  C   -0.357086
    24  C    0.073924
    25  C   -0.119713
    26  C   -0.361739
    27  C    0.107028
    28  C   -0.110128
    29  C   -0.363211
    30  C   -0.122203
    31  C   -0.047640
    32  C   -0.085778
    33  C   -0.144914
    34  C    0.102881
    35  C   -0.067506
    36  C    0.145660
    37  C   -0.389976
    38  C   -0.115098
    39  C   -0.128741
    40  C   -0.366464
    41  C   -0.074335
    42  C   -0.114425
    43  H    0.077043
    44  H    0.103109
    45  H    0.095588
    46  H    0.081972
    47  H    0.087023
    48  H    0.089629
    49  H    0.085837
    50  H    0.069787
    51  H    0.106762
    52  H    0.103045
    53  H    0.092037
    54  H    0.062544
    55  H    0.069580
    56  H    0.078154
    57  H    0.088951
    58  H    0.095561
    59  H    0.105211
    60  H    0.104410
    61  H    0.116003
    62  H    0.080672
    63  H    0.048192
    64  H    0.116216
    65  H    0.111209
    66  H    0.137892
    67  H    0.096373
    68  H    0.109075
    69  H    0.304675
    70  H    0.086921
    71  H    0.087859
    72  H    0.114947
    73  H    0.121528
    74  H    0.094881
    75  H    0.311172
    76  H    0.101512
    77  H    0.109216
    78  H    0.103497
    79  H    0.139083
    80  H    0.068314
    81  H    0.095436
    82  H    0.117593
    83  H    0.100903
    84  H    0.085752
    85  H    0.067565
    86  H    0.076150
    87  H    0.064080
    88  H    0.058714
    89  H    0.120081
    90  H    0.131350
    91  H    0.123645
    92  H    0.100949
    93  H    0.070172
    94  H    0.111653
    95  H    0.095310
    96  H    0.102125
    97  H    0.084682
    98  H    0.065862
 Sum of Mulliken charges =  -0.00000

 Dipole moment (field-independent basis, Debye):
    X=              0.4482    Y=              0.4038    Z=             -0.1229  Tot=              0.6157
 Quadrupole moment (field-independent basis, Debye-Ang):
   XX=           -300.6941   YY=           -246.6693   ZZ=           -265.1682
   XY=             -6.7397   XZ=             37.6700   YZ=              0.6218

 Normal termination of Gaussian 16 at Mon Jul 15 23:10:33 2019.
