 Gaussian 16, Revision A.03,
 Gaussian 16:  ES64L-G16RevA.03 25-Dec-2016

 -------------------------------------
 # td=(NStates=1) CAM-B3LYP/6-31G(d,p)
 -------------------------------------

 --
 TD
 --
 Symbolic Z-matrix:
 Charge =  0 Multiplicity = 1

                         Standard orientation:
 ---------------------------------------------------------------------
 Center     Atomic      Atomic             Coordinates (Angstroms)
 Number     Number       Type             X           Y           Z
 ---------------------------------------------------------------------
      1          8           0      -14.135572   -2.107781    0.287596
      2          8           0       14.864872    0.746531   -0.005018
      3          6           0      -11.762794   -0.089901    1.307562
      4          6           0      -10.939391    0.320786    0.017642
      5          6           0      -11.982132   -1.587658    1.356647
      6          6           0      -12.639241   -2.229746    0.109427
      7          6           0      -11.555772   -0.364668   -1.137251
      8          6           0       11.196918    1.080527    1.067404
      9          6           0      -10.989321    0.455290    2.502144
     10          6           0      -13.074454    0.569178    1.319356
     11          6           0       12.626458    1.602178    0.754140
     12          6           0      -12.274842   -1.522178   -1.131106
     13          6           0       13.544971    0.292458    0.298070
     14          6           0       10.721899   -0.006641   -0.037227
     15          6           0       -9.561474   -0.048506    0.013391
     16          6           0       12.945526   -0.175216   -1.023217
     17          6           0       11.507381   -0.566402   -0.985890
     18          6           0       10.234631    2.301344    0.990685
     19          6           0       10.914834    0.424214    2.460832
     20          6           0      -11.331395    0.409957   -2.453871
     21          6           0       -8.543808    0.882282   -0.062274
     22          6           0        9.313326   -0.492866    0.105322
     23          6           0       11.129989   -1.604756   -1.995269
     24          6           0       -7.172117    0.516267   -0.190261
     25          6           0        8.809176   -1.801858   -0.001968
     26          6           0       -6.677318   -0.862776    0.127704
     27          6           0        7.483400   -2.085295   -0.026204
     28          6           0       -6.274136    1.572653   -0.416065
     29          6           0        7.193386   -3.623049    0.099873
     30          6           0        6.363454   -1.231885   -0.085492
     31          6           0       -4.835608    1.472324   -0.407256
     32          6           0        4.948629   -1.496130    0.016331
     33          6           0       -3.993761    2.629734   -0.655585
     34          6           0       -2.581717    2.734888   -0.642375
     35          6           0        3.917394   -0.618065   -0.154034
     36          6           0        2.592650   -0.800215   -0.052103
     37          6           0       -1.924739    4.018326   -0.748313
     38          6           0       -1.891256    1.560180   -0.622936
     39          6           0        1.688005    0.322273   -0.283552
     40          6           0        2.072769   -2.136569    0.181352
     41          6           0       -0.347580    1.486708   -0.521287
     42          6           0        0.376248    0.343209   -0.326065
     43          1           0      -11.051852    1.510498   -0.016582
     44          1           0      -12.512937   -1.897508    2.504595
     45          1           0      -10.973904   -1.944945    1.200114
     46          1           0      -12.519675   -3.341476    0.161985
     47          1           0      -10.032111   -0.000923    2.577446
     48          1           0      -10.717368    1.432484    2.201938
     49          1           0      -11.641539    0.385120    3.426889
     50          1           0      -13.734007    0.405245    0.574129
     51          1           0      -13.525845    0.365008    2.097258
     52          1           0      -12.956959    1.692520    1.377234
     53          1           0       12.502963    2.389889   -0.027105
     54          1           0       13.196086    2.093848    1.453918
     55          1           0      -12.582087   -1.960783   -2.148669
     56          1           0       13.523949   -0.362577    1.097657
     57          1           0       -9.319717   -1.072888   -0.081047
     58          1           0       13.659895   -1.032913   -1.332938
     59          1           0       13.067098    0.819523   -1.665791
     60          1           0        9.108347    2.110268    1.307776
     61          1           0       10.411069    2.478855   -0.248661
     62          1           0       10.739055    3.236664    1.672847
     63          1           0       11.571481   -0.506818    2.612154
     64          1           0        9.788290    0.142180    2.548300
     65          1           0       11.023149    1.165935    3.278021
     66          1           0      -10.285604    0.592507   -2.522848
     67          1           0      -11.625724    1.656237   -2.435421
     68          1           0      -11.836004    0.023959   -3.377086
     69          1           0      -14.556117   -1.670281   -0.739160
     70          1           0        8.526901    0.252365    0.459089
     71          1           0       -8.629501    2.015708   -0.040413
     72          1           0       11.295343   -2.661368   -1.730004
     73          1           0       10.128688   -1.828130   -2.293232
     74          1           0       11.703419   -1.247652   -2.889145
     75          1           0       15.150284    1.222848    0.726950
     76          1           0        9.541409   -2.597658   -0.130938
     77          1           0       -5.674988   -1.019310    0.055748
     78          1           0       -7.011870   -1.240151    0.988235
     79          1           0       -7.259480   -1.642692   -0.446082
     80          1           0       -6.661858    2.627930   -0.670078
     81          1           0        7.099800   -3.679660    1.128748
     82          1           0        6.126333   -3.923825   -0.573048
     83          1           0        8.002088   -4.194362   -0.336880
     84          1           0        6.627385   -0.212707   -0.175450
     85          1           0       -4.319558    0.452459   -0.315698
     86          1           0        4.750781   -2.677882   -0.044753
     87          1           0       -4.580637    3.588895   -0.904039
     88          1           0        4.366061    0.362457   -0.234626
     89          1           0       -1.227648    4.013600   -1.679778
     90          1           0       -1.222124    4.124222    0.253241
     91          1           0       -2.675450    4.782742   -0.818280
     92          1           0       -2.333764    0.650893   -0.532172
     93          1           0        2.280973    1.164765   -0.373338
     94          1           0        2.444441   -2.614822    1.232121
     95          1           0        0.993838   -2.539649    0.241624
     96          1           0        2.656712   -2.731001   -0.501172
     97          1           0        0.302481    2.336291   -0.609508
     98          1           0       -0.323517   -0.506307   -0.154359
 ---------------------------------------------------------------------

 SCF Done:  E(RCAM-B3LYP) =  -1706.90134938     A.U. after   15 cycles

 Excitation energies and oscillator strengths:

 Excited State   1:      Singlet-A      1.9224 eV  644.95 nm  f=3.1397  <S**2>=0.000
     155 ->158         0.15319
     156 ->157         0.69165
 This state for optimization and/or second-order correction.
 Total Energy, E(TD-HF/TD-DFT) =  -1706.83070257
 Copying the excited state density for this state as the 1-particle RhoCI density.

 The electronic state is 1-A.
 Alpha  occ. eigenvalues --  -19.21328 -19.21065 -10.31039 -10.30971 -10.29122
 Alpha  occ. eigenvalues --  -10.28982 -10.28108 -10.27920 -10.27659 -10.27621
 Alpha  occ. eigenvalues --  -10.27551 -10.27529 -10.27367 -10.27266 -10.27218
 Alpha  occ. eigenvalues --  -10.27113 -10.27056 -10.27040 -10.26997 -10.26964
 Alpha  occ. eigenvalues --  -10.26910 -10.26840 -10.26756 -10.26753 -10.26510
 Alpha  occ. eigenvalues --  -10.26406 -10.26317 -10.26269 -10.26181 -10.26176
 Alpha  occ. eigenvalues --  -10.26152 -10.25943 -10.25841 -10.25734 -10.25664
 Alpha  occ. eigenvalues --  -10.25559 -10.25548 -10.25348 -10.25296 -10.24530
 Alpha  occ. eigenvalues --  -10.23325 -10.20105  -1.10751  -1.03181  -0.94804
 Alpha  occ. eigenvalues --   -0.93141  -0.92720  -0.91762  -0.90803  -0.90513
 Alpha  occ. eigenvalues --   -0.87968  -0.87532  -0.87147  -0.85263  -0.84215
 Alpha  occ. eigenvalues --   -0.82732  -0.82218  -0.80680  -0.79651  -0.78313
 Alpha  occ. eigenvalues --   -0.78131  -0.76725  -0.76552  -0.75992  -0.75558
 Alpha  occ. eigenvalues --   -0.75488  -0.74914  -0.73652  -0.73061  -0.70477
 Alpha  occ. eigenvalues --   -0.69679  -0.67641  -0.66798  -0.65628  -0.63618
 Alpha  occ. eigenvalues --   -0.63043  -0.62364  -0.62116  -0.60329  -0.60110
 Alpha  occ. eigenvalues --   -0.59684  -0.59312  -0.58082  -0.57465  -0.55927
 Alpha  occ. eigenvalues --   -0.55756  -0.55170  -0.54681  -0.54478  -0.54160
 Alpha  occ. eigenvalues --   -0.53826  -0.53258  -0.52621  -0.51627  -0.50957
 Alpha  occ. eigenvalues --   -0.50752  -0.50431  -0.49974  -0.49844  -0.49320
 Alpha  occ. eigenvalues --   -0.49034  -0.48472  -0.48136  -0.47920  -0.47527
 Alpha  occ. eigenvalues --   -0.47488  -0.47188  -0.46964  -0.46782  -0.46129
 Alpha  occ. eigenvalues --   -0.45831  -0.45721  -0.45431  -0.45127  -0.44962
 Alpha  occ. eigenvalues --   -0.44629  -0.44606  -0.44203  -0.43865  -0.43695
 Alpha  occ. eigenvalues --   -0.42855  -0.42592  -0.42383  -0.42286  -0.42215
 Alpha  occ. eigenvalues --   -0.42059  -0.41817  -0.41103  -0.41010  -0.40814
 Alpha  occ. eigenvalues --   -0.40677  -0.40280  -0.39942  -0.39759  -0.39472
 Alpha  occ. eigenvalues --   -0.39215  -0.38913  -0.38454  -0.38165  -0.37903
 Alpha  occ. eigenvalues --   -0.37488  -0.36970  -0.36874  -0.36584  -0.36052
 Alpha  occ. eigenvalues --   -0.35872  -0.35051  -0.33748  -0.32072  -0.30952
 Alpha  occ. eigenvalues --   -0.30798  -0.29770  -0.29507  -0.26663  -0.23019
 Alpha  occ. eigenvalues --   -0.18732
 Alpha virt. eigenvalues --   -0.06530  -0.02053   0.01697   0.03969   0.06358
 Alpha virt. eigenvalues --    0.07866   0.09999   0.10794   0.11548   0.11852
 Alpha virt. eigenvalues --    0.12243   0.12496   0.12915   0.13189   0.13502

 Mulliken charges:
               1
     1  O   -0.569309
     2  O   -0.546431
     3  C    0.003825
     4  C   -0.166799
     5  C   -0.162276
     6  C    0.173146
     7  C    0.140563
     8  C    0.002160
     9  C   -0.291870
    10  C   -0.242046
    11  C   -0.210530
    12  C   -0.189724
    13  C    0.153451
    14  C    0.037052
    15  C   -0.076241
    16  C   -0.222722
    17  C    0.078379
    18  C   -0.269914
    19  C   -0.293840
    20  C   -0.347603
    21  C   -0.098983
    22  C   -0.121169
    23  C   -0.369419
    24  C    0.121693
    25  C   -0.102619
    26  C   -0.370479
    27  C    0.074122
    28  C   -0.147772
    29  C   -0.350240
    30  C   -0.121373
    31  C   -0.074088
    32  C   -0.084494
    33  C   -0.150569
    34  C    0.139850
    35  C   -0.128919
    36  C    0.150807
    37  C   -0.364211
    38  C   -0.111967
    39  C   -0.126710
    40  C   -0.392651
    41  C   -0.113707
    42  C   -0.040853
    43  H    0.091434
    44  H    0.077890
    45  H    0.085449
    46  H    0.096685
    47  H    0.102020
    48  H    0.100429
    49  H    0.092238
    50  H    0.100866
    51  H    0.103631
    52  H    0.058756
    53  H    0.099637
    54  H    0.083262
    55  H    0.091960
    56  H    0.097290
    57  H    0.094083
    58  H    0.107146
    59  H    0.116786
    60  H    0.099317
    61  H    0.079685
    62  H    0.078109
    63  H    0.093510
    64  H    0.102352
    65  H    0.098349
    66  H    0.134319
    67  H    0.072578
    68  H    0.108973
    69  H    0.284832
    70  H    0.081194
    71  H    0.088862
    72  H    0.118734
    73  H    0.129215
    74  H    0.110311
    75  H    0.299430
    76  H    0.085387
    77  H    0.115321
    78  H    0.137221
    79  H    0.103692
    80  H    0.082599
    81  H    0.147150
    82  H    0.078225
    83  H    0.108240
    84  H    0.063820
    85  H    0.086899
    86  H    0.059285
    87  H    0.072125
    88  H    0.080917
    89  H    0.124179
    90  H    0.110311
    91  H    0.112092
    92  H    0.071678
    93  H    0.074491
    94  H    0.096283
    95  H    0.114917
    96  H    0.126541
    97  H    0.075616
    98  H    0.078158
 Sum of Mulliken charges =  -0.00000

 Dipole moment (field-independent basis, Debye):
    X=              2.8607    Y=              0.6202    Z=             -0.0592  Tot=              2.9277
 Quadrupole moment (field-independent basis, Debye-Ang):
   XX=           -284.9199   YY=           -248.3655   ZZ=           -263.2301
   XY=             -7.7291   XZ=             40.7111   YZ=              3.1797

 Normal termination of Gaussian 16 at Sun Jul 14 23:44:15 2019.
