 Gaussian 16, Revision A.03,
 Gaussian 16:  ES64L-G16RevA.03 25-Dec-2016

 -------------------------------------
 # td=(NStates=1) CAM-B3LYP/6-31G(d,p)
 -------------------------------------

 --
 TD
 --
 Symbolic Z-matrix:
 Charge =  0 Multiplicity = 1

                         Standard orientation:
 ---------------------------------------------------------------------
 Center     Atomic      Atomic             Coordinates (Angstroms)
 Number     Number       Type             X           Y           Z
 ---------------------------------------------------------------------
      1          8           0      -14.269389   -1.727270    0.649899
      2          8           0       14.815883    0.944432    0.440544
      3          6           0      -11.787380    0.055612    1.396679
      4          6           0      -10.900002    0.366586    0.054170
      5          6           0      -12.094803   -1.491636    1.528569
      6          6           0      -12.859790   -1.999406    0.394780
      7          6           0      -11.672257   -0.286583   -1.057316
      8          6           0       11.130193    0.936995    1.209875
      9          6           0      -10.912789    0.546579    2.599629
     10          6           0      -13.028546    0.835848    1.419335
     11          6           0       12.481280    1.511243    1.027983
     12          6           0      -12.349495   -1.449116   -0.938609
     13          6           0       13.533534    0.547381    0.570426
     14          6           0       10.663421    0.041886    0.061102
     15          6           0       -9.479557   -0.107351    0.140051
     16          6           0       13.103528   -0.076746   -0.772154
     17          6           0       11.581692   -0.339050   -0.787272
     18          6           0       10.089703    2.150655    1.253044
     19          6           0       10.943636    0.239009    2.496762
     20          6           0      -11.348304    0.155115   -2.482112
     21          6           0       -8.558829    0.771311   -0.138371
     22          6           0        9.278326   -0.469098    0.140116
     23          6           0       11.139719   -1.195127   -2.050771
     24          6           0       -7.082292    0.488728   -0.036754
     25          6           0        8.872613   -1.698068    0.009817
     26          6           0       -6.715226   -0.972274    0.359385
     27          6           0        7.451664   -2.187083   -0.081654
     28          6           0       -6.195008    1.449320   -0.459367
     29          6           0        7.282870   -3.599434   -0.136858
     30          6           0        6.344061   -1.229906   -0.220078
     31          6           0       -4.658043    1.434172   -0.328011
     32          6           0        5.006085   -1.650556   -0.362548
     33          6           0       -3.925209    2.570167   -0.722526
     34          6           0       -2.499727    2.577673   -0.883020
     35          6           0        3.978125   -0.688959   -0.506006
     36          6           0        2.652921   -0.903965   -0.465478
     37          6           0       -1.933430    3.888681   -1.292396
     38          6           0       -1.737954    1.441500   -0.801068
     39          6           0        1.802961    0.088431   -0.707074
     40          6           0        2.173055   -2.283353   -0.253772
     41          6           0       -0.403829    1.369600   -0.842425
     42          6           0        0.342612    0.191483   -0.613140
     43          1           0      -10.940403    1.506734   -0.201331
     44          1           0      -12.454787   -1.615976    2.408549
     45          1           0      -11.191251   -1.854333    1.450222
     46          1           0      -12.721966   -3.040644    0.239367
     47          1           0      -10.021654   -0.182496    2.465869
     48          1           0      -10.726054    1.499707    2.338280
     49          1           0      -11.553339    0.567724    3.486487
     50          1           0      -13.715652    0.384386    0.574452
     51          1           0      -13.374313    0.900787    2.399364
     52          1           0      -12.675608    1.832503    1.181216
     53          1           0       12.534870    2.417953    0.307009
     54          1           0       12.930225    1.922326    2.046600
     55          1           0      -12.747505   -1.970975   -1.745961
     56          1           0       13.395273   -0.369509    1.331862
     57          1           0       -9.168741   -1.150050    0.296427
     58          1           0       13.576508   -1.062633   -0.896604
     59          1           0       13.336623    0.623390   -1.560870
     60          1           0        8.963873    2.093351    1.648504
     61          1           0        9.897643    2.650256    0.278772
     62          1           0       10.591865    3.138091    1.915141
     63          1           0       11.569697   -0.763102    2.454699
     64          1           0        9.858219    0.156187    2.737679
     65          1           0       11.027559    0.963381    3.462413
     66          1           0      -10.373966    0.246545   -2.574287
     67          1           0      -11.859990    1.162368   -2.602509
     68          1           0      -11.792503   -0.721368   -3.266557
     69          1           0      -14.620403   -2.137447   -0.151560
     70          1           0        8.576032    0.287814    0.604449
     71          1           0       -8.821846    1.849345   -0.385800
     72          1           0       11.303529   -2.204781   -2.041060
     73          1           0       10.072993   -1.178472   -2.139795
     74          1           0       11.449009   -0.494043   -2.875036
     75          1           0       14.894787    1.268247    1.593031
     76          1           0        9.540140   -2.513497   -0.089324
     77          1           0       -5.615787   -1.194841    0.177035
     78          1           0       -7.100907   -1.172016    1.410159
     79          1           0       -7.301193   -1.574422   -0.369282
     80          1           0       -6.743155    2.487438   -0.937364
     81          1           0        6.953155   -4.140458    0.940191
     82          1           0        6.513750   -3.727243   -0.946850
     83          1           0        8.227561   -4.075039   -0.414207
     84          1           0        6.465183   -0.269717   -0.472665
     85          1           0       -4.191804    0.517191    0.052161
     86          1           0        4.679825   -2.677899   -0.256197
     87          1           0       -4.454950    3.571969   -0.864875
     88          1           0        4.490287    0.418572   -0.599701
     89          1           0       -1.887594    3.817141   -2.463756
     90          1           0       -0.804231    4.129644   -0.733057
     91          1           0       -2.744372    4.713375   -0.929554
     92          1           0       -2.254298    0.426389   -0.310888
     93          1           0        2.375702    1.032577   -0.850691
     94          1           0        2.061725   -2.610276    0.933433
     95          1           0        1.103600   -2.387933   -1.091138
     96          1           0        2.814708   -3.023870   -0.670566
     97          1           0        0.308451    2.273615   -0.827875
     98          1           0       -0.283640   -0.664840   -0.525204
 ---------------------------------------------------------------------

 SCF Done:  E(RCAM-B3LYP) =  -1706.85706176     A.U. after   15 cycles

 Excitation energies and oscillator strengths:

 Excited State   1:      Singlet-A      2.1273 eV  582.83 nm  f=2.8694  <S**2>=0.000
     155 ->158         0.15039
     156 ->157         0.69205
 This state for optimization and/or second-order correction.
 Total Energy, E(TD-HF/TD-DFT) =  -1706.77888555
 Copying the excited state density for this state as the 1-particle RhoCI density.

 The electronic state is 1-A.
 Alpha  occ. eigenvalues --  -19.24318 -19.21278 -10.30821 -10.29539 -10.29242
 Alpha  occ. eigenvalues --  -10.28893 -10.28607 -10.28383 -10.28281 -10.27839
 Alpha  occ. eigenvalues --  -10.27792 -10.27748 -10.27657 -10.27585 -10.27571
 Alpha  occ. eigenvalues --  -10.27556 -10.26910 -10.26862 -10.26820 -10.26766
 Alpha  occ. eigenvalues --  -10.26712 -10.26658 -10.26650 -10.26479 -10.26286
 Alpha  occ. eigenvalues --  -10.26253 -10.26202 -10.26161 -10.26154 -10.25957
 Alpha  occ. eigenvalues --  -10.25855 -10.25826 -10.25686 -10.25630 -10.25491
 Alpha  occ. eigenvalues --  -10.25390 -10.25300 -10.24424 -10.23762 -10.23363
 Alpha  occ. eigenvalues --  -10.22016 -10.21616  -1.10797  -1.09113  -0.94284
 Alpha  occ. eigenvalues --   -0.93743  -0.92943  -0.92034  -0.90362  -0.90153
 Alpha  occ. eigenvalues --   -0.87263  -0.86948  -0.86547  -0.85489  -0.85013
 Alpha  occ. eigenvalues --   -0.83391  -0.82637  -0.80771  -0.80156  -0.78099
 Alpha  occ. eigenvalues --   -0.76229  -0.76011  -0.75996  -0.75780  -0.75187
 Alpha  occ. eigenvalues --   -0.75068  -0.74780  -0.74169  -0.72943  -0.69488
 Alpha  occ. eigenvalues --   -0.68385  -0.67769  -0.65957  -0.64258  -0.63344
 Alpha  occ. eigenvalues --   -0.62881  -0.62116  -0.61477  -0.60804  -0.59921
 Alpha  occ. eigenvalues --   -0.59685  -0.58254  -0.58151  -0.57157  -0.56187
 Alpha  occ. eigenvalues --   -0.55773  -0.54930  -0.54545  -0.53816  -0.53258
 Alpha  occ. eigenvalues --   -0.52961  -0.52612  -0.52118  -0.51747  -0.51099
 Alpha  occ. eigenvalues --   -0.50670  -0.50347  -0.49882  -0.49733  -0.49574
 Alpha  occ. eigenvalues --   -0.49021  -0.48685  -0.48604  -0.48510  -0.48068
 Alpha  occ. eigenvalues --   -0.47898  -0.47617  -0.47495  -0.46595  -0.46482
 Alpha  occ. eigenvalues --   -0.46170  -0.45615  -0.44995  -0.44840  -0.44707
 Alpha  occ. eigenvalues --   -0.44662  -0.44575  -0.43972  -0.43640  -0.43351
 Alpha  occ. eigenvalues --   -0.43172  -0.42890  -0.42548  -0.41973  -0.41838
 Alpha  occ. eigenvalues --   -0.41588  -0.41363  -0.41340  -0.40887  -0.40795
 Alpha  occ. eigenvalues --   -0.40589  -0.40245  -0.40045  -0.39281  -0.39228
 Alpha  occ. eigenvalues --   -0.39105  -0.38795  -0.38585  -0.38368  -0.38030
 Alpha  occ. eigenvalues --   -0.37456  -0.36698  -0.36351  -0.35989  -0.35768
 Alpha  occ. eigenvalues --   -0.35260  -0.33826  -0.33213  -0.32111  -0.31725
 Alpha  occ. eigenvalues --   -0.31426  -0.29409  -0.29290  -0.27810  -0.24196
 Alpha  occ. eigenvalues --   -0.19439
 Alpha virt. eigenvalues --   -0.06142  -0.01235   0.02886   0.05334   0.05681
 Alpha virt. eigenvalues --    0.06780   0.08704   0.10278   0.10894   0.11256
 Alpha virt. eigenvalues --    0.11969   0.12211   0.12406   0.12732   0.12975

 Mulliken charges:
               1
     1  O   -0.529550
     2  O   -0.522031
     3  C   -0.041605
     4  C   -0.148451
     5  C   -0.122072
     6  C    0.109655
     7  C    0.121725
     8  C    0.006617
     9  C   -0.284827
    10  C   -0.276726
    11  C   -0.171977
    12  C   -0.156255
    13  C    0.180860
    14  C    0.115388
    15  C   -0.076630
    16  C   -0.208655
    17  C   -0.032046
    18  C   -0.319937
    19  C   -0.281006
    20  C   -0.337082
    21  C   -0.073651
    22  C   -0.109729
    23  C   -0.365400
    24  C    0.094336
    25  C   -0.081458
    26  C   -0.372646
    27  C    0.078026
    28  C   -0.143730
    29  C   -0.370573
    30  C   -0.104157
    31  C   -0.083318
    32  C   -0.088390
    33  C   -0.116262
    34  C    0.105911
    35  C   -0.137214
    36  C    0.181806
    37  C   -0.349666
    38  C   -0.108240
    39  C   -0.143757
    40  C   -0.358250
    41  C   -0.059786
    42  C   -0.106133
    43  H    0.081429
    44  H    0.099855
    45  H    0.087316
    46  H    0.081758
    47  H    0.086867
    48  H    0.108211
    49  H    0.093324
    50  H    0.121967
    51  H    0.096891
    52  H    0.073909
    53  H    0.096187
    54  H    0.057555
    55  H    0.070014
    56  H    0.033375
    57  H    0.100427
    58  H    0.120123
    59  H    0.118686
    60  H    0.094982
    61  H    0.111391
    62  H    0.057852
    63  H    0.097841
    64  H    0.112302
    65  H    0.078321
    66  H    0.131085
    67  H    0.107116
    68  H    0.078597
    69  H    0.299200
    70  H    0.083688
    71  H    0.083282
    72  H    0.117639
    73  H    0.118795
    74  H    0.103857
    75  H    0.294409
    76  H    0.077256
    77  H    0.109118
    78  H    0.125499
    79  H    0.128170
    80  H    0.066260
    81  H    0.099501
    82  H    0.123598
    83  H    0.114494
    84  H    0.081284
    85  H    0.098709
    86  H    0.082187
    87  H    0.091350
    88  H    0.067121
    89  H    0.133108
    90  H    0.096014
    91  H    0.096688
    92  H    0.066202
    93  H    0.072210
    94  H    0.107686
    95  H    0.066844
    96  H    0.126548
    97  H    0.079520
    98  H    0.079265
 Sum of Mulliken charges =  -0.00000

 Dipole moment (field-independent basis, Debye):
    X=             -0.1534    Y=             -0.9712    Z=             -0.2501  Tot=              1.0146
 Quadrupole moment (field-independent basis, Debye-Ang):
   XX=           -303.8733   YY=           -244.3818   ZZ=           -264.2481
   XY=              6.0951   XZ=             35.2382   YZ=              1.7324

 Normal termination of Gaussian 16 at Mon Jul 15 18:16:56 2019.
