 Gaussian 16, Revision A.03,
 Gaussian 16:  ES64L-G16RevA.03 25-Dec-2016

 -------------------------------------
 # td=(NStates=1) CAM-B3LYP/6-31G(d,p)
 -------------------------------------

 --
 TD
 --
 Symbolic Z-matrix:
 Charge =  0 Multiplicity = 1

                         Standard orientation:
 ---------------------------------------------------------------------
 Center     Atomic      Atomic             Coordinates (Angstroms)
 Number     Number       Type             X           Y           Z
 ---------------------------------------------------------------------
      1          8           0      -14.269637   -1.722783    0.676059
      2          8           0       14.847049    0.999344    0.136749
      3          6           0      -11.819601    0.237988    1.185175
      4          6           0      -11.056000    0.292600   -0.122547
      5          6           0      -12.202573   -1.288513    1.537496
      6          6           0      -12.909181   -1.963148    0.405054
      7          6           0      -11.756228   -0.391427   -1.235094
      8          6           0       11.166291    1.097488    1.070217
      9          6           0      -11.018648    0.721054    2.345865
     10          6           0      -13.228290    1.015981    1.151875
     11          6           0       12.548313    1.545719    0.790742
     12          6           0      -12.563357   -1.436700   -1.005424
     13          6           0       13.465047    0.505537    0.285028
     14          6           0       10.643307    0.122500   -0.016711
     15          6           0       -9.549578   -0.128827   -0.096063
     16          6           0       13.074509   -0.203334   -0.927825
     17          6           0       11.466235   -0.374344   -0.934389
     18          6           0       10.189130    2.282950    1.023648
     19          6           0       11.153383    0.522168    2.378613
     20          6           0      -11.185822   -0.002517   -2.601995
     21          6           0       -8.520328    0.700778   -0.324751
     22          6           0        9.251540   -0.313334    0.061276
     23          6           0       11.117363   -1.350923   -2.011336
     24          6           0       -7.135195    0.342032   -0.125222
     25          6           0        8.839115   -1.698692   -0.237405
     26          6           0       -6.753610   -1.009987    0.361061
     27          6           0        7.514423   -2.167297   -0.043384
     28          6           0       -6.220564    1.317871   -0.552334
     29          6           0        7.373815   -3.652426    0.017585
     30          6           0        6.415580   -1.310172   -0.042084
     31          6           0       -4.810974    1.328954   -0.471381
     32          6           0        5.109613   -1.716589    0.060430
     33          6           0       -3.975717    2.459736   -0.717625
     34          6           0       -2.586235    2.489099   -0.820191
     35          6           0        4.116758   -0.723224   -0.161436
     36          6           0        2.738207   -0.973363   -0.025935
     37          6           0       -1.909475    3.811614   -0.970343
     38          6           0       -1.709484    1.435157   -0.597277
     39          6           0        1.801406    0.160971   -0.249741
     40          6           0        2.143232   -2.313880    0.249784
     41          6           0       -0.308130    1.461733   -0.460437
     42          6           0        0.507735    0.270238   -0.330543
     43          1           0      -10.947219    1.418126   -0.262278
     44          1           0      -12.754416   -1.405419    2.473445
     45          1           0      -11.374456   -1.752802    1.671344
     46          1           0      -12.667563   -3.118394    0.318227
     47          1           0      -10.272358    0.231878    2.616642
     48          1           0      -10.828245    1.681029    2.155949
     49          1           0      -11.476409    0.497623    3.273279
     50          1           0      -13.813188    0.697573    0.275832
     51          1           0      -13.635776    0.727154    2.077218
     52          1           0      -12.976319    2.063273    1.120870
     53          1           0       12.543259    2.336954    0.083841
     54          1           0       13.107454    1.634098    1.705553
     55          1           0      -13.081770   -1.976919   -1.786119
     56          1           0       13.686318   -0.389329    0.884217
     57          1           0       -9.569288   -1.140711    0.357220
     58          1           0       13.661586   -1.000767   -0.848384
     59          1           0       13.558763    0.378242   -1.796830
     60          1           0        9.178910    1.836171    1.237881
     61          1           0       10.279011    2.665139    0.164695
     62          1           0       10.553228    2.996496    1.710987
     63          1           0       11.810513   -0.273712    2.539277
     64          1           0       10.083815    0.113201    2.699722
     65          1           0       11.480391    1.246176    3.004900
     66          1           0      -10.185165    0.168068   -2.460507
     67          1           0      -11.584621    1.048492   -2.899454
     68          1           0      -11.546618   -0.940192   -3.366765
     69          1           0      -14.799531   -1.895379   -0.206466
     70          1           0        8.617279    0.318410    0.381135
     71          1           0       -8.752949    1.853483   -0.333179
     72          1           0       11.408280   -2.293365   -1.867339
     73          1           0       10.017424   -1.298133   -2.097761
     74          1           0       11.517218   -0.984490   -2.914201
     75          1           0       14.913147    1.563744    0.933490
     76          1           0        9.403880   -2.554796   -0.372935
     77          1           0       -5.640687   -0.920029    0.607722
     78          1           0       -7.317923   -1.377865    1.251080
     79          1           0       -6.934887   -1.853880   -0.299751
     80          1           0       -6.781546    2.307255   -0.786741
     81          1           0        6.370758   -3.891258    0.600775
     82          1           0        7.019950   -4.196432   -1.004712
     83          1           0        8.474875   -4.090195    0.674041
     84          1           0        6.571989   -0.464432   -0.177659
     85          1           0       -4.204541    0.411327   -0.046009
     86          1           0        4.942582   -2.771276    0.254030
     87          1           0       -4.436478    3.333644   -1.136504
     88          1           0        4.281579    0.315860   -0.384406
     89          1           0       -1.115968    3.854478   -1.757212
     90          1           0       -1.649578    4.202852    0.009457
     91          1           0       -2.842942    4.398977   -1.397052
     92          1           0       -2.184072    0.510149   -0.404905
     93          1           0        2.451473    1.062907   -0.453672
     94          1           0        2.683334   -2.553128    1.128127
     95          1           0        1.048502   -2.346934    0.392430
     96          1           0        2.486822   -3.034513   -0.568476
     97          1           0        0.234049    2.416633   -0.386130
     98          1           0       -0.127265   -0.598382   -0.144660
 ---------------------------------------------------------------------

 SCF Done:  E(RCAM-B3LYP) =  -1706.85803031     A.U. after   17 cycles

 Excitation energies and oscillator strengths:

 Excited State   1:      Singlet-A      1.5950 eV  777.31 nm  f=3.0835  <S**2>=0.000
     155 ->158         0.12193
     156 ->157         0.71208
     156 <-157        -0.16198
 This state for optimization and/or second-order correction.
 Total Energy, E(TD-HF/TD-DFT) =  -1706.79941368
 Copying the excited state density for this state as the 1-particle RhoCI density.

 The electronic state is 1-A.
 Alpha  occ. eigenvalues --  -19.21436 -19.20554 -10.30806 -10.30117 -10.28873
 Alpha  occ. eigenvalues --  -10.28297 -10.28100 -10.27957 -10.27384 -10.27163
 Alpha  occ. eigenvalues --  -10.27146 -10.27121 -10.27088 -10.26999 -10.26985
 Alpha  occ. eigenvalues --  -10.26801 -10.26797 -10.26729 -10.26590 -10.26523
 Alpha  occ. eigenvalues --  -10.26506 -10.26432 -10.26371 -10.26353 -10.26292
 Alpha  occ. eigenvalues --  -10.26288 -10.26253 -10.26175 -10.25950 -10.25896
 Alpha  occ. eigenvalues --  -10.25756 -10.25441 -10.25083 -10.24718 -10.24111
 Alpha  occ. eigenvalues --  -10.23701 -10.23561 -10.23348 -10.22742 -10.22735
 Alpha  occ. eigenvalues --  -10.22722 -10.20602  -1.08618  -1.08000  -0.95396
 Alpha  occ. eigenvalues --   -0.93411  -0.92875  -0.91896  -0.90920  -0.90314
 Alpha  occ. eigenvalues --   -0.88497  -0.87308  -0.86821  -0.86074  -0.84803
 Alpha  occ. eigenvalues --   -0.83617  -0.82411  -0.80537  -0.80319  -0.79110
 Alpha  occ. eigenvalues --   -0.78935  -0.77914  -0.77184  -0.77119  -0.76515
 Alpha  occ. eigenvalues --   -0.76416  -0.75813  -0.75055  -0.72497  -0.70948
 Alpha  occ. eigenvalues --   -0.69954  -0.67884  -0.66664  -0.65202  -0.64192
 Alpha  occ. eigenvalues --   -0.63442  -0.63038  -0.62483  -0.61577  -0.59919
 Alpha  occ. eigenvalues --   -0.59376  -0.58352  -0.58033  -0.57760  -0.57031
 Alpha  occ. eigenvalues --   -0.56454  -0.55899  -0.55128  -0.54702  -0.54527
 Alpha  occ. eigenvalues --   -0.54092  -0.53782  -0.53300  -0.52714  -0.51811
 Alpha  occ. eigenvalues --   -0.50814  -0.50659  -0.50323  -0.50137  -0.49834
 Alpha  occ. eigenvalues --   -0.49616  -0.49595  -0.49222  -0.48909  -0.48149
 Alpha  occ. eigenvalues --   -0.47806  -0.47562  -0.47453  -0.46969  -0.46830
 Alpha  occ. eigenvalues --   -0.46698  -0.46477  -0.46111  -0.45879  -0.45378
 Alpha  occ. eigenvalues --   -0.45299  -0.44546  -0.44232  -0.43944  -0.43863
 Alpha  occ. eigenvalues --   -0.43351  -0.43260  -0.42955  -0.42838  -0.42380
 Alpha  occ. eigenvalues --   -0.42016  -0.41928  -0.41721  -0.41387  -0.40995
 Alpha  occ. eigenvalues --   -0.40913  -0.40707  -0.40247  -0.40101  -0.39910
 Alpha  occ. eigenvalues --   -0.39306  -0.38955  -0.38781  -0.38337  -0.38184
 Alpha  occ. eigenvalues --   -0.37745  -0.36680  -0.36562  -0.36198  -0.35820
 Alpha  occ. eigenvalues --   -0.34900  -0.34468  -0.33667  -0.32065  -0.31586
 Alpha  occ. eigenvalues --   -0.31035  -0.30166  -0.29237  -0.26937  -0.23783
 Alpha  occ. eigenvalues --   -0.17759
 Alpha virt. eigenvalues --   -0.08187  -0.02011   0.01647   0.05329   0.06899
 Alpha virt. eigenvalues --    0.08790   0.09912   0.10770   0.11403   0.12038
 Alpha virt. eigenvalues --    0.12566   0.12908   0.13286   0.13566   0.13940

 Mulliken charges:
               1
     1  O   -0.539256
     2  O   -0.579245
     3  C   -0.018917
     4  C   -0.145978
     5  C   -0.177538
     6  C    0.155219
     7  C    0.136181
     8  C   -0.036235
     9  C   -0.270998
    10  C   -0.273949
    11  C   -0.194301
    12  C   -0.167170
    13  C    0.138906
    14  C    0.116584
    15  C   -0.089985
    16  C   -0.205497
    17  C   -0.016850
    18  C   -0.282777
    19  C   -0.283874
    20  C   -0.336209
    21  C   -0.106474
    22  C   -0.115986
    23  C   -0.356413
    24  C    0.121893
    25  C   -0.090707
    26  C   -0.370950
    27  C    0.064897
    28  C   -0.118411
    29  C   -0.361740
    30  C    0.019113
    31  C   -0.095057
    32  C   -0.102948
    33  C   -0.112646
    34  C    0.082464
    35  C   -0.122702
    36  C    0.099735
    37  C   -0.363361
    38  C   -0.098607
    39  C   -0.123860
    40  C   -0.367655
    41  C   -0.097050
    42  C   -0.080666
    43  H    0.074213
    44  H    0.108882
    45  H    0.085412
    46  H    0.054193
    47  H    0.099629
    48  H    0.096116
    49  H    0.087034
    50  H    0.109375
    51  H    0.112020
    52  H    0.080666
    53  H    0.110730
    54  H    0.084307
    55  H    0.074130
    56  H    0.083490
    57  H    0.091294
    58  H    0.118735
    59  H    0.098929
    60  H    0.096068
    61  H    0.112627
    62  H    0.098140
    63  H    0.107893
    64  H    0.081027
    65  H    0.105995
    66  H    0.135580
    67  H    0.100944
    68  H    0.081544
    69  H    0.300022
    70  H    0.075949
    71  H    0.090360
    72  H    0.124052
    73  H    0.110396
    74  H    0.109478
    75  H    0.297815
    76  H    0.089767
    77  H    0.104119
    78  H    0.116000
    79  H    0.131797
    80  H    0.080191
    81  H    0.102972
    82  H    0.121601
    83  H    0.080325
    84  H    0.014418
    85  H    0.085409
    86  H    0.084670
    87  H    0.081077
    88  H    0.093240
    89  H    0.121947
    90  H    0.135568
    91  H    0.078335
    92  H    0.064220
    93  H    0.061553
    94  H    0.130279
    95  H    0.116588
    96  H    0.116890
    97  H    0.086673
    98  H    0.074338
 Sum of Mulliken charges =  -0.00000

 Dipole moment (field-independent basis, Debye):
    X=              0.6287    Y=             -1.0282    Z=              0.8744  Tot=              1.4890
 Quadrupole moment (field-independent basis, Debye-Ang):
   XX=           -304.3324   YY=           -244.8826   ZZ=           -263.7743
   XY=              6.0076   XZ=             31.4613   YZ=              2.4777

 Normal termination of Gaussian 16 at Sun Jul 14 07:38:43 2019.
