 Gaussian 16, Revision A.03,
 Gaussian 16:  ES64L-G16RevA.03 25-Dec-2016

 -------------------------------------
 # td=(NStates=1) CAM-B3LYP/6-31G(d,p)
 -------------------------------------

 --
 TD
 --
 Symbolic Z-matrix:
 Charge =  0 Multiplicity = 1

                         Standard orientation:
 ---------------------------------------------------------------------
 Center     Atomic      Atomic             Coordinates (Angstroms)
 Number     Number       Type             X           Y           Z
 ---------------------------------------------------------------------
      1          8           0      -14.214254   -2.016591    0.249137
      2          8           0       14.793901    0.925528   -0.035863
      3          6           0      -11.815501    0.071766    1.306208
      4          6           0      -11.015650    0.283092   -0.027461
      5          6           0      -12.136852   -1.397410    1.391656
      6          6           0      -12.744352   -2.116808    0.200061
      7          6           0      -11.551336   -0.412501   -1.195218
      8          6           0       11.099669    1.056669    0.962003
      9          6           0      -11.090449    0.701984    2.494764
     10          6           0      -13.170469    0.903061    1.088330
     11          6           0       12.474362    1.657209    0.704897
     12          6           0      -12.174383   -1.576457   -1.105758
     13          6           0       13.532111    0.466711    0.333962
     14          6           0       10.715756    0.001488   -0.073629
     15          6           0       -9.558946   -0.063790    0.129220
     16          6           0       12.959136   -0.177048   -0.951453
     17          6           0       11.518236   -0.495645   -1.056959
     18          6           0       10.105262    2.204628    1.003666
     19          6           0       11.089686    0.461686    2.389293
     20          6           0      -11.152141    0.050081   -2.570677
     21          6           0       -8.531656    0.733700   -0.112823
     22          6           0        9.259980   -0.411362    0.101770
     23          6           0       11.134685   -1.547366   -2.064947
     24          6           0       -7.135269    0.471593   -0.074820
     25          6           0        8.867053   -1.740440   -0.078288
     26          6           0       -6.681500   -0.788928    0.505825
     27          6           0        7.420194   -2.046024   -0.012115
     28          6           0       -6.244232    1.530129   -0.468419
     29          6           0        7.231719   -3.661273    0.161165
     30          6           0        6.446546   -1.231710   -0.039983
     31          6           0       -4.799347    1.417579   -0.428904
     32          6           0        5.014901   -1.521256    0.107419
     33          6           0       -3.959718    2.546906   -0.653178
     34          6           0       -2.621284    2.560025   -0.743408
     35          6           0        4.097835   -0.637998   -0.010343
     36          6           0        2.669386   -0.893437   -0.017011
     37          6           0       -1.913507    3.833428   -1.121279
     38          6           0       -1.767579    1.432485   -0.572491
     39          6           0        1.795941    0.172448   -0.342854
     40          6           0        2.146822   -2.225662    0.276982
     41          6           0       -0.370125    1.440222   -0.527149
     42          6           0        0.369721    0.190158   -0.309232
     43          1           0      -11.040041    1.505072   -0.048717
     44          1           0      -12.710364   -1.547945    2.398294
     45          1           0      -11.117764   -1.792346    1.516238
     46          1           0      -12.299593   -3.252888    0.079379
     47          1           0      -10.094446    0.253308    2.794631
     48          1           0      -10.957694    1.826265    2.336510
     49          1           0      -11.966348    0.941056    3.349499
     50          1           0      -13.530513    0.448305    0.199863
     51          1           0      -13.854813    1.045148    1.949700
     52          1           0      -12.991612    1.880123    0.937399
     53          1           0       12.423006    2.243532   -0.253760
     54          1           0       12.803885    2.100168    1.520638
     55          1           0      -12.711613   -2.091450   -2.026576
     56          1           0       13.240591   -0.225267    1.182363
     57          1           0       -9.271701   -1.091705    0.610588
     58          1           0       13.488061   -1.012182   -0.921488
     59          1           0       13.305491    0.670974   -1.666296
     60          1           0        9.191505    2.107599    1.508119
     61          1           0        9.918023    2.656583   -0.046999
     62          1           0       10.566144    2.986360    1.485613
     63          1           0       11.817088   -0.640390    2.592240
     64          1           0       10.085256    0.127865    2.439505
     65          1           0       11.085605    1.248438    3.188770
     66          1           0      -10.351117    0.134604   -2.794458
     67          1           0      -11.625891    1.116800   -2.680073
     68          1           0      -11.569007   -0.704804   -3.253568
     69          1           0      -14.494071   -2.063580   -0.801425
     70          1           0        8.590434    0.403373    0.336691
     71          1           0       -8.726332    1.658320   -0.548955
     72          1           0       11.205886   -2.532126   -1.629002
     73          1           0       10.057087   -1.638354   -2.299776
     74          1           0       11.647442   -1.412480   -3.046695
     75          1           0       15.400970    1.137560    0.760139
     76          1           0        9.701280   -2.365148   -0.110032
     77          1           0       -5.691144   -0.707218    0.579962
     78          1           0       -7.300162   -1.129067    1.381509
     79          1           0       -6.935270   -1.739496   -0.130200
     80          1           0       -6.725443    2.530761   -0.834379
     81          1           0        7.149022   -3.889041    1.273400
     82          1           0        6.404928   -3.902228   -0.497265
     83          1           0        8.056384   -4.436717   -0.066204
     84          1           0        6.572313   -0.067813   -0.047862
     85          1           0       -4.299426    0.448449   -0.308988
     86          1           0        4.825936   -2.476678    0.420278
     87          1           0       -4.450710    3.739249   -0.522176
     88          1           0        4.371732    0.274210    0.007139
     89          1           0       -1.269702    3.738562   -1.974886
     90          1           0       -1.064611    3.962143   -0.241112
     91          1           0       -2.635461    4.755811   -0.894722
     92          1           0       -2.267680    0.473376   -0.471266
     93          1           0        2.396175    1.119346   -0.450183
     94          1           0        2.262867   -2.252371    1.282862
     95          1           0        0.997033   -2.274734    0.089979
     96          1           0        2.732469   -2.883879   -0.318985
     97          1           0       -0.015584    2.492513   -0.715411
     98          1           0       -0.053896   -0.619049    0.081025
 ---------------------------------------------------------------------

 SCF Done:  E(RCAM-B3LYP) =  -1706.82490581     A.U. after   15 cycles

 Excitation energies and oscillator strengths:

 Excited State   1:      Singlet-A      1.9683 eV  629.91 nm  f=2.5114  <S**2>=0.000
     155 ->158         0.10456
     156 ->157         0.70750
     156 <-157        -0.13091
 This state for optimization and/or second-order correction.
 Total Energy, E(TD-HF/TD-DFT) =  -1706.75257320
 Copying the excited state density for this state as the 1-particle RhoCI density.

 The electronic state is 1-A.
 Alpha  occ. eigenvalues --  -19.23082 -19.22605 -10.32156 -10.30499 -10.28018
 Alpha  occ. eigenvalues --  -10.27951 -10.27569 -10.27565 -10.27555 -10.27430
 Alpha  occ. eigenvalues --  -10.27372 -10.27342 -10.27202 -10.27088 -10.27067
 Alpha  occ. eigenvalues --  -10.27026 -10.26946 -10.26803 -10.26757 -10.26555
 Alpha  occ. eigenvalues --  -10.26551 -10.26473 -10.26442 -10.26291 -10.26235
 Alpha  occ. eigenvalues --  -10.26018 -10.25880 -10.25746 -10.25632 -10.25605
 Alpha  occ. eigenvalues --  -10.25365 -10.25361 -10.25044 -10.24961 -10.24824
 Alpha  occ. eigenvalues --  -10.24606 -10.24108 -10.24000 -10.23679 -10.23676
 Alpha  occ. eigenvalues --  -10.23092 -10.22253  -1.09873  -1.06434  -0.94400
 Alpha  occ. eigenvalues --   -0.93383  -0.92768  -0.91909  -0.90762  -0.89993
 Alpha  occ. eigenvalues --   -0.87530  -0.87493  -0.86842  -0.85271  -0.84255
 Alpha  occ. eigenvalues --   -0.82906  -0.82107  -0.81015  -0.79597  -0.78617
 Alpha  occ. eigenvalues --   -0.77691  -0.76531  -0.76341  -0.76034  -0.75898
 Alpha  occ. eigenvalues --   -0.75563  -0.75062  -0.74727  -0.72967  -0.70922
 Alpha  occ. eigenvalues --   -0.68629  -0.67589  -0.66293  -0.64354  -0.64175
 Alpha  occ. eigenvalues --   -0.63542  -0.63220  -0.62772  -0.61533  -0.59519
 Alpha  occ. eigenvalues --   -0.59381  -0.59169  -0.57718  -0.56891  -0.56026
 Alpha  occ. eigenvalues --   -0.55814  -0.55120  -0.55090  -0.54366  -0.53751
 Alpha  occ. eigenvalues --   -0.52915  -0.52706  -0.52558  -0.52004  -0.51715
 Alpha  occ. eigenvalues --   -0.51132  -0.50807  -0.50230  -0.49985  -0.49716
 Alpha  occ. eigenvalues --   -0.49081  -0.48795  -0.48497  -0.48336  -0.48188
 Alpha  occ. eigenvalues --   -0.47659  -0.47498  -0.46833  -0.46531  -0.46263
 Alpha  occ. eigenvalues --   -0.46091  -0.46025  -0.45560  -0.45219  -0.45017
 Alpha  occ. eigenvalues --   -0.44593  -0.44373  -0.44200  -0.43811  -0.43709
 Alpha  occ. eigenvalues --   -0.43200  -0.42983  -0.42939  -0.42809  -0.42357
 Alpha  occ. eigenvalues --   -0.42082  -0.41732  -0.41364  -0.40937  -0.40734
 Alpha  occ. eigenvalues --   -0.40185  -0.39652  -0.39597  -0.39436  -0.39383
 Alpha  occ. eigenvalues --   -0.39066  -0.38893  -0.38436  -0.38269  -0.37815
 Alpha  occ. eigenvalues --   -0.37248  -0.37049  -0.35946  -0.35578  -0.35193
 Alpha  occ. eigenvalues --   -0.34600  -0.34212  -0.33839  -0.32021  -0.31496
 Alpha  occ. eigenvalues --   -0.30418  -0.30036  -0.29244  -0.26688  -0.24391
 Alpha  occ. eigenvalues --   -0.18822
 Alpha virt. eigenvalues --   -0.06537  -0.00302   0.02433   0.05185   0.06771
 Alpha virt. eigenvalues --    0.08977   0.10269   0.11005   0.11390   0.11592
 Alpha virt. eigenvalues --    0.11792   0.12327   0.12899   0.13123   0.13584

 Mulliken charges:
               1
     1  O   -0.543878
     2  O   -0.555265
     3  C    0.017009
     4  C   -0.158647
     5  C   -0.160887
     6  C    0.162793
     7  C    0.144759
     8  C   -0.030046
     9  C   -0.300959
    10  C   -0.298213
    11  C   -0.160343
    12  C   -0.176372
    13  C    0.138297
    14  C    0.044369
    15  C   -0.089167
    16  C   -0.209961
    17  C    0.059843
    18  C   -0.319572
    19  C   -0.288771
    20  C   -0.295196
    21  C   -0.069797
    22  C   -0.094745
    23  C   -0.383048
    24  C    0.120313
    25  C   -0.116224
    26  C   -0.367718
    27  C    0.070538
    28  C   -0.131141
    29  C   -0.374283
    30  C   -0.120176
    31  C   -0.103569
    32  C   -0.075935
    33  C   -0.128566
    34  C    0.126050
    35  C   -0.061931
    36  C    0.065208
    37  C   -0.383987
    38  C   -0.094537
    39  C   -0.117258
    40  C   -0.360916
    41  C   -0.087427
    42  C   -0.099316
    43  H    0.082135
    44  H    0.100182
    45  H    0.089029
    46  H    0.067705
    47  H    0.105301
    48  H    0.100213
    49  H    0.076742
    50  H    0.112105
    51  H    0.092677
    52  H    0.094217
    53  H    0.083408
    54  H    0.077282
    55  H    0.065953
    56  H    0.074354
    57  H    0.070104
    58  H    0.114306
    59  H    0.110482
    60  H    0.106055
    61  H    0.098614
    62  H    0.110746
    63  H    0.065168
    64  H    0.114292
    65  H    0.099663
    66  H    0.116531
    67  H    0.088098
    68  H    0.096269
    69  H    0.303648
    70  H    0.093333
    71  H    0.064745
    72  H    0.122194
    73  H    0.127225
    74  H    0.110034
    75  H    0.317133
    76  H    0.093404
    77  H    0.110236
    78  H    0.121536
    79  H    0.105085
    80  H    0.091569
    81  H    0.119101
    82  H    0.121474
    83  H    0.103272
    84  H    0.073769
    85  H    0.101314
    86  H    0.082931
    87  H    0.060892
    88  H    0.059211
    89  H    0.147063
    90  H    0.094308
    91  H    0.100724
    92  H    0.066661
    93  H    0.071317
    94  H    0.142951
    95  H    0.096273
    96  H    0.125855
    97  H    0.082288
    98  H    0.087494
 Sum of Mulliken charges =  -0.00000

 Dipole moment (field-independent basis, Debye):
    X=              2.5950    Y=             -0.1447    Z=              0.7013  Tot=              2.6920
 Quadrupole moment (field-independent basis, Debye-Ang):
   XX=           -276.8316   YY=           -247.4933   ZZ=           -262.5054
   XY=             -9.5660   XZ=             45.7070   YZ=              4.5305

 Normal termination of Gaussian 16 at Sun Jul 14 19:20:50 2019.
