 Gaussian 16, Revision A.03,
 Gaussian 16:  ES64L-G16RevA.03 25-Dec-2016

 -------------------------------------
 # td=(NStates=1) CAM-B3LYP/6-31G(d,p)
 -------------------------------------

 --
 TD
 --
 Symbolic Z-matrix:
 Charge =  0 Multiplicity = 1

                         Standard orientation:
 ---------------------------------------------------------------------
 Center     Atomic      Atomic             Coordinates (Angstroms)
 Number     Number       Type             X           Y           Z
 ---------------------------------------------------------------------
      1          8           0      -14.202748   -1.808115    0.582426
      2          8           0       14.807165    0.997314    0.418746
      3          6           0      -11.744242    0.021034    1.390242
      4          6           0      -10.974738    0.260009    0.118165
      5          6           0      -11.959471   -1.469410    1.548083
      6          6           0      -12.709786   -2.093016    0.315858
      7          6           0      -11.774856   -0.235252   -1.067000
      8          6           0       11.083856    0.953609    1.128932
      9          6           0      -10.911478    0.438731    2.532370
     10          6           0      -13.120150    0.822163    1.341305
     11          6           0       12.438953    1.572937    0.868945
     12          6           0      -12.354412   -1.411520   -0.994953
     13          6           0       13.481437    0.503611    0.443962
     14          6           0       10.682680   -0.089648    0.067297
     15          6           0       -9.546100   -0.095207    0.107121
     16          6           0       13.035521   -0.180875   -0.771375
     17          6           0       11.587448   -0.530301   -0.828467
     18          6           0       10.121076    2.196835    1.063688
     19          6           0       10.992964    0.432809    2.580154
     20          6           0      -11.318590    0.256309   -2.459277
     21          6           0       -8.528935    0.719679   -0.103486
     22          6           0        9.321577   -0.411026    0.078292
     23          6           0       11.299393   -1.339560   -1.961460
     24          6           0       -7.118168    0.448308   -0.177477
     25          6           0        8.809081   -1.755424   -0.035417
     26          6           0       -6.740470   -1.005006   -0.178945
     27          6           0        7.430090   -2.172157   -0.174311
     28          6           0       -6.284354    1.497442   -0.373774
     29          6           0        7.186058   -3.645946    0.171904
     30          6           0        6.398830   -1.313492   -0.500992
     31          6           0       -4.807950    1.445224   -0.515179
     32          6           0        4.937182   -1.651048   -0.348333
     33          6           0       -3.937714    2.511762   -0.631485
     34          6           0       -2.587731    2.597618   -0.700235
     35          6           0        4.048377   -0.571443   -0.532637
     36          6           0        2.642662   -0.825492   -0.290367
     37          6           0       -1.947779    3.952151   -1.085708
     38          6           0       -1.755240    1.440793   -0.543694
     39          6           0        1.761571    0.233471   -0.562176
     40          6           0        2.148546   -2.131510    0.015114
     41          6           0       -0.355772    1.433810   -0.798481
     42          6           0        0.368956    0.247361   -0.439408
     43          1           0      -11.185775    1.357075   -0.207948
     44          1           0      -12.498826   -1.628803    2.665764
     45          1           0      -10.941374   -1.876673    1.848128
     46          1           0      -12.598304   -3.229653    0.190844
     47          1           0      -10.085380   -0.373849    2.780281
     48          1           0      -10.570848    1.675914    2.376886
     49          1           0      -11.521101    0.723369    3.517057
     50          1           0      -13.753888    0.554638    0.452040
     51          1           0      -13.743201    0.524103    2.304892
     52          1           0      -12.962763    1.896753    1.273405
     53          1           0       12.512684    2.419551    0.096301
     54          1           0       12.852119    2.155411    1.771638
     55          1           0      -12.778543   -1.744704   -2.108799
     56          1           0       13.597379   -0.156082    1.424508
     57          1           0       -9.365208   -1.054702    0.192686
     58          1           0       13.678471   -1.122330   -0.865549
     59          1           0       13.341688    0.488704   -1.759073
     60          1           0        9.115865    1.942843    1.315145
     61          1           0       10.207480    2.611738   -0.008649
     62          1           0       10.593161    2.959941    1.613429
     63          1           0       11.585905   -0.389444    2.713373
     64          1           0        9.929613    0.009881    2.707628
     65          1           0       11.203144    1.298308    3.251047
     66          1           0      -10.189977    0.193776   -2.664138
     67          1           0      -11.655554    1.314006   -2.394802
     68          1           0      -11.796591   -0.115863   -3.293214
     69          1           0      -14.766826   -1.991629   -0.288786
     70          1           0        8.593234    0.380265    0.309270
     71          1           0       -8.825452    1.742319   -0.138156
     72          1           0       11.650523   -2.390030   -1.837485
     73          1           0       10.026350   -1.339055   -1.968208
     74          1           0       11.775784   -1.078148   -2.971550
     75          1           0       14.772650    1.706143    1.122179
     76          1           0        9.626669   -2.662712   -0.078467
     77          1           0       -5.651193   -1.231390   -0.602290
     78          1           0       -6.828560   -1.367818    0.712999
     79          1           0       -7.458708   -1.668511   -0.697730
     80          1           0       -6.716434    2.386016   -0.315516
     81          1           0        6.814024   -3.603274    1.242784
     82          1           0        6.636687   -4.259521   -0.416426
     83          1           0        8.002741   -4.280043    0.310151
     84          1           0        6.678220   -0.304661   -0.565734
     85          1           0       -4.257362    0.566429   -0.155624
     86          1           0        4.887421   -2.661216   -0.213078
     87          1           0       -4.323246    3.376422   -0.663462
     88          1           0        4.354784    0.453743   -0.887358
     89          1           0       -1.368759    3.875495   -2.040933
     90          1           0       -1.025069    4.040546   -0.317257
     91          1           0       -2.635960    4.775340   -1.002891
     92          1           0       -2.104445    0.305932   -0.384920
     93          1           0        2.272945    1.084295   -0.714117
     94          1           0        2.753334   -2.619875    0.865548
     95          1           0        1.215377   -2.155883    0.422224
     96          1           0        2.193799   -2.889208   -0.908987
     97          1           0        0.175784    2.208740   -1.006059
     98          1           0       -0.063738   -0.696218   -0.193159
 ---------------------------------------------------------------------

 SCF Done:  E(RCAM-B3LYP) =  -1706.92550250     A.U. after   15 cycles

 Excitation energies and oscillator strengths:

 Excited State   1:      Singlet-A      2.0343 eV  609.48 nm  f=2.9530  <S**2>=0.000
     155 ->158         0.14765
     156 ->157         0.69450
 This state for optimization and/or second-order correction.
 Total Energy, E(TD-HF/TD-DFT) =  -1706.85074513
 Copying the excited state density for this state as the 1-particle RhoCI density.

 The electronic state is 1-A.
 Alpha  occ. eigenvalues --  -19.21009 -19.20798 -10.32797 -10.30441 -10.28380
 Alpha  occ. eigenvalues --  -10.27901 -10.27675 -10.27442 -10.27385 -10.27347
 Alpha  occ. eigenvalues --  -10.27276 -10.27237 -10.27141 -10.27103 -10.27058
 Alpha  occ. eigenvalues --  -10.26948 -10.26860 -10.26840 -10.26727 -10.26434
 Alpha  occ. eigenvalues --  -10.26368 -10.26255 -10.26241 -10.26172 -10.26136
 Alpha  occ. eigenvalues --  -10.26108 -10.26009 -10.25975 -10.25782 -10.25765
 Alpha  occ. eigenvalues --  -10.25755 -10.25502 -10.25182 -10.25078 -10.24999
 Alpha  occ. eigenvalues --  -10.24941 -10.24800 -10.24670 -10.24664 -10.24333
 Alpha  occ. eigenvalues --  -10.24284 -10.24000  -1.09036  -1.04222  -0.94515
 Alpha  occ. eigenvalues --   -0.94406  -0.92389  -0.91705  -0.90645  -0.89953
 Alpha  occ. eigenvalues --   -0.88048  -0.87244  -0.86885  -0.85328  -0.84791
 Alpha  occ. eigenvalues --   -0.82906  -0.81660  -0.80150  -0.79961  -0.78844
 Alpha  occ. eigenvalues --   -0.77657  -0.77214  -0.76427  -0.76076  -0.75702
 Alpha  occ. eigenvalues --   -0.75175  -0.74585  -0.73287  -0.72744  -0.70954
 Alpha  occ. eigenvalues --   -0.69176  -0.67613  -0.66848  -0.64824  -0.64606
 Alpha  occ. eigenvalues --   -0.64269  -0.63616  -0.61846  -0.61721  -0.60886
 Alpha  occ. eigenvalues --   -0.59840  -0.58462  -0.57176  -0.57031  -0.56160
 Alpha  occ. eigenvalues --   -0.55744  -0.55039  -0.54426  -0.53914  -0.53549
 Alpha  occ. eigenvalues --   -0.53317  -0.52861  -0.51927  -0.51583  -0.51100
 Alpha  occ. eigenvalues --   -0.50517  -0.50034  -0.49846  -0.49596  -0.49085
 Alpha  occ. eigenvalues --   -0.48943  -0.48652  -0.48606  -0.48244  -0.48052
 Alpha  occ. eigenvalues --   -0.47834  -0.47478  -0.47252  -0.46608  -0.46380
 Alpha  occ. eigenvalues --   -0.46337  -0.46135  -0.45928  -0.45033  -0.44986
 Alpha  occ. eigenvalues --   -0.44928  -0.44423  -0.44312  -0.43695  -0.43419
 Alpha  occ. eigenvalues --   -0.42907  -0.42537  -0.42232  -0.41718  -0.41548
 Alpha  occ. eigenvalues --   -0.41323  -0.41204  -0.40890  -0.40770  -0.40697
 Alpha  occ. eigenvalues --   -0.40565  -0.40519  -0.40130  -0.39817  -0.39610
 Alpha  occ. eigenvalues --   -0.39257  -0.38959  -0.38346  -0.37846  -0.37608
 Alpha  occ. eigenvalues --   -0.37339  -0.37121  -0.36993  -0.35992  -0.35789
 Alpha  occ. eigenvalues --   -0.34993  -0.34619  -0.33597  -0.32008  -0.31378
 Alpha  occ. eigenvalues --   -0.30441  -0.29664  -0.29298  -0.26930  -0.23652
 Alpha  occ. eigenvalues --   -0.19208
 Alpha virt. eigenvalues --   -0.06366  -0.01441   0.02180   0.05058   0.06505
 Alpha virt. eigenvalues --    0.08532   0.10399   0.11014   0.11398   0.12285
 Alpha virt. eigenvalues --    0.12846   0.13125   0.13357   0.13377   0.13966

 Mulliken charges:
               1
     1  O   -0.565770
     2  O   -0.570056
     3  C    0.042589
     4  C   -0.112155
     5  C   -0.168468
     6  C    0.127553
     7  C    0.078482
     8  C   -0.033526
     9  C   -0.284856
    10  C   -0.291139
    11  C   -0.222228
    12  C   -0.112970
    13  C    0.190347
    14  C    0.108728
    15  C   -0.055156
    16  C   -0.217848
    17  C    0.104000
    18  C   -0.301429
    19  C   -0.281545
    20  C   -0.346538
    21  C   -0.088205
    22  C   -0.152304
    23  C   -0.377990
    24  C    0.136353
    25  C   -0.131257
    26  C   -0.381191
    27  C    0.085679
    28  C   -0.121408
    29  C   -0.388909
    30  C   -0.120465
    31  C   -0.088901
    32  C   -0.083981
    33  C   -0.069811
    34  C    0.072463
    35  C   -0.120711
    36  C    0.119771
    37  C   -0.367650
    38  C   -0.122415
    39  C   -0.106238
    40  C   -0.375711
    41  C   -0.058290
    42  C   -0.086611
    43  H    0.072990
    44  H    0.093149
    45  H    0.089921
    46  H    0.090784
    47  H    0.093016
    48  H    0.062390
    49  H    0.089260
    50  H    0.119406
    51  H    0.090655
    52  H    0.089089
    53  H    0.091505
    54  H    0.064041
    55  H    0.058071
    56  H    0.060138
    57  H    0.062277
    58  H    0.111793
    59  H    0.097660
    60  H    0.103421
    61  H    0.093723
    62  H    0.106357
    63  H    0.115253
    64  H    0.094166
    65  H    0.097264
    66  H    0.123330
    67  H    0.100556
    68  H    0.111874
    69  H    0.301348
    70  H    0.095194
    71  H    0.071377
    72  H    0.112459
    73  H    0.096717
    74  H    0.103737
    75  H    0.306292
    76  H    0.087075
    77  H    0.100357
    78  H    0.138385
    79  H    0.114267
    80  H    0.075094
    81  H    0.120594
    82  H    0.127216
    83  H    0.114956
    84  H    0.071996
    85  H    0.079604
    86  H    0.101416
    87  H    0.044718
    88  H    0.103819
    89  H    0.132039
    90  H    0.103863
    91  H    0.118897
    92  H    0.084389
    93  H    0.063478
    94  H    0.105161
    95  H    0.118068
    96  H    0.112295
    97  H    0.069549
    98  H    0.083317
 Sum of Mulliken charges =  -0.00000

 Dipole moment (field-independent basis, Debye):
    X=              0.0528    Y=             -0.4633    Z=             -0.2765  Tot=              0.5421
 Quadrupole moment (field-independent basis, Debye-Ang):
   XX=           -315.1874   YY=           -239.7590   ZZ=           -263.4073
   XY=              7.6533   XZ=             33.6227   YZ=              1.5485

 Normal termination of Gaussian 16 at Sun Jul 14 17:30:09 2019.
