 Gaussian 16, Revision A.03,
 Gaussian 16:  ES64L-G16RevA.03 25-Dec-2016

 -------------------------------------
 # td=(NStates=1) CAM-B3LYP/6-31G(d,p)
 -------------------------------------

 --
 TD
 --
 Symbolic Z-matrix:
 Charge =  0 Multiplicity = 1

                         Standard orientation:
 ---------------------------------------------------------------------
 Center     Atomic      Atomic             Coordinates (Angstroms)
 Number     Number       Type             X           Y           Z
 ---------------------------------------------------------------------
      1          8           0      -13.980185   -2.104932    0.542298
      2          8           0       14.772853    0.992361    0.329862
      3          6           0      -11.674801    0.089341    1.365035
      4          6           0      -10.932579    0.403332    0.154628
      5          6           0      -11.838139   -1.538114    1.512534
      6          6           0      -12.585271   -2.110524    0.317322
      7          6           0      -11.516015   -0.258416   -1.153082
      8          6           0       11.062162    1.002670    1.185380
      9          6           0      -11.010546    0.501143    2.573710
     10          6           0      -13.152315    0.688134    1.353717
     11          6           0       12.564306    1.456788    1.079151
     12          6           0      -12.265841   -1.391220   -1.082080
     13          6           0       13.457424    0.384502    0.480286
     14          6           0       10.697678   -0.038390   -0.003601
     15          6           0       -9.492007    0.047192    0.298706
     16          6           0       13.091021   -0.071807   -0.886237
     17          6           0       11.579742   -0.479529   -0.840174
     18          6           0       10.162334    2.358815    1.149381
     19          6           0       10.809484    0.291063    2.474424
     20          6           0      -11.440983    0.423885   -2.451749
     21          6           0       -8.459718    0.845857   -0.115454
     22          6           0        9.175120   -0.361020   -0.010875
     23          6           0       11.171221   -1.309167   -2.023648
     24          6           0       -7.135019    0.463260   -0.185266
     25          6           0        8.736130   -1.658958   -0.140800
     26          6           0       -6.689898   -0.925556   -0.100588
     27          6           0        7.343938   -2.122094   -0.137652
     28          6           0       -6.166494    1.469970   -0.352173
     29          6           0        7.228936   -3.598898   -0.006419
     30          6           0        6.327716   -1.324569   -0.178615
     31          6           0       -4.809795    1.499487   -0.420452
     32          6           0        4.904645   -1.683487   -0.232332
     33          6           0       -3.946827    2.507494   -0.751311
     34          6           0       -2.515136    2.613050   -0.842647
     35          6           0        4.005732   -0.657938   -0.247986
     36          6           0        2.609737   -0.906101   -0.295339
     37          6           0       -1.919898    3.891363   -0.976731
     38          6           0       -1.726797    1.447815   -0.637180
     39          6           0        1.742450    0.205836   -0.377548
     40          6           0        2.022695   -2.329340   -0.229408
     41          6           0       -0.379084    1.332129   -0.682518
     42          6           0        0.340174    0.292154   -0.541139
     43          1           0      -10.851471    1.480320   -0.066067
     44          1           0      -12.352195   -1.978095    2.382164
     45          1           0      -10.834862   -2.049226    1.517567
     46          1           0      -12.244156   -3.219282    0.115359
     47          1           0      -10.110692   -0.282386    2.756945
     48          1           0      -10.504068    1.483068    2.418188
     49          1           0      -11.789053    0.606417    3.334150
     50          1           0      -13.849850    0.548701    0.344159
     51          1           0      -13.980094    0.702420    2.254300
     52          1           0      -12.903812    1.799436    1.335004
     53          1           0       12.622319    2.277368    0.343243
     54          1           0       12.899524    1.840684    2.009117
     55          1           0      -12.803493   -1.884389   -1.841505
     56          1           0       13.675963   -0.588093    1.164954
     57          1           0       -9.266944   -0.950202    0.602172
     58          1           0       13.818395   -0.868550   -1.231965
     59          1           0       13.092553    0.858899   -1.565924
     60          1           0        9.088422    2.208810    1.460637
     61          1           0       10.300310    2.710139    0.101090
     62          1           0       10.607148    3.047640    1.641027
     63          1           0       11.333786   -0.705101    2.397550
     64          1           0        9.593516    0.045379    2.651821
     65          1           0       11.172890    0.752398    3.358805
     66          1           0      -10.411351    0.967942   -2.506169
     67          1           0      -11.912482    1.312521   -2.472568
     68          1           0      -11.583511   -0.186753   -3.270295
     69          1           0      -14.610818   -2.338422   -0.201366
     70          1           0        8.432934    0.495436    0.401838
     71          1           0       -8.628435    2.132964   -0.487379
     72          1           0       11.335662   -2.577909   -1.928886
     73          1           0       10.058697   -1.240553   -2.081416
     74          1           0       11.559932   -0.941004   -2.762761
     75          1           0       14.924722    1.377952    1.195095
     76          1           0        9.544395   -2.373190   -0.288862
     77          1           0       -5.651595   -1.167063   -0.518862
     78          1           0       -6.848000   -1.095790    1.168895
     79          1           0       -7.497655   -1.574174   -0.616417
     80          1           0       -6.626427    2.495849   -0.380213
     81          1           0        6.822086   -3.869023    1.029577
     82          1           0        6.431274   -4.048565   -0.563507
     83          1           0        8.181284   -4.114037    0.092504
     84          1           0        6.363616   -0.362933   -0.463359
     85          1           0       -4.345520    0.393017   -0.311102
     86          1           0        4.588143   -2.511111   -0.090267
     87          1           0       -4.541980    3.393658   -1.047144
     88          1           0        4.436262    0.356145   -0.230949
     89          1           0       -1.439213    3.856481   -1.947603
     90          1           0       -1.161706    4.151490   -0.225575
     91          1           0       -2.587823    4.709033   -1.110952
     92          1           0       -2.407360    0.393910   -0.474126
     93          1           0        2.435470    1.026429   -0.499023
     94          1           0        2.325796   -2.770927    0.765789
     95          1           0        0.868014   -2.103996   -0.482558
     96          1           0        2.550877   -2.999103   -0.881095
     97          1           0        0.074327    2.373089   -1.009959
     98          1           0        0.012021   -0.798079   -0.508968
 ---------------------------------------------------------------------

 SCF Done:  E(RCAM-B3LYP) =  -1706.87511536     A.U. after   15 cycles

 Excitation energies and oscillator strengths:

 Excited State   1:      Singlet-A      2.1987 eV  563.89 nm  f=2.9149  <S**2>=0.000
     155 ->158         0.14171
     156 ->157         0.69327
 This state for optimization and/or second-order correction.
 Total Energy, E(TD-HF/TD-DFT) =  -1706.79431331
 Copying the excited state density for this state as the 1-particle RhoCI density.

 The electronic state is 1-A.
 Alpha  occ. eigenvalues --  -19.20575 -19.20233 -10.31157 -10.31099 -10.28360
 Alpha  occ. eigenvalues --  -10.28104 -10.28091 -10.27765 -10.27707 -10.27665
 Alpha  occ. eigenvalues --  -10.27269 -10.27192 -10.27112 -10.26982 -10.26933
 Alpha  occ. eigenvalues --  -10.26883 -10.26798 -10.26683 -10.26557 -10.26332
 Alpha  occ. eigenvalues --  -10.26312 -10.26273 -10.26269 -10.26249 -10.26204
 Alpha  occ. eigenvalues --  -10.26178 -10.26020 -10.26006 -10.25889 -10.25867
 Alpha  occ. eigenvalues --  -10.25651 -10.25424 -10.25376 -10.25302 -10.25005
 Alpha  occ. eigenvalues --  -10.24763 -10.24661 -10.24354 -10.24256 -10.24092
 Alpha  occ. eigenvalues --  -10.24091 -10.23952  -1.08570  -1.07825  -0.94251
 Alpha  occ. eigenvalues --   -0.93034  -0.92787  -0.92229  -0.91556  -0.90423
 Alpha  occ. eigenvalues --   -0.88319  -0.87000  -0.86940  -0.85802  -0.84637
 Alpha  occ. eigenvalues --   -0.83201  -0.82720  -0.80714  -0.80096  -0.78724
 Alpha  occ. eigenvalues --   -0.76838  -0.76715  -0.76550  -0.76324  -0.76233
 Alpha  occ. eigenvalues --   -0.75369  -0.74938  -0.74063  -0.73570  -0.70611
 Alpha  occ. eigenvalues --   -0.68632  -0.66926  -0.66512  -0.64531  -0.64294
 Alpha  occ. eigenvalues --   -0.63582  -0.62958  -0.62551  -0.61053  -0.59659
 Alpha  occ. eigenvalues --   -0.59074  -0.58157  -0.57585  -0.57114  -0.56207
 Alpha  occ. eigenvalues --   -0.55655  -0.55265  -0.54768  -0.54021  -0.53775
 Alpha  occ. eigenvalues --   -0.53440  -0.52941  -0.52232  -0.51817  -0.51187
 Alpha  occ. eigenvalues --   -0.50795  -0.50456  -0.50001  -0.49727  -0.49583
 Alpha  occ. eigenvalues --   -0.49226  -0.48885  -0.48634  -0.48325  -0.47828
 Alpha  occ. eigenvalues --   -0.47688  -0.47379  -0.47094  -0.46989  -0.46830
 Alpha  occ. eigenvalues --   -0.46407  -0.45987  -0.45213  -0.45082  -0.44298
 Alpha  occ. eigenvalues --   -0.44282  -0.44200  -0.44036  -0.43918  -0.43560
 Alpha  occ. eigenvalues --   -0.43470  -0.43229  -0.42703  -0.42350  -0.42143
 Alpha  occ. eigenvalues --   -0.41846  -0.41229  -0.40898  -0.40562  -0.40382
 Alpha  occ. eigenvalues --   -0.40111  -0.39897  -0.39834  -0.39524  -0.39484
 Alpha  occ. eigenvalues --   -0.39095  -0.38759  -0.38324  -0.38148  -0.37440
 Alpha  occ. eigenvalues --   -0.37405  -0.36368  -0.36267  -0.35896  -0.35587
 Alpha  occ. eigenvalues --   -0.34550  -0.34203  -0.33683  -0.32007  -0.31720
 Alpha  occ. eigenvalues --   -0.30439  -0.29865  -0.28462  -0.27166  -0.23966
 Alpha  occ. eigenvalues --   -0.19724
 Alpha virt. eigenvalues --   -0.05909  -0.01005   0.02659   0.06127   0.07432
 Alpha virt. eigenvalues --    0.09554   0.10120   0.10661   0.11529   0.11990
 Alpha virt. eigenvalues --    0.12202   0.12627   0.12738   0.13242   0.13751

 Mulliken charges:
               1
     1  O   -0.560608
     2  O   -0.562389
     3  C    0.041718
     4  C   -0.125285
     5  C   -0.193134
     6  C    0.169050
     7  C    0.130440
     8  C   -0.018850
     9  C   -0.285077
    10  C   -0.291698
    11  C   -0.211714
    12  C   -0.149980
    13  C    0.162059
    14  C    0.057524
    15  C   -0.109297
    16  C   -0.202119
    17  C    0.019038
    18  C   -0.306547
    19  C   -0.279410
    20  C   -0.362400
    21  C   -0.087354
    22  C   -0.123243
    23  C   -0.327381
    24  C    0.155641
    25  C   -0.116167
    26  C   -0.358778
    27  C    0.141192
    28  C   -0.137523
    29  C   -0.394370
    30  C   -0.131831
    31  C   -0.035923
    32  C   -0.027349
    33  C   -0.147344
    34  C    0.111011
    35  C   -0.114615
    36  C    0.078169
    37  C   -0.398139
    38  C   -0.098389
    39  C   -0.114898
    40  C   -0.358853
    41  C   -0.069433
    42  C   -0.076063
    43  H    0.095130
    44  H    0.118107
    45  H    0.086216
    46  H    0.050353
    47  H    0.082777
    48  H    0.095641
    49  H    0.112103
    50  H    0.094379
    51  H    0.092811
    52  H    0.072879
    53  H    0.109024
    54  H    0.093267
    55  H    0.071954
    56  H    0.065203
    57  H    0.095820
    58  H    0.120845
    59  H    0.116241
    60  H    0.096705
    61  H    0.099540
    62  H    0.113737
    63  H    0.098669
    64  H    0.076574
    65  H    0.100108
    66  H    0.086918
    67  H    0.131608
    68  H    0.121554
    69  H    0.310310
    70  H    0.086177
    71  H    0.057038
    72  H    0.065823
    73  H    0.117544
    74  H    0.109950
    75  H    0.296765
    76  H    0.098117
    77  H    0.121323
    78  H    0.092903
    79  H    0.115525
    80  H    0.060857
    81  H    0.111263
    82  H    0.124875
    83  H    0.118022
    84  H    0.073689
    85  H    0.051668
    86  H    0.029436
    87  H    0.073662
    88  H    0.086949
    89  H    0.131648
    90  H    0.136188
    91  H    0.118589
    92  H    0.058266
    93  H    0.065760
    94  H    0.123480
    95  H    0.096788
    96  H    0.127169
    97  H    0.080420
    98  H    0.071945
 Sum of Mulliken charges =  -0.00000

 Dipole moment (field-independent basis, Debye):
    X=             -0.6491    Y=              0.1610    Z=             -0.4385  Tot=              0.7997
 Quadrupole moment (field-independent basis, Debye-Ang):
   XX=           -279.1607   YY=           -242.9879   ZZ=           -262.2378
   XY=              3.2045   XZ=             39.6022   YZ=              1.7764

 Normal termination of Gaussian 16 at Fri Jul 12 20:47:52 2019.
