 Gaussian 16, Revision A.03,
 Gaussian 16:  ES64L-G16RevA.03 25-Dec-2016

 -------------------------------------
 # td=(NStates=1) CAM-B3LYP/6-31G(d,p)
 -------------------------------------

 --
 TD
 --
 Symbolic Z-matrix:
 Charge =  0 Multiplicity = 1

                         Standard orientation:
 ---------------------------------------------------------------------
 Center     Atomic      Atomic             Coordinates (Angstroms)
 Number     Number       Type             X           Y           Z
 ---------------------------------------------------------------------
      1          8           0      -14.125017   -1.981137    0.636797
      2          8           0       14.790666    1.000759    0.124547
      3          6           0      -11.758984    0.214601    1.219137
      4          6           0      -10.998231    0.393014   -0.096558
      5          6           0      -12.081308   -1.283731    1.524640
      6          6           0      -12.732578   -2.033929    0.356998
      7          6           0      -11.695278   -0.431712   -1.113800
      8          6           0       11.048977    1.095181    1.011494
      9          6           0      -11.002728    0.897647    2.452456
     10          6           0      -13.105151    0.935640    1.071994
     11          6           0       12.494987    1.510491    0.736962
     12          6           0      -12.376117   -1.505702   -0.957640
     13          6           0       13.494453    0.440023    0.384531
     14          6           0       10.670005   -0.014614   -0.044954
     15          6           0       -9.555697   -0.014871    0.032284
     16          6           0       13.037482   -0.220069   -0.885411
     17          6           0       11.637219   -0.465209   -0.953960
     18          6           0       10.183459    2.314378    0.991852
     19          6           0       10.973604    0.493499    2.439145
     20          6           0      -11.416945    0.036837   -2.558245
     21          6           0       -8.490568    0.747882   -0.312522
     22          6           0        9.291332   -0.547993    0.125231
     23          6           0       11.302711   -1.349389   -2.148783
     24          6           0       -7.119289    0.429114   -0.191864
     25          6           0        8.844486   -1.753516   -0.134699
     26          6           0       -6.734382   -1.054548    0.061162
     27          6           0        7.563970   -2.140378    0.019710
     28          6           0       -6.272208    1.408230   -0.611822
     29          6           0        7.164596   -3.567945    0.244788
     30          6           0        6.448007   -1.249885   -0.154218
     31          6           0       -4.856441    1.329879   -0.517055
     32          6           0        5.107669   -1.542859   -0.011659
     33          6           0       -4.041853    2.357496   -0.788975
     34          6           0       -2.588102    2.479684   -0.619933
     35          6           0        4.114440   -0.600828   -0.157315
     36          6           0        2.659329   -0.831926    0.015632
     37          6           0       -1.959687    3.762405   -0.896100
     38          6           0       -1.766945    1.396855   -0.436093
     39          6           0        1.766414    0.258493   -0.285962
     40          6           0        2.223479   -2.232107    0.140963
     41          6           0       -0.391799    1.312978   -0.551731
     42          6           0        0.445766    0.226556   -0.277028
     43          1           0      -11.121341    1.539117   -0.387232
     44          1           0      -12.697208   -1.442757    2.442445
     45          1           0      -11.132057   -1.913195    1.887190
     46          1           0      -12.345944   -3.150399    0.596034
     47          1           0      -10.069311    0.349489    2.599571
     48          1           0      -10.954402    1.904759    2.443201
     49          1           0      -11.561794    0.774759    3.428147
     50          1           0      -13.594106    0.383645    0.313228
     51          1           0      -13.787387    0.785377    1.872622
     52          1           0      -13.054464    1.982341    0.761685
     53          1           0       12.400518    2.254026   -0.146471
     54          1           0       12.934495    2.050946    1.651036
     55          1           0      -12.488210   -2.070728   -1.876330
     56          1           0       13.743925   -0.347589    1.083805
     57          1           0       -9.440996   -0.841339    0.676915
     58          1           0       13.647690   -1.247743   -0.955307
     59          1           0       13.246057    0.381581   -1.869702
     60          1           0        9.104214    2.104934    1.574040
     61          1           0        9.909210    2.846651    0.031288
     62          1           0       10.555758    3.258962    1.634937
     63          1           0       11.725291   -0.118161    2.492561
     64          1           0       10.075185   -0.071471    2.498668
     65          1           0       10.943874    1.134398    3.227966
     66          1           0      -10.303931    0.091821   -2.604779
     67          1           0      -11.840248    1.047747   -2.587723
     68          1           0      -11.802769   -0.577709   -3.401777
     69          1           0      -14.743636   -1.985040   -0.141602
     70          1           0        8.635553    0.255033    0.416580
     71          1           0       -8.773995    1.748636   -0.522598
     72          1           0       11.277086   -2.345637   -1.712235
     73          1           0       10.119498   -1.345574   -2.495693
     74          1           0       11.763726   -1.122863   -3.013565
     75          1           0       15.142268    2.001277    0.672496
     76          1           0        9.625506   -2.507142   -0.011798
     77          1           0       -5.630374   -1.181702   -0.143265
     78          1           0       -6.833579   -1.329311    1.202467
     79          1           0       -7.459426   -1.613769   -0.482455
     80          1           0       -6.753678    2.288832   -0.951877
     81          1           0        6.749265   -3.584729    1.272512
     82          1           0        6.220237   -3.834397   -0.354263
     83          1           0        8.081720   -4.173112    0.026031
     84          1           0        6.684006   -0.145206   -0.581162
     85          1           0       -4.411757    0.428694   -0.133672
     86          1           0        4.762980   -2.576296    0.493487
     87          1           0       -4.311399    3.280266   -1.044631
     88          1           0        4.341863    0.295595   -0.599298
     89          1           0       -1.434343    3.565076   -1.755321
     90          1           0       -1.335221    4.079536   -0.153353
     91          1           0       -2.704906    4.512136   -1.237276
     92          1           0       -2.411050    0.378405   -0.496820
     93          1           0        2.531745    1.249543   -0.365921
     94          1           0        2.783647   -2.777726    0.915451
     95          1           0        1.028504   -2.334309    0.663486
     96          1           0        2.289612   -3.103352   -0.682299
     97          1           0        0.102676    2.193204   -0.909359
     98          1           0        0.077651   -0.780533   -0.086735
 ---------------------------------------------------------------------

 SCF Done:  E(RCAM-B3LYP) =  -1706.95350586     A.U. after   15 cycles

 Excitation energies and oscillator strengths:

 Excited State   1:      Singlet-A      1.9618 eV  631.99 nm  f=3.1129  <S**2>=0.000
     155 ->158        -0.14795
     156 ->157         0.69409
 This state for optimization and/or second-order correction.
 Total Energy, E(TD-HF/TD-DFT) =  -1706.88141116
 Copying the excited state density for this state as the 1-particle RhoCI density.

 The electronic state is 1-A.
 Alpha  occ. eigenvalues --  -19.21220 -19.20728 -10.31100 -10.30180 -10.28175
 Alpha  occ. eigenvalues --  -10.28128 -10.27460 -10.27409 -10.27291 -10.27209
 Alpha  occ. eigenvalues --  -10.27157 -10.27080 -10.26945 -10.26854 -10.26852
 Alpha  occ. eigenvalues --  -10.26801 -10.26535 -10.26463 -10.26445 -10.26421
 Alpha  occ. eigenvalues --  -10.26370 -10.26236 -10.26169 -10.26099 -10.26017
 Alpha  occ. eigenvalues --  -10.25996 -10.25885 -10.25882 -10.25855 -10.25686
 Alpha  occ. eigenvalues --  -10.25624 -10.25482 -10.25418 -10.25328 -10.25275
 Alpha  occ. eigenvalues --  -10.25243 -10.24710 -10.24021 -10.23969 -10.23355
 Alpha  occ. eigenvalues --  -10.22108 -10.21688  -1.08325  -1.05348  -0.94350
 Alpha  occ. eigenvalues --   -0.93658  -0.92747  -0.91867  -0.91347  -0.90491
 Alpha  occ. eigenvalues --   -0.87944  -0.87675  -0.86669  -0.86080  -0.84612
 Alpha  occ. eigenvalues --   -0.83304  -0.82268  -0.80503  -0.80342  -0.78924
 Alpha  occ. eigenvalues --   -0.77176  -0.77005  -0.76083  -0.75921  -0.75676
 Alpha  occ. eigenvalues --   -0.75347  -0.74902  -0.74719  -0.72545  -0.70594
 Alpha  occ. eigenvalues --   -0.69574  -0.67567  -0.66988  -0.65305  -0.64163
 Alpha  occ. eigenvalues --   -0.63623  -0.62888  -0.61951  -0.60307  -0.59865
 Alpha  occ. eigenvalues --   -0.58845  -0.58292  -0.57603  -0.57088  -0.56475
 Alpha  occ. eigenvalues --   -0.55669  -0.55358  -0.54617  -0.54488  -0.54034
 Alpha  occ. eigenvalues --   -0.52973  -0.52503  -0.52329  -0.51765  -0.51675
 Alpha  occ. eigenvalues --   -0.51434  -0.51064  -0.50412  -0.49936  -0.49888
 Alpha  occ. eigenvalues --   -0.49407  -0.49061  -0.48665  -0.47870  -0.47772
 Alpha  occ. eigenvalues --   -0.47279  -0.46902  -0.46501  -0.46218  -0.46183
 Alpha  occ. eigenvalues --   -0.45951  -0.45834  -0.45449  -0.45335  -0.44986
 Alpha  occ. eigenvalues --   -0.44538  -0.44426  -0.44360  -0.43491  -0.43489
 Alpha  occ. eigenvalues --   -0.43096  -0.42837  -0.42759  -0.42201  -0.41650
 Alpha  occ. eigenvalues --   -0.41471  -0.41284  -0.41138  -0.40740  -0.40560
 Alpha  occ. eigenvalues --   -0.40123  -0.39993  -0.39790  -0.39715  -0.39430
 Alpha  occ. eigenvalues --   -0.39265  -0.38555  -0.38160  -0.37752  -0.37625
 Alpha  occ. eigenvalues --   -0.37589  -0.37040  -0.36828  -0.36387  -0.35268
 Alpha  occ. eigenvalues --   -0.34871  -0.34399  -0.34344  -0.31809  -0.31592
 Alpha  occ. eigenvalues --   -0.31310  -0.30104  -0.28464  -0.26372  -0.23379
 Alpha  occ. eigenvalues --   -0.18802
 Alpha virt. eigenvalues --   -0.06472  -0.01510   0.01850   0.05933   0.06972
 Alpha virt. eigenvalues --    0.07220   0.08820   0.11204   0.11583   0.12200
 Alpha virt. eigenvalues --    0.12990   0.13044   0.13360   0.13511   0.13733

 Mulliken charges:
               1
     1  O   -0.558759
     2  O   -0.600059
     3  C    0.000490
     4  C   -0.128176
     5  C   -0.184015
     6  C    0.162505
     7  C    0.134235
     8  C    0.004710
     9  C   -0.302473
    10  C   -0.296833
    11  C   -0.212787
    12  C   -0.146646
    13  C    0.224815
    14  C    0.036182
    15  C   -0.088920
    16  C   -0.221591
    17  C    0.039390
    18  C   -0.306363
    19  C   -0.293300
    20  C   -0.354305
    21  C   -0.099507
    22  C   -0.083824
    23  C   -0.347476
    24  C    0.111726
    25  C   -0.119926
    26  C   -0.362323
    27  C    0.091438
    28  C   -0.106985
    29  C   -0.372567
    30  C   -0.122882
    31  C   -0.074878
    32  C   -0.073325
    33  C   -0.077568
    34  C    0.060671
    35  C   -0.110998
    36  C    0.097083
    37  C   -0.383444
    38  C   -0.105521
    39  C   -0.085183
    40  C   -0.370448
    41  C   -0.105482
    42  C   -0.080370
    43  H    0.078366
    44  H    0.120347
    45  H    0.064675
    46  H    0.059748
    47  H    0.095444
    48  H    0.106514
    49  H    0.085823
    50  H    0.102344
    51  H    0.106964
    52  H    0.085089
    53  H    0.096040
    54  H    0.071479
    55  H    0.083976
    56  H    0.095338
    57  H    0.092763
    58  H    0.102344
    59  H    0.114494
    60  H    0.074256
    61  H    0.105342
    62  H    0.087850
    63  H    0.103628
    64  H    0.105160
    65  H    0.104730
    66  H    0.116342
    67  H    0.111667
    68  H    0.102263
    69  H    0.306451
    70  H    0.088892
    71  H    0.080169
    72  H    0.129375
    73  H    0.091916
    74  H    0.119439
    75  H    0.297588
    76  H    0.083652
    77  H    0.110286
    78  H    0.105982
    79  H    0.136205
    80  H    0.084543
    81  H    0.128744
    82  H    0.119797
    83  H    0.102934
    84  H    0.073016
    85  H    0.087580
    86  H    0.069167
    87  H    0.061449
    88  H    0.080114
    89  H    0.144366
    90  H    0.138322
    91  H    0.099961
    92  H    0.060314
    93  H    0.063747
    94  H    0.120807
    95  H    0.064828
    96  H    0.119475
    97  H    0.084406
    98  H    0.087179
 Sum of Mulliken charges =  -0.00000

 Dipole moment (field-independent basis, Debye):
    X=              0.3369    Y=              0.9283    Z=             -0.7179  Tot=              1.2210
 Quadrupole moment (field-independent basis, Debye-Ang):
   XX=           -270.8471   YY=           -243.1807   ZZ=           -262.0663
   XY=              4.0619   XZ=             31.1390   YZ=              0.1105

 Normal termination of Gaussian 16 at Tue Jul 16 00:49:22 2019.
