 Gaussian 16, Revision A.03,
 Gaussian 16:  ES64L-G16RevA.03 25-Dec-2016

 -------------------------------------
 # td=(NStates=1) CAM-B3LYP/6-31G(d,p)
 -------------------------------------

 --
 TD
 --
 Symbolic Z-matrix:
 Charge =  0 Multiplicity = 1

                         Standard orientation:
 ---------------------------------------------------------------------
 Center     Atomic      Atomic             Coordinates (Angstroms)
 Number     Number       Type             X           Y           Z
 ---------------------------------------------------------------------
      1          8           0      -14.065947   -2.106531    0.100085
      2          8           0       14.674696    0.802886    0.191258
      3          6           0      -11.722377   -0.121774    1.215513
      4          6           0      -10.937931    0.343661   -0.039537
      5          6           0      -11.887488   -1.693672    1.109450
      6          6           0      -12.645599   -2.124155   -0.167981
      7          6           0      -11.504254   -0.176954   -1.278340
      8          6           0       10.967929    1.044094    0.935381
      9          6           0      -11.074044    0.083321    2.589853
     10          6           0      -13.069828    0.617237    1.203482
     11          6           0       12.455503    1.456869    0.607497
     12          6           0      -12.177485   -1.325042   -1.384830
     13          6           0       13.480077    0.340353    0.350880
     14          6           0       10.614279   -0.014062   -0.119294
     15          6           0       -9.551574   -0.070343    0.066971
     16          6           0       13.055302   -0.297500   -0.966954
     17          6           0       11.555622   -0.612873   -0.947723
     18          6           0       10.078709    2.267750    0.861918
     19          6           0       10.949962    0.450367    2.325119
     20          6           0      -10.975817    0.500072   -2.509218
     21          6           0       -8.504132    0.805698    0.097606
     22          6           0        9.265972   -0.496431   -0.053477
     23          6           0       11.114803   -1.688945   -1.948777
     24          6           0       -7.045959    0.451077    0.130579
     25          6           0        8.771428   -1.840561   -0.191368
     26          6           0       -6.626832   -0.960647    0.324581
     27          6           0        7.352617   -2.172351   -0.142548
     28          6           0       -6.029840    1.455061   -0.104240
     29          6           0        7.004677   -3.596777    0.231306
     30          6           0        6.427780   -1.170383   -0.289115
     31          6           0       -4.717805    1.544529   -0.133477
     32          6           0        4.947126   -1.339058   -0.133245
     33          6           0       -4.016294    2.667339   -0.396227
     34          6           0       -2.558235    2.748726   -0.564938
     35          6           0        3.979457   -0.350966   -0.184031
     36          6           0        2.602592   -0.646482   -0.013492
     37          6           0       -2.107512    4.068163   -1.054453
     38          6           0       -1.775915    1.575174   -0.166421
     39          6           0        1.692274    0.456811   -0.337219
     40          6           0        2.158392   -1.956978    0.324174
     41          6           0       -0.398461    1.557192   -0.398722
     42          6           0        0.408384    0.433564   -0.075339
     43          1           0      -10.973170    1.568319   -0.056375
     44          1           0      -12.397590   -2.096018    1.931340
     45          1           0      -10.884031   -2.230094    1.180847
     46          1           0      -12.350634   -3.199610   -0.421548
     47          1           0      -10.064636   -0.470050    2.580744
     48          1           0      -11.141825    1.251926    2.748609
     49          1           0      -11.643486   -0.181249    3.357425
     50          1           0      -13.582959    0.685230    0.316999
     51          1           0      -13.777533    0.040906    1.976134
     52          1           0      -12.846631    1.450169    1.674594
     53          1           0       12.394509    2.198304   -0.229650
     54          1           0       12.674909    2.101393    1.485428
     55          1           0      -12.236322   -1.727489   -2.467140
     56          1           0       13.339825   -0.377585    1.135798
     57          1           0       -9.198433   -1.157865    0.113731
     58          1           0       13.704726   -1.378653   -1.007073
     59          1           0       13.193834    0.322083   -1.832070
     60          1           0        9.076761    1.947480    1.044348
     61          1           0       10.019356    2.609167   -0.322729
     62          1           0       10.439510    2.866646    1.626306
     63          1           0       11.445361   -0.583920    2.748898
     64          1           0        9.912274    0.113421    2.638150
     65          1           0       11.176507    1.244335    2.838551
     66          1           0       -9.836130    0.202917   -2.456518
     67          1           0      -11.365341    1.561628   -2.715599
     68          1           0      -11.160111    0.092307   -3.497337
     69          1           0      -14.518825   -2.824661   -0.675546
     70          1           0        8.281346    0.015646    0.092843
     71          1           0       -8.607330    1.973509   -0.089741
     72          1           0       10.873217   -2.752262   -1.514475
     73          1           0       10.135425   -1.286158   -2.433196
     74          1           0       11.803683   -1.743789   -3.201547
     75          1           0       15.081733    0.976109    1.091870
     76          1           0        9.508448   -2.742303    0.004671
     77          1           0       -5.552126   -1.179025    0.202900
     78          1           0       -7.021071   -1.351968    1.247497
     79          1           0       -7.183330   -1.365246   -0.535460
     80          1           0       -6.572954    2.574016   -0.363279
     81          1           0        6.513953   -3.634347    1.401050
     82          1           0        6.150811   -4.208904   -0.399717
     83          1           0        7.842161   -4.326239    0.080221
     84          1           0        6.616768   -0.193584   -0.797911
     85          1           0       -4.270361    0.600651   -0.040770
     86          1           0        4.552496   -2.297675    0.207075
     87          1           0       -4.594712    3.578697   -0.223714
     88          1           0        4.264139    0.538034   -0.556820
     89          1           0       -1.452887    4.025958   -1.961698
     90          1           0       -1.262095    4.354419   -0.272727
     91          1           0       -2.710032    4.764094   -1.140671
     92          1           0       -2.094443    0.606574    0.309281
     93          1           0        2.090484    1.400835   -0.781779
     94          1           0        1.983053   -2.252962    1.544407
     95          1           0        1.134096   -2.082110   -0.154497
     96          1           0        2.923936   -2.789830   -0.073752
     97          1           0        0.118759    2.312057   -0.694748
     98          1           0       -0.156098   -0.380701    0.367566
 ---------------------------------------------------------------------

 SCF Done:  E(RCAM-B3LYP) =  -1706.81852813     A.U. after   16 cycles

 Excitation energies and oscillator strengths:

 Excited State   1:      Singlet-A      1.7532 eV  707.20 nm  f=2.9030  <S**2>=0.000
     155 ->158        -0.13323
     156 ->157         0.70185
     156 <-157        -0.12711
 This state for optimization and/or second-order correction.
 Total Energy, E(TD-HF/TD-DFT) =  -1706.75410020
 Copying the excited state density for this state as the 1-particle RhoCI density.

 The electronic state is 1-A.
 Alpha  occ. eigenvalues --  -19.22420 -19.22012 -10.31133 -10.29489 -10.28920
 Alpha  occ. eigenvalues --  -10.28583 -10.28505 -10.28213 -10.27788 -10.27664
 Alpha  occ. eigenvalues --  -10.27434 -10.27379 -10.27247 -10.27155 -10.27146
 Alpha  occ. eigenvalues --  -10.27128 -10.26865 -10.26837 -10.26836 -10.26636
 Alpha  occ. eigenvalues --  -10.26481 -10.26344 -10.26286 -10.26132 -10.26110
 Alpha  occ. eigenvalues --  -10.26055 -10.25973 -10.25886 -10.25783 -10.25764
 Alpha  occ. eigenvalues --  -10.25689 -10.25340 -10.25281 -10.25190 -10.24909
 Alpha  occ. eigenvalues --  -10.24869 -10.24820 -10.24784 -10.24556 -10.24424
 Alpha  occ. eigenvalues --  -10.23984 -10.22375  -1.13990  -1.06079  -0.94269
 Alpha  occ. eigenvalues --   -0.93113  -0.92397  -0.91596  -0.90081  -0.89372
 Alpha  occ. eigenvalues --   -0.87743  -0.87018  -0.86636  -0.85694  -0.83824
 Alpha  occ. eigenvalues --   -0.83180  -0.81847  -0.80406  -0.79282  -0.78232
 Alpha  occ. eigenvalues --   -0.76441  -0.76290  -0.76234  -0.75671  -0.75318
 Alpha  occ. eigenvalues --   -0.74996  -0.74357  -0.73599  -0.71829  -0.69862
 Alpha  occ. eigenvalues --   -0.68277  -0.66797  -0.66074  -0.64578  -0.63838
 Alpha  occ. eigenvalues --   -0.63111  -0.62826  -0.62154  -0.61067  -0.60789
 Alpha  occ. eigenvalues --   -0.59782  -0.58595  -0.57669  -0.57380  -0.56222
 Alpha  occ. eigenvalues --   -0.55998  -0.55281  -0.54417  -0.53933  -0.53194
 Alpha  occ. eigenvalues --   -0.52875  -0.52500  -0.51953  -0.51724  -0.51203
 Alpha  occ. eigenvalues --   -0.50833  -0.50634  -0.50080  -0.49615  -0.49483
 Alpha  occ. eigenvalues --   -0.48803  -0.48412  -0.48289  -0.48068  -0.47608
 Alpha  occ. eigenvalues --   -0.47218  -0.46989  -0.46864  -0.46752  -0.46221
 Alpha  occ. eigenvalues --   -0.45840  -0.45795  -0.45410  -0.45322  -0.44748
 Alpha  occ. eigenvalues --   -0.44664  -0.43903  -0.43521  -0.43230  -0.42916
 Alpha  occ. eigenvalues --   -0.42774  -0.42612  -0.41951  -0.41772  -0.41649
 Alpha  occ. eigenvalues --   -0.41258  -0.41154  -0.40933  -0.40455  -0.40057
 Alpha  occ. eigenvalues --   -0.39907  -0.39675  -0.39522  -0.39314  -0.38778
 Alpha  occ. eigenvalues --   -0.38727  -0.38571  -0.38452  -0.37815  -0.37168
 Alpha  occ. eigenvalues --   -0.37061  -0.36991  -0.36385  -0.35970  -0.35457
 Alpha  occ. eigenvalues --   -0.33718  -0.33550  -0.33080  -0.31901  -0.31340
 Alpha  occ. eigenvalues --   -0.30977  -0.29505  -0.28924  -0.25603  -0.23209
 Alpha  occ. eigenvalues --   -0.17825
 Alpha virt. eigenvalues --   -0.06858  -0.01525   0.01538   0.05452   0.06718
 Alpha virt. eigenvalues --    0.08143   0.09115   0.10748   0.11178   0.11580
 Alpha virt. eigenvalues --    0.11854   0.12361   0.12533   0.12892   0.13082

 Mulliken charges:
               1
     1  O   -0.543618
     2  O   -0.518173
     3  C    0.006480
     4  C   -0.125706
     5  C   -0.184235
     6  C    0.134836
     7  C    0.125073
     8  C   -0.038757
     9  C   -0.290224
    10  C   -0.285577
    11  C   -0.198590
    12  C   -0.126894
    13  C    0.197680
    14  C    0.095376
    15  C   -0.089728
    16  C   -0.203124
    17  C    0.029607
    18  C   -0.290656
    19  C   -0.283704
    20  C   -0.360320
    21  C   -0.071252
    22  C   -0.127650
    23  C   -0.326402
    24  C    0.069523
    25  C   -0.126743
    26  C   -0.375143
    27  C    0.124861
    28  C   -0.135752
    29  C   -0.357264
    30  C   -0.156200
    31  C    0.004730
    32  C   -0.115151
    33  C   -0.154762
    34  C    0.070545
    35  C   -0.073527
    36  C    0.117108
    37  C   -0.345598
    38  C   -0.121815
    39  C   -0.133407
    40  C   -0.375278
    41  C   -0.051024
    42  C   -0.063319
    43  H    0.079519
    44  H    0.111269
    45  H    0.081594
    46  H    0.064374
    47  H    0.095938
    48  H    0.073981
    49  H    0.119798
    50  H    0.122800
    51  H    0.083449
    52  H    0.099785
    53  H    0.089103
    54  H    0.054882
    55  H    0.074623
    56  H    0.073711
    57  H    0.094454
    58  H    0.080562
    59  H    0.128785
    60  H    0.116720
    61  H    0.092762
    62  H    0.107235
    63  H    0.090825
    64  H    0.098211
    65  H    0.104289
    66  H    0.116026
    67  H    0.109103
    68  H    0.106690
    69  H    0.300020
    70  H    0.086726
    71  H    0.081333
    72  H    0.115258
    73  H    0.123491
    74  H    0.028170
    75  H    0.309779
    76  H    0.073556
    77  H    0.112799
    78  H    0.127338
    79  H    0.124655
    80  H    0.029691
    81  H    0.100110
    82  H    0.096243
    83  H    0.114528
    84  H    0.100964
    85  H    0.069958
    86  H    0.070640
    87  H    0.090027
    88  H    0.067532
    89  H    0.124788
    90  H    0.108393
    91  H    0.119199
    92  H    0.094783
    93  H    0.085520
    94  H    0.091698
    95  H    0.114749
    96  H    0.109007
    97  H    0.054897
    98  H    0.077436
 Sum of Mulliken charges =  -0.00000

 Dipole moment (field-independent basis, Debye):
    X=             -0.2006    Y=             -0.8958    Z=              0.5847  Tot=              1.0884
 Quadrupole moment (field-independent basis, Debye-Ang):
   XX=           -276.7327   YY=           -242.1978   ZZ=           -260.5649
   XY=             14.4313   XZ=             41.6340   YZ=             -1.3952

 Normal termination of Gaussian 16 at Sun Jul 14 15:54:17 2019.
