 Gaussian 16, Revision A.03,
 Gaussian 16:  ES64L-G16RevA.03 25-Dec-2016

 -------------------------------------
 # td=(NStates=1) CAM-B3LYP/6-31G(d,p)
 -------------------------------------

 --
 TD
 --
 Symbolic Z-matrix:
 Charge =  0 Multiplicity = 1

                         Standard orientation:
 ---------------------------------------------------------------------
 Center     Atomic      Atomic             Coordinates (Angstroms)
 Number     Number       Type             X           Y           Z
 ---------------------------------------------------------------------
      1          8           0      -14.071407   -2.085586    0.194862
      2          8           0       14.830027    0.924950   -0.406600
      3          6           0      -11.753308   -0.110201    1.249748
      4          6           0      -11.019349    0.301091   -0.051174
      5          6           0      -11.989580   -1.562745    1.257083
      6          6           0      -12.662208   -2.129416   -0.011487
      7          6           0      -11.555812   -0.288427   -1.315924
      8          6           0       11.269217    0.853043    1.116573
      9          6           0      -11.059630    0.329066    2.513977
     10          6           0      -13.137366    0.610913    1.257677
     11          6           0       12.659883    1.510740    0.662653
     12          6           0      -12.335540   -1.439640   -1.292431
     13          6           0       13.560683    0.421188    0.118329
     14          6           0       10.681631   -0.076653    0.013079
     15          6           0       -9.588534    0.003879    0.068870
     16          6           0       12.904391   -0.170889   -1.128318
     17          6           0       11.456524   -0.439232   -1.010690
     18          6           0       10.318300    2.064914    1.447644
     19          6           0       11.445443   -0.066543    2.343840
     20          6           0      -11.285226    0.531651   -2.542144
     21          6           0       -8.565416    0.822051   -0.161241
     22          6           0        9.277233   -0.430184    0.138787
     23          6           0       10.897235   -1.206221   -2.275124
     24          6           0       -7.182364    0.495649   -0.078188
     25          6           0        8.770672   -1.724723   -0.152271
     26          6           0       -6.756946   -0.858793    0.295936
     27          6           0        7.469401   -2.108826   -0.009345
     28          6           0       -6.212671    1.558209   -0.405332
     29          6           0        7.086338   -3.553535    0.114929
     30          6           0        6.429424   -1.170316   -0.061090
     31          6           0       -4.809150    1.493623   -0.355890
     32          6           0        5.014901   -1.422353    0.067570
     33          6           0       -4.049270    2.620147   -0.554578
     34          6           0       -2.654756    2.664386   -0.439012
     35          6           0        3.986742   -0.491483   -0.077036
     36          6           0        2.604700   -0.755548    0.039824
     37          6           0       -1.896376    3.944340   -0.684733
     38          6           0       -1.789640    1.464338   -0.309244
     39          6           0        1.723698    0.261879   -0.209080
     40          6           0        2.188779   -2.244106    0.166626
     41          6           0       -0.384028    1.431232   -0.244447
     42          6           0        0.285983    0.335285   -0.254795
     43          1           0      -11.266776    1.491270   -0.101632
     44          1           0      -12.742072   -1.752416    2.115385
     45          1           0      -11.053796   -2.224533    1.352883
     46          1           0      -12.328944   -3.198979   -0.105830
     47          1           0       -9.968403    0.084135    2.429301
     48          1           0      -11.136703    1.522169    2.472993
     49          1           0      -11.489170    0.040900    3.378553
     50          1           0      -13.778779    0.301148    0.248968
     51          1           0      -13.659947    0.217712    2.245930
     52          1           0      -13.130854    1.836681    1.446018
     53          1           0       12.346039    2.104387   -0.233937
     54          1           0       13.196549    2.035485    1.603799
     55          1           0      -12.869587   -1.887400   -2.210333
     56          1           0       13.611175   -0.174191    0.727951
     57          1           0       -9.395187   -1.045754    0.231801
     58          1           0       13.287262   -1.286841   -1.073143
     59          1           0       13.054314    0.726080   -2.029037
     60          1           0        9.334432    1.905303    2.060264
     61          1           0        9.899199    2.777790    0.627783
     62          1           0       11.035163    2.630255    2.286965
     63          1           0       12.164443   -0.951323    2.118973
     64          1           0       10.463324   -0.536038    2.807302
     65          1           0       11.860229    0.688118    3.175549
     66          1           0      -10.191749    0.754864   -2.628164
     67          1           0      -11.872990    1.406890   -2.743008
     68          1           0      -11.524652   -0.071167   -3.512567
     69          1           0      -14.574189   -2.324221   -0.520384
     70          1           0        8.739320    0.389534    0.520095
     71          1           0       -8.843282    1.897963   -0.471948
     72          1           0       11.067565   -2.448944   -2.182106
     73          1           0        9.765866   -1.093776   -2.428532
     74          1           0       11.333538   -0.930013   -3.213628
     75          1           0       15.044724    1.524371    0.342929
     76          1           0        9.513683   -2.527262   -0.358731
     77          1           0       -5.566330   -0.882387    0.620938
     78          1           0       -7.179938   -1.117473    1.268734
     79          1           0       -7.308423   -1.449901   -0.485084
     80          1           0       -6.530565    2.514539   -0.509268
     81          1           0        6.764944   -4.022475    1.092867
     82          1           0        6.282172   -3.766843   -0.543655
     83          1           0        7.927701   -4.072616   -0.189859
     84          1           0        6.713082    0.018438    0.008437
     85          1           0       -4.313531    0.600468   -0.034291
     86          1           0        4.697124   -2.475332    0.510742
     87          1           0       -4.559177    3.554345   -0.808322
     88          1           0        4.116884    0.663925   -0.347712
     89          1           0       -1.399350    4.258412   -1.700039
     90          1           0       -0.898152    4.146177    0.088789
     91          1           0       -2.801868    4.736469   -0.581732
     92          1           0       -2.275637    0.626449   -0.402301
     93          1           0        2.058673    1.364536   -0.170273
     94          1           0        2.847503   -2.702353    0.892174
     95          1           0        1.148087   -2.340145    0.434810
     96          1           0        2.268040   -2.799985   -0.948428
     97          1           0        0.140816    2.331765   -0.206457
     98          1           0       -0.154800   -0.589836   -0.174048
 ---------------------------------------------------------------------

 SCF Done:  E(RCAM-B3LYP) =  -1706.89051407     A.U. after   15 cycles

 Excitation energies and oscillator strengths:

 Excited State   1:      Singlet-A      2.0096 eV  616.97 nm  f=3.0293  <S**2>=0.000
     155 ->158         0.17013
     156 ->157         0.68613
 This state for optimization and/or second-order correction.
 Total Energy, E(TD-HF/TD-DFT) =  -1706.81666431
 Copying the excited state density for this state as the 1-particle RhoCI density.

 The electronic state is 1-A.
 Alpha  occ. eigenvalues --  -19.21355 -19.20449 -10.31026 -10.29028 -10.28641
 Alpha  occ. eigenvalues --  -10.28335 -10.28121 -10.28091 -10.27978 -10.27857
 Alpha  occ. eigenvalues --  -10.27564 -10.27449 -10.27317 -10.27306 -10.27240
 Alpha  occ. eigenvalues --  -10.27231 -10.27214 -10.27133 -10.26918 -10.26802
 Alpha  occ. eigenvalues --  -10.26714 -10.26642 -10.26548 -10.26503 -10.26471
 Alpha  occ. eigenvalues --  -10.26375 -10.26338 -10.26334 -10.26319 -10.26314
 Alpha  occ. eigenvalues --  -10.26259 -10.26088 -10.26063 -10.26051 -10.25923
 Alpha  occ. eigenvalues --  -10.25787 -10.25359 -10.25339 -10.25072 -10.24763
 Alpha  occ. eigenvalues --  -10.24552 -10.24237  -1.10354  -1.08532  -0.94569
 Alpha  occ. eigenvalues --   -0.93542  -0.92325  -0.91493  -0.90897  -0.89955
 Alpha  occ. eigenvalues --   -0.88329  -0.87076  -0.85858  -0.85383  -0.85046
 Alpha  occ. eigenvalues --   -0.83355  -0.82013  -0.80765  -0.79722  -0.77847
 Alpha  occ. eigenvalues --   -0.76521  -0.75811  -0.75559  -0.75287  -0.75162
 Alpha  occ. eigenvalues --   -0.74847  -0.74054  -0.73462  -0.72633  -0.70623
 Alpha  occ. eigenvalues --   -0.69599  -0.67822  -0.66884  -0.65935  -0.63784
 Alpha  occ. eigenvalues --   -0.63459  -0.63265  -0.62770  -0.61227  -0.59495
 Alpha  occ. eigenvalues --   -0.59294  -0.59040  -0.58035  -0.57463  -0.56160
 Alpha  occ. eigenvalues --   -0.55924  -0.54552  -0.54279  -0.54130  -0.53780
 Alpha  occ. eigenvalues --   -0.53653  -0.53078  -0.52333  -0.51328  -0.51000
 Alpha  occ. eigenvalues --   -0.50321  -0.50268  -0.49655  -0.49275  -0.48888
 Alpha  occ. eigenvalues --   -0.48541  -0.48367  -0.48107  -0.47754  -0.47423
 Alpha  occ. eigenvalues --   -0.47186  -0.46792  -0.46614  -0.46218  -0.45832
 Alpha  occ. eigenvalues --   -0.45644  -0.45411  -0.45136  -0.44987  -0.44653
 Alpha  occ. eigenvalues --   -0.44321  -0.43908  -0.43737  -0.43516  -0.43173
 Alpha  occ. eigenvalues --   -0.43056  -0.42663  -0.42539  -0.42214  -0.41929
 Alpha  occ. eigenvalues --   -0.41348  -0.41290  -0.40988  -0.40835  -0.40447
 Alpha  occ. eigenvalues --   -0.40235  -0.40105  -0.39729  -0.39636  -0.39300
 Alpha  occ. eigenvalues --   -0.39248  -0.38989  -0.38489  -0.38156  -0.37983
 Alpha  occ. eigenvalues --   -0.37186  -0.36667  -0.36546  -0.36470  -0.35720
 Alpha  occ. eigenvalues --   -0.35497  -0.34634  -0.34183  -0.32986  -0.32432
 Alpha  occ. eigenvalues --   -0.31429  -0.29436  -0.28954  -0.26827  -0.22528
 Alpha  occ. eigenvalues --   -0.19126
 Alpha virt. eigenvalues --   -0.06176  -0.02095   0.02477   0.05007   0.06502
 Alpha virt. eigenvalues --    0.09294   0.09983   0.11148   0.11453   0.11741
 Alpha virt. eigenvalues --    0.12197   0.12418   0.12763   0.12806   0.13239

 Mulliken charges:
               1
     1  O   -0.537706
     2  O   -0.557193
     3  C    0.018067
     4  C   -0.142966
     5  C   -0.173089
     6  C    0.145161
     7  C    0.116791
     8  C   -0.029186
     9  C   -0.280962
    10  C   -0.273513
    11  C   -0.207212
    12  C   -0.133609
    13  C    0.228184
    14  C    0.061229
    15  C   -0.085103
    16  C   -0.231691
    17  C    0.039369
    18  C   -0.304011
    19  C   -0.281165
    20  C   -0.366983
    21  C   -0.073705
    22  C   -0.094735
    23  C   -0.344586
    24  C    0.086879
    25  C   -0.122332
    26  C   -0.374214
    27  C    0.103587
    28  C   -0.122098
    29  C   -0.375440
    30  C   -0.114149
    31  C   -0.048851
    32  C   -0.122219
    33  C   -0.124778
    34  C    0.084578
    35  C   -0.089694
    36  C    0.105391
    37  C   -0.353941
    38  C   -0.102846
    39  C   -0.151978
    40  C   -0.349391
    41  C   -0.046207
    42  C   -0.050836
    43  H    0.081987
    44  H    0.111292
    45  H    0.084844
    46  H    0.075375
    47  H    0.099137
    48  H    0.075979
    49  H    0.111466
    50  H    0.104120
    51  H    0.082161
    52  H    0.067054
    53  H    0.111045
    54  H    0.070385
    55  H    0.077649
    56  H    0.063860
    57  H    0.085359
    58  H    0.111558
    59  H    0.108412
    60  H    0.098559
    61  H    0.110418
    62  H    0.074626
    63  H    0.103949
    64  H    0.109214
    65  H    0.074284
    66  H    0.119986
    67  H    0.130692
    68  H    0.093759
    69  H    0.292433
    70  H    0.088804
    71  H    0.079643
    72  H    0.070662
    73  H    0.120166
    74  H    0.112731
    75  H    0.299030
    76  H    0.091111
    77  H    0.102233
    78  H    0.130682
    79  H    0.131034
    80  H    0.075070
    81  H    0.115101
    82  H    0.129717
    83  H    0.107942
    84  H    0.070607
    85  H    0.083362
    86  H    0.080633
    87  H    0.086455
    88  H    0.079686
    89  H    0.121601
    90  H    0.089393
    91  H    0.079452
    92  H    0.061408
    93  H    0.064812
    94  H    0.122034
    95  H    0.112318
    96  H    0.101026
    97  H    0.072814
    98  H    0.068026
 Sum of Mulliken charges =  -0.00000

 Dipole moment (field-independent basis, Debye):
    X=             -1.8089    Y=             -0.7170    Z=              0.5120  Tot=              2.0121
 Quadrupole moment (field-independent basis, Debye-Ang):
   XX=           -279.4289   YY=           -246.2215   ZZ=           -263.8805
   XY=              9.3096   XZ=             42.8634   YZ=              0.3251

 Normal termination of Gaussian 16 at Tue Jul 16 01:10:49 2019.
