 Gaussian 16, Revision A.03,
 Gaussian 16:  ES64L-G16RevA.03 25-Dec-2016

 -------------------------------------
 # td=(NStates=1) CAM-B3LYP/6-31G(d,p)
 -------------------------------------

 --
 TD
 --
 Symbolic Z-matrix:
 Charge =  0 Multiplicity = 1

                         Standard orientation:
 ---------------------------------------------------------------------
 Center     Atomic      Atomic             Coordinates (Angstroms)
 Number     Number       Type             X           Y           Z
 ---------------------------------------------------------------------
      1          8           0       14.264358   -1.862711   -0.480281
      2          8           0      -14.826020    0.779292    0.105528
      3          6           0       11.774102    0.185084   -1.128191
      4          6           0       10.990706    0.232766    0.195994
      5          6           0       12.089361   -1.392037   -1.501343
      6          6           0       12.848568   -2.071291   -0.337775
      7          6           0       11.658719   -0.552727    1.291313
      8          6           0      -11.209921    1.119753   -0.981919
      9          6           0       11.074509    0.864962   -2.356935
     10          6           0       13.121170    0.856937   -1.053007
     11          6           0      -12.637492    1.484685   -0.664227
     12          6           0       12.485588   -1.559846    1.044324
     13          6           0      -13.533228    0.316804   -0.286113
     14          6           0      -10.727307    0.082308    0.136321
     15          6           0        9.562905   -0.069194    0.045087
     16          6           0      -12.982793   -0.292586    1.066577
     17          6           0      -11.569069   -0.612841    0.984560
     18          6           0      -10.369442    2.347219   -0.901239
     19          6           0      -11.095743    0.379678   -2.388514
     20          6           0       11.133744   -0.095586    2.719594
     21          6           0        8.463022    0.677799    0.288114
     22          6           0       -9.286463   -0.354892    0.060934
     23          6           0      -11.048412   -1.481354    2.184962
     24          6           0        7.098695    0.384032    0.144724
     25          6           0       -8.820896   -1.622625    0.043707
     26          6           0        6.707147   -1.023284   -0.087104
     27          6           0       -7.378025   -2.092831   -0.144247
     28          6           0        6.199430    1.549493    0.189377
     29          6           0       -7.205520   -3.476131   -0.499287
     30          6           0       -6.320946   -1.209577    0.064634
     31          6           0        4.708795    1.427431    0.196731
     32          6           0       -5.070405   -1.503816   -0.152203
     33          6           0        4.058645    2.534658    0.533092
     34          6           0        2.572021    2.679995    0.544488
     35          6           0       -3.937656   -0.603289    0.136944
     36          6           0       -2.600992   -0.829701    0.062783
     37          6           0        1.931114    3.902859    0.944602
     38          6           0        1.845897    1.477725    0.323913
     39          6           0       -1.722903    0.238718    0.352576
     40          6           0       -2.147084   -2.112682   -0.399182
     41          6           0        0.484164    1.443144    0.374373
     42          6           0       -0.309317    0.275959    0.067102
     43          1           0       11.050439    1.206322    0.717626
     44          1           0       12.505325   -1.425543   -2.379565
     45          1           0       11.065315   -1.687243   -1.364654
     46          1           0       12.485896   -3.104329   -0.527633
     47          1           0       10.103019    0.468054   -2.467997
     48          1           0       11.144134    1.880468   -2.224228
     49          1           0       11.754790    0.865607   -3.274029
     50          1           0       13.720283    0.395266   -0.131277
     51          1           0       13.664528    0.795733   -2.014987
     52          1           0       13.026510    1.903374   -0.818846
     53          1           0      -12.731000    2.099847    0.184204
     54          1           0      -13.144003    2.068148   -1.473497
     55          1           0       12.856268   -2.240996    1.834529
     56          1           0      -13.417369   -0.557102   -1.063692
     57          1           0        9.421602   -1.102534   -0.479269
     58          1           0      -13.512091   -1.153727    1.414014
     59          1           0      -13.465598    0.388934    1.923283
     60          1           0       -9.497875    2.003682   -1.411928
     61          1           0      -10.274144    2.549019    0.094512
     62          1           0      -10.947001    3.092746   -1.516727
     63          1           0      -11.934280   -0.477926   -2.513986
     64          1           0      -10.179111    0.030041   -2.704834
     65          1           0      -11.431501    1.157233   -2.977218
     66          1           0       10.067935   -0.261718    2.863311
     67          1           0       11.376225    1.056214    3.047637
     68          1           0       11.704254   -0.684230    3.678135
     69          1           0       14.713891   -1.841895    0.449820
     70          1           0       -8.670256    0.500074   -0.236074
     71          1           0        8.785362    1.771791    0.542802
     72          1           0      -11.459569   -2.631338    2.016621
     73          1           0      -10.024336   -1.244923    2.375355
     74          1           0      -11.436337   -1.017880    3.155423
     75          1           0      -15.210117    1.270025   -0.685695
     76          1           0       -9.525524   -2.421653    0.151434
     77          1           0        5.730542   -1.307194   -0.227537
     78          1           0        7.046003   -1.243072   -1.012181
     79          1           0        6.961230   -1.942066    0.564192
     80          1           0        6.596187    2.520422    0.565371
     81          1           0       -6.867219   -3.764569   -1.514524
     82          1           0       -6.645457   -4.128677    0.347905
     83          1           0       -8.231086   -3.856063   -0.617620
     84          1           0       -6.699039   -0.262693    0.527965
     85          1           0        4.052142    0.595219    0.085488
     86          1           0       -4.750352   -2.458929   -0.480970
     87          1           0        4.767725    3.368432    0.411674
     88          1           0       -4.564459    0.322368    0.630454
     89          1           0        1.468850    3.671825    1.971501
     90          1           0        1.344706    4.123069    0.113949
     91          1           0        2.591490    4.697809    1.002712
     92          1           0        2.378973    0.499463   -0.082639
     93          1           0       -2.133222    1.081728    0.877879
     94          1           0       -2.292731   -2.254053   -1.405319
     95          1           0       -1.041992   -2.505356   -0.323189
     96          1           0       -2.884845   -2.985602    0.108210
     97          1           0       -0.079640    2.393286    0.648892
     98          1           0        0.151697   -0.581826   -0.069991
 ---------------------------------------------------------------------

 SCF Done:  E(RCAM-B3LYP) =  -1706.92643161     A.U. after   16 cycles

 Excitation energies and oscillator strengths:

 Excited State   1:      Singlet-A      1.8474 eV  671.12 nm  f=2.9580  <S**2>=0.000
     155 ->158         0.13094
     156 ->157         0.70028
     156 <-157        -0.12105
 This state for optimization and/or second-order correction.
 Total Energy, E(TD-HF/TD-DFT) =  -1706.85854021
 Copying the excited state density for this state as the 1-particle RhoCI density.

 The electronic state is 1-A.
 Alpha  occ. eigenvalues --  -19.22081 -19.21256 -10.30881 -10.30838 -10.28812
 Alpha  occ. eigenvalues --  -10.28537 -10.28486 -10.28325 -10.27928 -10.27677
 Alpha  occ. eigenvalues --  -10.27097 -10.26972 -10.26898 -10.26780 -10.26743
 Alpha  occ. eigenvalues --  -10.26729 -10.26668 -10.26573 -10.26456 -10.26433
 Alpha  occ. eigenvalues --  -10.26353 -10.26211 -10.26197 -10.26166 -10.26072
 Alpha  occ. eigenvalues --  -10.25958 -10.25933 -10.25880 -10.25813 -10.25810
 Alpha  occ. eigenvalues --  -10.25724 -10.25289 -10.25004 -10.24932 -10.24675
 Alpha  occ. eigenvalues --  -10.24672 -10.24645 -10.24559 -10.24045 -10.23583
 Alpha  occ. eigenvalues --  -10.23290 -10.23139  -1.08902  -1.07579  -0.93615
 Alpha  occ. eigenvalues --   -0.93103  -0.92537  -0.91940  -0.90525  -0.90143
 Alpha  occ. eigenvalues --   -0.87265  -0.87002  -0.85960  -0.85404  -0.84559
 Alpha  occ. eigenvalues --   -0.83771  -0.82375  -0.80638  -0.79748  -0.79196
 Alpha  occ. eigenvalues --   -0.77784  -0.77073  -0.75961  -0.75647  -0.75238
 Alpha  occ. eigenvalues --   -0.75021  -0.74660  -0.74357  -0.72248  -0.69783
 Alpha  occ. eigenvalues --   -0.68107  -0.67387  -0.65969  -0.64344  -0.63950
 Alpha  occ. eigenvalues --   -0.63490  -0.62967  -0.62755  -0.60705  -0.60074
 Alpha  occ. eigenvalues --   -0.59712  -0.58316  -0.57948  -0.57560  -0.56449
 Alpha  occ. eigenvalues --   -0.55947  -0.55506  -0.54387  -0.53772  -0.53408
 Alpha  occ. eigenvalues --   -0.53175  -0.52798  -0.52352  -0.51971  -0.51779
 Alpha  occ. eigenvalues --   -0.51098  -0.50931  -0.50136  -0.49639  -0.49499
 Alpha  occ. eigenvalues --   -0.49072  -0.48718  -0.48264  -0.48033  -0.47783
 Alpha  occ. eigenvalues --   -0.47533  -0.47377  -0.47037  -0.46595  -0.46430
 Alpha  occ. eigenvalues --   -0.46122  -0.45865  -0.45592  -0.45165  -0.44778
 Alpha  occ. eigenvalues --   -0.44557  -0.44390  -0.44175  -0.43772  -0.43017
 Alpha  occ. eigenvalues --   -0.42886  -0.42396  -0.42353  -0.42306  -0.42086
 Alpha  occ. eigenvalues --   -0.41728  -0.41314  -0.41236  -0.40586  -0.40576
 Alpha  occ. eigenvalues --   -0.40177  -0.39942  -0.39534  -0.39394  -0.39104
 Alpha  occ. eigenvalues --   -0.38943  -0.38852  -0.38437  -0.38176  -0.37810
 Alpha  occ. eigenvalues --   -0.37640  -0.37266  -0.36512  -0.36170  -0.35150
 Alpha  occ. eigenvalues --   -0.34459  -0.33846  -0.33596  -0.32371  -0.32106
 Alpha  occ. eigenvalues --   -0.30702  -0.29949  -0.28041  -0.26223  -0.23405
 Alpha  occ. eigenvalues --   -0.18107
 Alpha virt. eigenvalues --   -0.06681  -0.01284   0.02276   0.05280   0.06280
 Alpha virt. eigenvalues --    0.08562   0.10815   0.11712   0.12231   0.12373
 Alpha virt. eigenvalues --    0.12498   0.13095   0.13337   0.13658   0.13831

 Mulliken charges:
               1
     1  O   -0.558656
     2  O   -0.557992
     3  C   -0.001377
     4  C   -0.135203
     5  C   -0.165564
     6  C    0.173884
     7  C    0.131558
     8  C   -0.025986
     9  C   -0.302591
    10  C   -0.277899
    11  C   -0.182594
    12  C   -0.189065
    13  C    0.158015
    14  C    0.036100
    15  C   -0.073264
    16  C   -0.220581
    17  C    0.041899
    18  C   -0.288179
    19  C   -0.296609
    20  C   -0.351994
    21  C   -0.103728
    22  C   -0.138407
    23  C   -0.347807
    24  C    0.112822
    25  C   -0.095507
    26  C   -0.385948
    27  C    0.083623
    28  C   -0.173375
    29  C   -0.387276
    30  C   -0.089222
    31  C   -0.020462
    32  C   -0.087183
    33  C   -0.126753
    34  C    0.050245
    35  C   -0.131299
    36  C    0.137711
    37  C   -0.362567
    38  C   -0.101885
    39  C   -0.124052
    40  C   -0.390721
    41  C   -0.098573
    42  C   -0.084002
    43  H    0.089643
    44  H    0.106625
    45  H    0.087913
    46  H    0.087611
    47  H    0.104765
    48  H    0.107534
    49  H    0.086914
    50  H    0.084785
    51  H    0.096697
    52  H    0.081287
    53  H    0.114957
    54  H    0.065334
    55  H    0.089244
    56  H    0.070647
    57  H    0.072306
    58  H    0.103917
    59  H    0.102196
    60  H    0.110065
    61  H    0.122744
    62  H    0.095283
    63  H    0.084353
    64  H    0.122261
    65  H    0.105303
    66  H    0.142148
    67  H    0.097136
    68  H    0.077234
    69  H    0.312141
    70  H    0.077949
    71  H    0.072540
    72  H    0.094960
    73  H    0.130319
    74  H    0.100113
    75  H    0.303620
    76  H    0.088212
    77  H    0.116746
    78  H    0.138644
    79  H    0.116672
    80  H    0.102676
    81  H    0.123040
    82  H    0.106835
    83  H    0.106508
    84  H    0.081891
    85  H    0.081054
    86  H    0.076299
    87  H    0.078622
    88  H    0.068465
    89  H    0.133847
    90  H    0.140774
    91  H    0.118726
    92  H    0.084172
    93  H    0.086399
    94  H    0.144144
    95  H    0.104936
    96  H    0.091242
    97  H    0.087898
    98  H    0.072120
 Sum of Mulliken charges =  -0.00000

 Dipole moment (field-independent basis, Debye):
    X=             -0.2721    Y=              0.5833    Z=             -0.1502  Tot=              0.6609
 Quadrupole moment (field-independent basis, Debye-Ang):
   XX=           -292.9851   YY=           -243.8341   ZZ=           -260.3296
   XY=             -5.8003   XZ=             39.0296   YZ=              0.7151

 Normal termination of Gaussian 16 at Mon Jul 15 21:41:28 2019.
