 Gaussian 16, Revision A.03,
 Gaussian 16:  ES64L-G16RevA.03 25-Dec-2016

 -------------------------------------
 # td=(NStates=1) CAM-B3LYP/6-31G(d,p)
 -------------------------------------

 --
 TD
 --
 Symbolic Z-matrix:
 Charge =  0 Multiplicity = 1

                         Standard orientation:
 ---------------------------------------------------------------------
 Center     Atomic      Atomic             Coordinates (Angstroms)
 Number     Number       Type             X           Y           Z
 ---------------------------------------------------------------------
      1          8           0      -14.149439   -2.072895    0.385632
      2          8           0       14.788875    0.899899   -0.075797
      3          6           0      -11.811533   -0.016370    1.320880
      4          6           0      -11.053539    0.229784    0.002402
      5          6           0      -11.963812   -1.492662    1.390731
      6          6           0      -12.706094   -2.125501    0.131370
      7          6           0      -11.659143   -0.342739   -1.269100
      8          6           0       11.222823    0.947201    1.093271
      9          6           0      -11.076173    0.449412    2.626637
     10          6           0      -13.153775    0.715938    1.368401
     11          6           0       12.629483    1.502676    0.674399
     12          6           0      -12.474330   -1.434056   -1.163578
     13          6           0       13.497995    0.368665    0.255582
     14          6           0       10.747611   -0.040147    0.096242
     15          6           0       -9.500872   -0.172394   -0.108911
     16          6           0       13.018359   -0.069739   -1.045380
     17          6           0       11.513345   -0.555496   -0.854805
     18          6           0       10.136352    2.103082    1.161108
     19          6           0       11.265078    0.362818    2.569298
     20          6           0      -11.437878    0.393153   -2.565667
     21          6           0       -8.581850    0.822360   -0.112819
     22          6           0        9.359338   -0.458150    0.176544
     23          6           0       11.204772   -1.553880   -2.023795
     24          6           0       -7.118328    0.579370   -0.174895
     25          6           0        8.822773   -1.769562   -0.079056
     26          6           0       -6.634728   -0.915780    0.054061
     27          6           0        7.381502   -1.977978   -0.035683
     28          6           0       -6.181533    1.560728   -0.348195
     29          6           0        7.052559   -3.501606    0.171478
     30          6           0        6.305307   -1.078306   -0.264521
     31          6           0       -4.772076    1.554896   -0.343000
     32          6           0        5.026593   -1.528546   -0.023913
     33          6           0       -3.922965    2.602742   -0.534674
     34          6           0       -2.550523    2.609794   -0.717151
     35          6           0        3.972034   -0.590791   -0.364171
     36          6           0        2.626235   -0.751390   -0.197961
     37          6           0       -1.895039    3.924264   -0.986539
     38          6           0       -1.808676    1.440179   -0.417359
     39          6           0        1.698943    0.295418   -0.372723
     40          6           0        2.132468   -2.207325    0.091516
     41          6           0       -0.388663    1.425841   -0.363444
     42          6           0        0.323256    0.201061   -0.175548
     43          1           0      -11.119324    1.395520   -0.183965
     44          1           0      -12.376724   -1.898688    2.201103
     45          1           0      -10.943087   -2.007823    1.486112
     46          1           0      -12.272606   -3.194844   -0.010461
     47          1           0      -10.023859    0.129759    2.764905
     48          1           0      -10.928303    1.607004    2.400370
     49          1           0      -11.501170    0.351550    3.484589
     50          1           0      -13.983234    0.403590    0.691858
     51          1           0      -13.679240    0.677259    2.380622
     52          1           0      -13.123807    1.760514    1.457923
     53          1           0       12.643432    2.359702   -0.093795
     54          1           0       13.198394    2.062407    1.480457
     55          1           0      -13.227400   -1.900384   -1.876077
     56          1           0       13.566552   -0.392819    1.023865
     57          1           0       -9.163788   -1.247399    0.098920
     58          1           0       13.735291   -0.780862   -1.488928
     59          1           0       13.144973    0.776587   -1.766415
     60          1           0        9.148026    1.803693    1.708800
     61          1           0        9.755994    2.543354    0.091324
     62          1           0       10.524275    2.990457    1.618071
     63          1           0       12.142317   -0.434708    2.695354
     64          1           0       10.307762   -0.287231    2.402557
     65          1           0       11.473268    1.182936    3.302273
     66          1           0      -10.272966    0.380013   -2.971213
     67          1           0      -12.022414    1.429747   -2.656735
     68          1           0      -12.110883   -0.056254   -3.297307
     69          1           0      -14.626531   -2.098487   -0.650462
     70          1           0        8.523650    0.069236    0.703349
     71          1           0       -8.750777    1.938715    0.055479
     72          1           0       11.526871   -2.582563   -1.997433
     73          1           0       10.342502   -1.477315   -2.423461
     74          1           0       12.043664   -1.014229   -2.659880
     75          1           0       15.165826    0.926130    0.848777
     76          1           0        9.463574   -2.604248   -0.260111
     77          1           0       -5.595929   -1.098866   -0.255061
     78          1           0       -6.597533   -1.383908    1.102344
     79          1           0       -7.481296   -1.611511   -0.646948
     80          1           0       -6.486801    2.702747   -0.400637
     81          1           0        6.581900   -3.909768    1.061824
     82          1           0        6.484906   -4.097712   -0.723126
     83          1           0        7.986390   -4.056060    0.205444
     84          1           0        6.454138   -0.117738   -0.351640
     85          1           0       -4.095052    0.551678   -0.035029
     86          1           0        4.559859   -2.579454    0.258010
     87          1           0       -4.450626    3.649700   -0.424820
     88          1           0        4.352929    0.293873   -0.773135
     89          1           0       -1.488539    4.170401   -2.015168
     90          1           0       -1.074012    4.190455   -0.303195
     91          1           0       -2.582689    4.837680   -0.916744
     92          1           0       -2.304345    0.688288   -0.162522
     93          1           0        2.263997    1.401343   -0.575551
     94          1           0        1.976260   -2.364509    1.293657
     95          1           0        1.187875   -2.319176   -0.323738
     96          1           0        3.039117   -3.037860   -0.264415
     97          1           0        0.123853    2.405229   -0.541805
     98          1           0       -0.021931   -0.782973   -0.093099
 ---------------------------------------------------------------------

 SCF Done:  E(RCAM-B3LYP) =  -1706.85279564     A.U. after   16 cycles

 Excitation energies and oscillator strengths:

 Excited State   1:      Singlet-A      1.8041 eV  687.23 nm  f=3.0586  <S**2>=0.000
     155 ->158        -0.13799
     156 ->157         0.69983
     156 <-157        -0.11822
 This state for optimization and/or second-order correction.
 Total Energy, E(TD-HF/TD-DFT) =  -1706.78649558
 Copying the excited state density for this state as the 1-particle RhoCI density.

 The electronic state is 1-A.
 Alpha  occ. eigenvalues --  -19.22241 -19.21287 -10.30891 -10.29314 -10.28395
 Alpha  occ. eigenvalues --  -10.28222 -10.28212 -10.28189 -10.27871 -10.27788
 Alpha  occ. eigenvalues --  -10.27718 -10.27703 -10.27637 -10.27607 -10.27512
 Alpha  occ. eigenvalues --  -10.27480 -10.27410 -10.27299 -10.27269 -10.27263
 Alpha  occ. eigenvalues --  -10.27184 -10.27183 -10.27173 -10.27157 -10.27150
 Alpha  occ. eigenvalues --  -10.27069 -10.26864 -10.26802 -10.26502 -10.26435
 Alpha  occ. eigenvalues --  -10.26151 -10.26050 -10.26039 -10.25552 -10.25396
 Alpha  occ. eigenvalues --  -10.25332 -10.25115 -10.25107 -10.24746 -10.24195
 Alpha  occ. eigenvalues --  -10.23942 -10.23397  -1.09466  -1.05760  -0.94091
 Alpha  occ. eigenvalues --   -0.92884  -0.92403  -0.91532  -0.89874  -0.89204
 Alpha  occ. eigenvalues --   -0.86988  -0.86634  -0.86197  -0.85407  -0.84277
 Alpha  occ. eigenvalues --   -0.82521  -0.81238  -0.79750  -0.79363  -0.78573
 Alpha  occ. eigenvalues --   -0.76515  -0.75889  -0.75749  -0.75563  -0.75301
 Alpha  occ. eigenvalues --   -0.75256  -0.74664  -0.74545  -0.72518  -0.70398
 Alpha  occ. eigenvalues --   -0.68653  -0.66718  -0.65847  -0.65316  -0.64603
 Alpha  occ. eigenvalues --   -0.64475  -0.63300  -0.62741  -0.61482  -0.59904
 Alpha  occ. eigenvalues --   -0.59321  -0.58705  -0.57821  -0.57016  -0.56284
 Alpha  occ. eigenvalues --   -0.55564  -0.54491  -0.54351  -0.53810  -0.53213
 Alpha  occ. eigenvalues --   -0.53063  -0.52727  -0.52367  -0.51983  -0.50416
 Alpha  occ. eigenvalues --   -0.49910  -0.49867  -0.49124  -0.48924  -0.48450
 Alpha  occ. eigenvalues --   -0.48064  -0.48021  -0.47897  -0.47473  -0.47401
 Alpha  occ. eigenvalues --   -0.47146  -0.46745  -0.46588  -0.46357  -0.46004
 Alpha  occ. eigenvalues --   -0.45487  -0.45151  -0.45096  -0.44750  -0.44642
 Alpha  occ. eigenvalues --   -0.44254  -0.43785  -0.43466  -0.43228  -0.42937
 Alpha  occ. eigenvalues --   -0.42517  -0.42453  -0.42049  -0.42045  -0.41838
 Alpha  occ. eigenvalues --   -0.41215  -0.41156  -0.40739  -0.40666  -0.40502
 Alpha  occ. eigenvalues --   -0.40237  -0.40181  -0.40096  -0.39358  -0.39220
 Alpha  occ. eigenvalues --   -0.39109  -0.38785  -0.38423  -0.38095  -0.37622
 Alpha  occ. eigenvalues --   -0.37598  -0.36864  -0.36439  -0.36097  -0.35785
 Alpha  occ. eigenvalues --   -0.35499  -0.34743  -0.33999  -0.32219  -0.31994
 Alpha  occ. eigenvalues --   -0.31567  -0.29839  -0.28666  -0.27147  -0.23594
 Alpha  occ. eigenvalues --   -0.18360
 Alpha virt. eigenvalues --   -0.07059  -0.01628   0.02188   0.04844   0.06098
 Alpha virt. eigenvalues --    0.08483   0.09807   0.10417   0.10983   0.11156
 Alpha virt. eigenvalues --    0.11535   0.12263   0.13078   0.13293   0.13598

 Mulliken charges:
               1
     1  O   -0.550240
     2  O   -0.557829
     3  C    0.042420
     4  C   -0.139950
     5  C   -0.164705
     6  C    0.149689
     7  C    0.108846
     8  C   -0.026099
     9  C   -0.304132
    10  C   -0.310757
    11  C   -0.173452
    12  C   -0.127261
    13  C    0.128311
    14  C    0.113221
    15  C   -0.115175
    16  C   -0.219372
    17  C    0.009393
    18  C   -0.306115
    19  C   -0.285542
    20  C   -0.353658
    21  C   -0.063429
    22  C   -0.146952
    23  C   -0.338963
    24  C    0.092242
    25  C   -0.116942
    26  C   -0.353852
    27  C    0.059169
    28  C   -0.138675
    29  C   -0.375891
    30  C   -0.092995
    31  C   -0.048187
    32  C   -0.062338
    33  C   -0.135994
    34  C    0.115936
    35  C   -0.133617
    36  C    0.109776
    37  C   -0.401497
    38  C   -0.054904
    39  C   -0.110635
    40  C   -0.354841
    41  C   -0.096761
    42  C   -0.078555
    43  H    0.085890
    44  H    0.112169
    45  H    0.076457
    46  H    0.073738
    47  H    0.099452
    48  H    0.072742
    49  H    0.119469
    50  H    0.118898
    51  H    0.087589
    52  H    0.098223
    53  H    0.100331
    54  H    0.062229
    55  H    0.064192
    56  H    0.091466
    57  H    0.109305
    58  H    0.110066
    59  H    0.127321
    60  H    0.096982
    61  H    0.083993
    62  H    0.105855
    63  H    0.077446
    64  H    0.110947
    65  H    0.116271
    66  H    0.114842
    67  H    0.101169
    68  H    0.114003
    69  H    0.293126
    70  H    0.098174
    71  H    0.093986
    72  H    0.123136
    73  H    0.130037
    74  H    0.094936
    75  H    0.298903
    76  H    0.100349
    77  H    0.114035
    78  H    0.115792
    79  H    0.073195
    80  H    0.071283
    81  H    0.122535
    82  H    0.091131
    83  H    0.101735
    84  H    0.082735
    85  H    0.061946
    86  H    0.090533
    87  H    0.075802
    88  H    0.074099
    89  H    0.122142
    90  H    0.123758
    91  H    0.107200
    92  H    0.047659
    93  H    0.066721
    94  H    0.102443
    95  H    0.122708
    96  H    0.089228
    97  H    0.095635
    98  H    0.094306
 Sum of Mulliken charges =  -0.00000

 Dipole moment (field-independent basis, Debye):
    X=              1.5189    Y=              0.0448    Z=              0.6237  Tot=              1.6426
 Quadrupole moment (field-independent basis, Debye-Ang):
   XX=           -270.8855   YY=           -246.7921   ZZ=           -262.8789
   XY=            -11.0011   XZ=             35.3771   YZ=              2.0148

 Normal termination of Gaussian 16 at Sun Jul 14 08:44:52 2019.
