 Gaussian 16, Revision A.03,
 Gaussian 16:  ES64L-G16RevA.03 25-Dec-2016

 -------------------------------------
 # td=(NStates=1) CAM-B3LYP/6-31G(d,p)
 -------------------------------------

 --
 TD
 --
 Symbolic Z-matrix:
 Charge =  0 Multiplicity = 1

                         Standard orientation:
 ---------------------------------------------------------------------
 Center     Atomic      Atomic             Coordinates (Angstroms)
 Number     Number       Type             X           Y           Z
 ---------------------------------------------------------------------
      1          8           0      -14.130643   -1.958128    0.563060
      2          8           0       14.926259    0.632816    0.270240
      3          6           0      -11.780579    0.181292    1.326935
      4          6           0      -10.988340    0.412760   -0.038387
      5          6           0      -11.946962   -1.305055    1.535835
      6          6           0      -12.675035   -2.104062    0.487416
      7          6           0      -11.502222   -0.550046   -1.157696
      8          6           0       11.141740    1.081068    1.086015
      9          6           0      -10.962234    0.818622    2.589625
     10          6           0      -13.183961    0.755016    1.234060
     11          6           0       12.694736    1.536204    0.883986
     12          6           0      -12.250027   -1.678255   -0.878759
     13          6           0       13.580654    0.363860    0.427149
     14          6           0       10.638285   -0.023094    0.006010
     15          6           0       -9.462914   -0.011589    0.206017
     16          6           0       13.074782   -0.189886   -0.845980
     17          6           0       11.581161   -0.435777   -0.939961
     18          6           0       10.202567    2.297095    1.077123
     19          6           0       11.000829    0.406049    2.513475
     20          6           0      -11.244242   -0.176752   -2.555447
     21          6           0       -8.548305    0.913083   -0.180823
     22          6           0        9.201808   -0.374050    0.133335
     23          6           0       11.119296   -1.342337   -2.070188
     24          6           0       -7.154958    0.528678   -0.251599
     25          6           0        8.724643   -1.645298   -0.003877
     26          6           0       -6.756733   -0.882525    0.087059
     27          6           0        7.391684   -2.112319   -0.118477
     28          6           0       -6.204702    1.547162   -0.438547
     29          6           0        7.153662   -3.572173    0.216786
     30          6           0        6.341433   -1.256914   -0.234867
     31          6           0       -4.847506    1.446101   -0.439125
     32          6           0        4.970828   -1.503687   -0.170987
     33          6           0       -4.025345    2.577120   -0.712014
     34          6           0       -2.607400    2.555634   -0.804041
     35          6           0        4.001564   -0.504061   -0.363296
     36          6           0        2.590178   -0.788936   -0.292430
     37          6           0       -2.039056    3.831623   -1.202629
     38          6           0       -1.784597    1.431891   -0.590841
     39          6           0        1.680252    0.233133   -0.434085
     40          6           0        2.157786   -2.286563    0.106879
     41          6           0       -0.397827    1.333980   -0.683812
     42          6           0        0.327194    0.192638   -0.445597
     43          1           0      -11.143784    1.381436   -0.227188
     44          1           0      -12.198678   -1.551891    2.497325
     45          1           0      -10.786290   -1.609228    1.664995
     46          1           0      -12.454610   -3.286818    0.624877
     47          1           0      -10.006464    0.388985    2.651726
     48          1           0      -10.969172    1.942328    2.473742
     49          1           0      -11.701557    0.732691    3.423768
     50          1           0      -13.627545    0.504292    0.144989
     51          1           0      -13.843549    0.556294    1.921893
     52          1           0      -12.958631    1.855265    0.990775
     53          1           0       12.727280    2.389586    0.113188
     54          1           0       12.987485    1.903468    1.913466
     55          1           0      -12.640366   -2.325002   -1.792312
     56          1           0       13.525278   -0.517600    1.210376
     57          1           0       -9.168321   -0.959624    0.499970
     58          1           0       13.645574   -0.983327   -1.180284
     59          1           0       13.412321    0.482812   -1.548208
     60          1           0        9.268989    2.042816    1.509708
     61          1           0       10.246317    2.927949   -0.007160
     62          1           0       10.709494    3.204019    1.543934
     63          1           0       11.670135   -0.481527    2.532414
     64          1           0        9.976769    0.138756    2.560582
     65          1           0       11.323309    1.024695    3.323516
     66          1           0      -10.200367    0.178472   -2.491821
     67          1           0      -11.872224    0.757328   -2.828935
     68          1           0      -11.635641   -1.004463   -3.350073
     69          1           0      -14.392333   -2.126374   -0.292453
     70          1           0        8.395007    0.333295    0.356803
     71          1           0       -8.933879    1.803354   -0.391899
     72          1           0       11.219735   -2.537194   -1.947215
     73          1           0       10.096905   -1.162553   -2.302713
     74          1           0       11.518294   -1.017890   -2.930493
     75          1           0       15.282146    1.112382    1.058526
     76          1           0        9.472147   -2.370138   -0.208265
     77          1           0       -5.671729   -1.069970    0.082729
     78          1           0       -7.155479   -1.260294    1.025047
     79          1           0       -6.996787   -1.642707   -0.756983
     80          1           0       -6.639419    2.572630   -0.530347
     81          1           0        6.800075   -3.626933    1.277044
     82          1           0        6.430214   -3.942098   -0.578381
     83          1           0        8.010088   -4.244769    0.104223
     84          1           0        6.565842   -0.194897   -0.435301
     85          1           0       -4.280405    0.502699   -0.198145
     86          1           0        4.523695   -2.599528   -0.141333
     87          1           0       -4.374550    3.622128   -1.134619
     88          1           0        4.210820    0.497130   -0.568301
     89          1           0       -1.621974    3.817968   -2.204652
     90          1           0       -1.121513    4.109068   -0.391752
     91          1           0       -2.822052    4.614464   -1.167109
     92          1           0       -2.419683    0.589110   -0.324621
     93          1           0        2.083268    1.349808   -0.619924
     94          1           0        1.961450   -2.515109    1.386422
     95          1           0        1.151129   -2.463781   -0.372893
     96          1           0        2.886592   -3.098687   -0.279171
     97          1           0        0.037481    2.316157   -0.722305
     98          1           0       -0.138575   -0.654282   -0.019049
 ---------------------------------------------------------------------

 SCF Done:  E(RCAM-B3LYP) =  -1707.00868221     A.U. after   15 cycles

 Excitation energies and oscillator strengths:

 Excited State   1:      Singlet-A      1.9343 eV  640.97 nm  f=3.0912  <S**2>=0.000
     155 ->158         0.14098
     156 ->157         0.69623
     156 <-157        -0.10256
 This state for optimization and/or second-order correction.
 Total Energy, E(TD-HF/TD-DFT) =  -1706.93759683
 Copying the excited state density for this state as the 1-particle RhoCI density.

 The electronic state is 1-A.
 Alpha  occ. eigenvalues --  -19.21425 -19.20215 -10.31762 -10.30562 -10.29055
 Alpha  occ. eigenvalues --  -10.28143 -10.27973 -10.27923 -10.27828 -10.27709
 Alpha  occ. eigenvalues --  -10.27459 -10.27195 -10.27154 -10.27112 -10.26984
 Alpha  occ. eigenvalues --  -10.26884 -10.26864 -10.26782 -10.26768 -10.26646
 Alpha  occ. eigenvalues --  -10.26611 -10.26541 -10.26428 -10.26384 -10.26377
 Alpha  occ. eigenvalues --  -10.26355 -10.26345 -10.26272 -10.26053 -10.25921
 Alpha  occ. eigenvalues --  -10.25807 -10.25670 -10.25656 -10.25406 -10.25373
 Alpha  occ. eigenvalues --  -10.25022 -10.24952 -10.24698 -10.24040 -10.23588
 Alpha  occ. eigenvalues --  -10.23537 -10.23371  -1.10330  -1.09418  -0.93331
 Alpha  occ. eigenvalues --   -0.92512  -0.92018  -0.91417  -0.90788  -0.90064
 Alpha  occ. eigenvalues --   -0.87462  -0.86623  -0.86036  -0.85838  -0.84523
 Alpha  occ. eigenvalues --   -0.82903  -0.82159  -0.80519  -0.80057  -0.78297
 Alpha  occ. eigenvalues --   -0.76709  -0.75876  -0.75765  -0.75295  -0.75216
 Alpha  occ. eigenvalues --   -0.75021  -0.74744  -0.74707  -0.72733  -0.70412
 Alpha  occ. eigenvalues --   -0.69004  -0.67752  -0.66746  -0.65288  -0.64174
 Alpha  occ. eigenvalues --   -0.63019  -0.62221  -0.62042  -0.61154  -0.60463
 Alpha  occ. eigenvalues --   -0.59303  -0.58208  -0.57943  -0.56999  -0.56105
 Alpha  occ. eigenvalues --   -0.55793  -0.55643  -0.55192  -0.54155  -0.53689
 Alpha  occ. eigenvalues --   -0.53040  -0.52936  -0.52633  -0.52032  -0.51063
 Alpha  occ. eigenvalues --   -0.50748  -0.50037  -0.49507  -0.49080  -0.48995
 Alpha  occ. eigenvalues --   -0.48850  -0.48551  -0.48529  -0.48155  -0.47712
 Alpha  occ. eigenvalues --   -0.47511  -0.47230  -0.46789  -0.46512  -0.46157
 Alpha  occ. eigenvalues --   -0.45679  -0.45429  -0.45382  -0.45288  -0.45012
 Alpha  occ. eigenvalues --   -0.44600  -0.44553  -0.44201  -0.43851  -0.43734
 Alpha  occ. eigenvalues --   -0.43435  -0.43261  -0.42755  -0.42726  -0.42266
 Alpha  occ. eigenvalues --   -0.42129  -0.41755  -0.41344  -0.41226  -0.40923
 Alpha  occ. eigenvalues --   -0.40616  -0.40216  -0.39975  -0.39514  -0.39288
 Alpha  occ. eigenvalues --   -0.39000  -0.38843  -0.38732  -0.38291  -0.38014
 Alpha  occ. eigenvalues --   -0.37366  -0.37085  -0.36147  -0.35857  -0.35368
 Alpha  occ. eigenvalues --   -0.35203  -0.34331  -0.33447  -0.31918  -0.31663
 Alpha  occ. eigenvalues --   -0.31473  -0.29150  -0.28682  -0.26781  -0.23500
 Alpha  occ. eigenvalues --   -0.18942
 Alpha virt. eigenvalues --   -0.06769  -0.01670   0.02445   0.05064   0.06714
 Alpha virt. eigenvalues --    0.08781   0.10732   0.11267   0.11779   0.12278
 Alpha virt. eigenvalues --    0.12492   0.12838   0.13462   0.13486   0.13615

 Mulliken charges:
               1
     1  O   -0.536730
     2  O   -0.560679
     3  C    0.005618
     4  C   -0.127874
     5  C   -0.159234
     6  C    0.157551
     7  C    0.130936
     8  C   -0.017765
     9  C   -0.306980
    10  C   -0.271063
    11  C   -0.210141
    12  C   -0.165822
    13  C    0.193405
    14  C    0.065288
    15  C   -0.095203
    16  C   -0.216688
    17  C    0.036189
    18  C   -0.293163
    19  C   -0.303135
    20  C   -0.351880
    21  C   -0.065855
    22  C   -0.128349
    23  C   -0.363221
    24  C    0.096125
    25  C   -0.091208
    26  C   -0.388518
    27  C    0.075021
    28  C   -0.111553
    29  C   -0.364551
    30  C   -0.114030
    31  C   -0.079776
    32  C   -0.088783
    33  C   -0.132573
    34  C    0.109162
    35  C   -0.091824
    36  C    0.084529
    37  C   -0.380747
    38  C   -0.101989
    39  C   -0.118985
    40  C   -0.345877
    41  C   -0.086361
    42  C   -0.065887
    43  H    0.090515
    44  H    0.105842
    45  H    0.057293
    46  H    0.065818
    47  H    0.114162
    48  H    0.093269
    49  H    0.102826
    50  H    0.088882
    51  H    0.117026
    52  H    0.063069
    53  H    0.089748
    54  H    0.080636
    55  H    0.067417
    56  H    0.051507
    57  H    0.101620
    58  H    0.121438
    59  H    0.120745
    60  H    0.111976
    61  H    0.071206
    62  H    0.096014
    63  H    0.101885
    64  H    0.108882
    65  H    0.098401
    66  H    0.120765
    67  H    0.107592
    68  H    0.101519
    69  H    0.297060
    70  H    0.087744
    71  H    0.076436
    72  H    0.093231
    73  H    0.124698
    74  H    0.112849
    75  H    0.309743
    76  H    0.078390
    77  H    0.110682
    78  H    0.128634
    79  H    0.114391
    80  H    0.085634
    81  H    0.130894
    82  H    0.109986
    83  H    0.109519
    84  H    0.080884
    85  H    0.097942
    86  H    0.073758
    87  H    0.080324
    88  H    0.081615
    89  H    0.136108
    90  H    0.091224
    91  H    0.105318
    92  H    0.055959
    93  H    0.070815
    94  H    0.087433
    95  H    0.111570
    96  H    0.113285
    97  H    0.083523
    98  H    0.092920
 Sum of Mulliken charges =  -0.00000

 Dipole moment (field-independent basis, Debye):
    X=             -0.2832    Y=              0.5673    Z=             -0.3875  Tot=              0.7431
 Quadrupole moment (field-independent basis, Debye-Ang):
   XX=           -293.3595   YY=           -245.8343   ZZ=           -261.3379
   XY=              3.4244   XZ=             33.3256   YZ=              1.2941

 Normal termination of Gaussian 16 at Sat Jul 13 14:41:51 2019.
