 Gaussian 16, Revision A.03,
 Gaussian 16:  ES64L-G16RevA.03 25-Dec-2016

 -------------------------------------
 # td=(NStates=1) CAM-B3LYP/6-31G(d,p)
 -------------------------------------

 --
 TD
 --
 Symbolic Z-matrix:
 Charge =  0 Multiplicity = 1

                         Standard orientation:
 ---------------------------------------------------------------------
 Center     Atomic      Atomic             Coordinates (Angstroms)
 Number     Number       Type             X           Y           Z
 ---------------------------------------------------------------------
      1          8           0      -14.199011   -1.672006    0.542392
      2          8           0       14.714912    1.139152    0.208073
      3          6           0      -11.800999    0.117274    1.219313
      4          6           0      -10.952100    0.311441   -0.036917
      5          6           0      -12.069060   -1.343042    1.448022
      6          6           0      -12.824567   -1.980086    0.282010
      7          6           0      -11.675483   -0.401150   -1.225740
      8          6           0       11.075206    1.029602    1.061043
      9          6           0      -10.873990    0.614182    2.394286
     10          6           0      -12.998776    1.037492    1.319449
     11          6           0       12.377070    1.611928    0.827095
     12          6           0      -12.444109   -1.477825   -1.028146
     13          6           0       13.396286    0.513890    0.447881
     14          6           0       10.691138   -0.032532   -0.037152
     15          6           0       -9.513890   -0.108950    0.058525
     16          6           0       13.070960    0.003396   -0.795390
     17          6           0       11.643472   -0.451091   -0.927728
     18          6           0       10.065951    2.195805    0.919234
     19          6           0       10.859693    0.338127    2.499533
     20          6           0      -11.236608    0.120739   -2.487920
     21          6           0       -8.557714    0.670970   -0.152296
     22          6           0        9.213510   -0.446496   -0.034274
     23          6           0       11.422551   -1.482094   -2.031720
     24          6           0       -7.100980    0.407685   -0.122700
     25          6           0        8.768410   -1.728491    0.009094
     26          6           0       -6.648682   -0.974564    0.345250
     27          6           0        7.421775   -2.211055   -0.017153
     28          6           0       -6.201379    1.393080   -0.490651
     29          6           0        7.286243   -3.662778    0.179618
     30          6           0        6.435406   -1.268393   -0.144255
     31          6           0       -4.738911    1.279610   -0.468634
     32          6           0        5.042636   -1.513100   -0.258082
     33          6           0       -4.004501    2.381091   -0.728862
     34          6           0       -2.565671    2.459780   -0.783646
     35          6           0        4.052983   -0.628014   -0.257209
     36          6           0        2.635693   -0.858009   -0.150035
     37          6           0       -1.961095    3.744426   -1.046010
     38          6           0       -1.732484    1.335675   -0.483961
     39          6           0        1.793381    0.240934   -0.326279
     40          6           0        2.128213   -2.231851    0.007749
     41          6           0       -0.341470    1.386145   -0.640175
     42          6           0        0.374854    0.228580   -0.349739
     43          1           0      -10.815238    1.464195   -0.226437
     44          1           0      -12.680110   -1.396618    2.241300
     45          1           0      -11.304008   -2.070284    1.940791
     46          1           0      -12.613754   -3.109255    0.439957
     47          1           0      -10.086496   -0.061313    2.697337
     48          1           0      -10.671886    1.668526    2.340224
     49          1           0      -11.579753    0.573267    3.267614
     50          1           0      -13.819549    0.812253    0.420790
     51          1           0      -13.418564    0.857613    2.314209
     52          1           0      -12.866667    2.097725    1.418556
     53          1           0       12.561893    2.450983    0.144490
     54          1           0       12.693643    2.040324    1.583334
     55          1           0      -12.871766   -2.006208   -1.897932
     56          1           0       13.376755   -0.047448    1.395464
     57          1           0       -9.512210   -1.245930    0.128827
     58          1           0       13.917608   -0.987733   -0.932871
     59          1           0       13.277302    0.627413   -1.609343
     60          1           0        9.171327    1.959086    1.305626
     61          1           0        9.937359    2.328053   -0.050764
     62          1           0       10.461724    3.061470    1.521820
     63          1           0       11.727322   -0.412864    2.659802
     64          1           0        9.720615    0.137415    2.538273
     65          1           0       10.851479    1.194260    3.298526
     66          1           0      -10.276173    0.221935   -2.646404
     67          1           0      -11.651088    1.123971   -2.731943
     68          1           0      -11.618303   -0.479031   -3.339916
     69          1           0      -14.794201   -1.714922   -0.390204
     70          1           0        8.633063    0.460836   -0.189482
     71          1           0       -8.797256    1.638190   -0.493897
     72          1           0       11.671320   -2.509807   -1.498391
     73          1           0       10.367834   -1.473302   -2.214009
     74          1           0       12.099804   -1.255418   -2.898879
     75          1           0       15.121248    1.839612    0.943729
     76          1           0        9.409257   -2.580093    0.008745
     77          1           0       -5.590220   -1.031160    0.485656
     78          1           0       -7.017823   -1.238549    1.261229
     79          1           0       -7.023967   -1.948236   -0.226591
     80          1           0       -6.616495    2.396280   -0.898013
     81          1           0        7.047684   -3.708784    1.245774
     82          1           0        6.571650   -4.048716   -0.466184
     83          1           0        8.032504   -4.325686   -0.028350
     84          1           0        6.686777   -0.147544   -0.122510
     85          1           0       -4.194491    0.445853   -0.069001
     86          1           0        4.765832   -2.533281   -0.064061
     87          1           0       -4.519506    3.254109   -1.032662
     88          1           0        4.305635    0.340562   -0.275551
     89          1           0       -1.256855    3.656888   -1.888106
     90          1           0       -1.248087    4.122022   -0.219515
     91          1           0       -2.558394    4.715867   -1.258564
     92          1           0       -2.365947    0.364965   -0.115037
     93          1           0        2.107521    1.223596   -0.580791
     94          1           0        3.015954   -2.945629    0.595505
     95          1           0        1.005156   -2.105580    0.484643
     96          1           0        2.138900   -2.883326   -1.189301
     97          1           0        0.153272    2.335690   -1.056002
     98          1           0       -0.266614   -0.617397   -0.035798
 ---------------------------------------------------------------------

 SCF Done:  E(RCAM-B3LYP) =  -1706.92457635     A.U. after   14 cycles

 Excitation energies and oscillator strengths:

 Excited State   1:      Singlet-A      2.2709 eV  545.97 nm  f=2.7817  <S**2>=0.000
     155 ->158         0.14594
     156 ->157         0.69215
 This state for optimization and/or second-order correction.
 Total Energy, E(TD-HF/TD-DFT) =  -1706.84112173
 Copying the excited state density for this state as the 1-particle RhoCI density.

 The electronic state is 1-A.
 Alpha  occ. eigenvalues --  -19.21690 -19.20624 -10.30536 -10.30376 -10.29288
 Alpha  occ. eigenvalues --  -10.27720 -10.27451 -10.27448 -10.27366 -10.27365
 Alpha  occ. eigenvalues --  -10.27306 -10.26790 -10.26771 -10.26722 -10.26721
 Alpha  occ. eigenvalues --  -10.26606 -10.26466 -10.26400 -10.26294 -10.26233
 Alpha  occ. eigenvalues --  -10.26202 -10.26166 -10.26072 -10.26042 -10.25706
 Alpha  occ. eigenvalues --  -10.25652 -10.25636 -10.25435 -10.25267 -10.25219
 Alpha  occ. eigenvalues --  -10.25130 -10.25024 -10.25019 -10.24530 -10.24517
 Alpha  occ. eigenvalues --  -10.24517 -10.24412 -10.24012 -10.23724 -10.23394
 Alpha  occ. eigenvalues --  -10.22658 -10.21917  -1.07031  -1.05049  -0.93800
 Alpha  occ. eigenvalues --   -0.93473  -0.92391  -0.91875  -0.90857  -0.89983
 Alpha  occ. eigenvalues --   -0.87757  -0.87537  -0.86955  -0.85860  -0.84779
 Alpha  occ. eigenvalues --   -0.83539  -0.82441  -0.81250  -0.80701  -0.77994
 Alpha  occ. eigenvalues --   -0.77135  -0.77061  -0.76523  -0.76315  -0.75509
 Alpha  occ. eigenvalues --   -0.75341  -0.74498  -0.74177  -0.72297  -0.70258
 Alpha  occ. eigenvalues --   -0.69068  -0.67593  -0.66253  -0.65321  -0.63686
 Alpha  occ. eigenvalues --   -0.63132  -0.62736  -0.62654  -0.60622  -0.60276
 Alpha  occ. eigenvalues --   -0.60133  -0.58520  -0.58169  -0.57216  -0.55717
 Alpha  occ. eigenvalues --   -0.55520  -0.54927  -0.54735  -0.53799  -0.53687
 Alpha  occ. eigenvalues --   -0.53283  -0.52933  -0.52390  -0.51602  -0.51210
 Alpha  occ. eigenvalues --   -0.51066  -0.50770  -0.50478  -0.49859  -0.49619
 Alpha  occ. eigenvalues --   -0.49491  -0.48743  -0.47976  -0.47796  -0.47649
 Alpha  occ. eigenvalues --   -0.47108  -0.46859  -0.46774  -0.46286  -0.46242
 Alpha  occ. eigenvalues --   -0.46112  -0.45701  -0.45315  -0.45238  -0.44621
 Alpha  occ. eigenvalues --   -0.44339  -0.44205  -0.44106  -0.44066  -0.43866
 Alpha  occ. eigenvalues --   -0.43291  -0.42776  -0.42670  -0.42135  -0.41976
 Alpha  occ. eigenvalues --   -0.41710  -0.41399  -0.41182  -0.41017  -0.40128
 Alpha  occ. eigenvalues --   -0.40110  -0.39777  -0.39530  -0.39336  -0.39126
 Alpha  occ. eigenvalues --   -0.38882  -0.38667  -0.38539  -0.38286  -0.38102
 Alpha  occ. eigenvalues --   -0.37279  -0.36997  -0.36382  -0.35695  -0.35681
 Alpha  occ. eigenvalues --   -0.35218  -0.34132  -0.33326  -0.31490  -0.31081
 Alpha  occ. eigenvalues --   -0.30537  -0.29703  -0.28428  -0.26979  -0.24057
 Alpha  occ. eigenvalues --   -0.19702
 Alpha virt. eigenvalues --   -0.05445  -0.00428   0.03107   0.05654   0.07209
 Alpha virt. eigenvalues --    0.08385   0.10223   0.10629   0.11032   0.11269
 Alpha virt. eigenvalues --    0.11845   0.12026   0.12368   0.13445   0.13745

 Mulliken charges:
               1
     1  O   -0.554222
     2  O   -0.604205
     3  C    0.025690
     4  C   -0.151146
     5  C   -0.188274
     6  C    0.165893
     7  C    0.142898
     8  C   -0.021690
     9  C   -0.312331
    10  C   -0.281088
    11  C   -0.172269
    12  C   -0.154490
    13  C    0.175846
    14  C    0.019566
    15  C   -0.042129
    16  C   -0.169428
    17  C    0.029159
    18  C   -0.305486
    19  C   -0.300305
    20  C   -0.370359
    21  C   -0.083535
    22  C   -0.128390
    23  C   -0.341530
    24  C    0.109639
    25  C   -0.082208
    26  C   -0.373879
    27  C    0.076761
    28  C   -0.150246
    29  C   -0.376670
    30  C   -0.116866
    31  C   -0.051344
    32  C   -0.085463
    33  C   -0.113568
    34  C    0.108178
    35  C   -0.079762
    36  C    0.122144
    37  C   -0.404569
    38  C   -0.117996
    39  C   -0.119477
    40  C   -0.333461
    41  C   -0.090669
    42  C   -0.084016
    43  H    0.064694
    44  H    0.125474
    45  H    0.084571
    46  H    0.063690
    47  H    0.105506
    48  H    0.102597
    49  H    0.075516
    50  H    0.085488
    51  H    0.102145
    52  H    0.099749
    53  H    0.092552
    54  H    0.077860
    55  H    0.075819
    56  H    0.083941
    57  H    0.081781
    58  H    0.060377
    59  H    0.136163
    60  H    0.099125
    61  H    0.117511
    62  H    0.090108
    63  H    0.104409
    64  H    0.115024
    65  H    0.080603
    66  H    0.136201
    67  H    0.110655
    68  H    0.094329
    69  H    0.298839
    70  H    0.102186
    71  H    0.073779
    72  H    0.104692
    73  H    0.121717
    74  H    0.106677
    75  H    0.297679
    76  H    0.078818
    77  H    0.107062
    78  H    0.131185
    79  H    0.100313
    80  H    0.083333
    81  H    0.139284
    82  H    0.126430
    83  H    0.122129
    84  H    0.077484
    85  H    0.082313
    86  H    0.059958
    87  H    0.077539
    88  H    0.062411
    89  H    0.125195
    90  H    0.119215
    91  H    0.107549
    92  H    0.075694
    93  H    0.084116
    94  H    0.091064
    95  H    0.103128
    96  H    0.078963
    97  H    0.096329
    98  H    0.084330
 Sum of Mulliken charges =  -0.00000

 Dipole moment (field-independent basis, Debye):
    X=             -0.4824    Y=              0.4271    Z=             -0.0331  Tot=              0.6451
 Quadrupole moment (field-independent basis, Debye-Ang):
   XX=           -289.6835   YY=           -240.4970   ZZ=           -261.5010
   XY=              6.3511   XZ=             36.3016   YZ=             -0.1428

 Normal termination of Gaussian 16 at Fri Jul 12 19:20:37 2019.
