 Gaussian 16, Revision A.03,
 Gaussian 16:  ES64L-G16RevA.03 25-Dec-2016

 -------------------------------------
 # td=(NStates=1) CAM-B3LYP/6-31G(d,p)
 -------------------------------------

 --
 TD
 --
 Symbolic Z-matrix:
 Charge =  0 Multiplicity = 1

                         Standard orientation:
 ---------------------------------------------------------------------
 Center     Atomic      Atomic             Coordinates (Angstroms)
 Number     Number       Type             X           Y           Z
 ---------------------------------------------------------------------
      1          8           0      -14.208933   -2.054351    0.410401
      2          8           0       14.953096    0.695704    0.253727
      3          6           0      -11.728259   -0.090432    1.267860
      4          6           0      -11.026673    0.278919    0.087726
      5          6           0      -11.946121   -1.693306    1.251264
      6          6           0      -12.860697   -2.147936    0.066632
      7          6           0      -11.781388   -0.262729   -1.160000
      8          6           0       11.146297    0.921401    0.998211
      9          6           0      -10.916973    0.201771    2.635243
     10          6           0      -13.072474    0.714244    1.399356
     11          6           0       12.535023    1.453528    0.682576
     12          6           0      -12.532595   -1.308298   -1.090631
     13          6           0       13.566174    0.299986    0.345141
     14          6           0       10.770743   -0.105487   -0.071030
     15          6           0       -9.599584   -0.145082    0.088533
     16          6           0       13.125130   -0.263275   -0.987941
     17          6           0       11.690746   -0.540318   -0.896447
     18          6           0       10.328745    2.133011    1.088114
     19          6           0       11.096003    0.218961    2.342188
     20          6           0      -11.440539    0.569981   -2.472242
     21          6           0       -8.583189    0.744448   -0.117078
     22          6           0        9.343493   -0.390399   -0.005449
     23          6           0       11.207564   -1.400856   -2.020330
     24          6           0       -7.151459    0.454687   -0.271489
     25          6           0        8.767457   -1.634648   -0.107896
     26          6           0       -6.672780   -0.990600   -0.245094
     27          6           0        7.379172   -2.033494    0.015636
     28          6           0       -6.254237    1.484928   -0.317563
     29          6           0        7.140208   -3.584273    0.246282
     30          6           0        6.352996   -1.122996   -0.156118
     31          6           0       -4.802491    1.414622   -0.261394
     32          6           0        5.053528   -1.431597   -0.085700
     33          6           0       -4.069534    2.565649   -0.555120
     34          6           0       -2.675590    2.720611   -0.654749
     35          6           0        4.060891   -0.462600   -0.173238
     36          6           0        2.664011   -0.658954   -0.268102
     37          6           0       -1.888922    4.125014   -0.744508
     38          6           0       -1.811053    1.625357   -0.436812
     39          6           0        1.770513    0.500552   -0.260074
     40          6           0        2.167116   -2.184800   -0.209940
     41          6           0       -0.383308    1.535525   -0.416304
     42          6           0        0.312445    0.391621   -0.349789
     43          1           0      -10.950388    1.274120   -0.107397
     44          1           0      -12.508388   -1.859846    2.294959
     45          1           0      -11.033266   -2.386175    1.401430
     46          1           0      -12.365133   -3.276799   -0.290824
     47          1           0      -10.168032   -0.521725    2.590140
     48          1           0      -10.563714    1.214187    2.843802
     49          1           0      -11.497280   -0.086367    3.463049
     50          1           0      -13.877689    0.352999    0.609187
     51          1           0      -13.618623    0.460198    2.345243
     52          1           0      -12.749907    1.838293    1.298635
     53          1           0       12.379376    2.065604   -0.260622
     54          1           0       12.880198    2.010567    1.532456
     55          1           0      -13.037523   -1.503617   -1.988330
     56          1           0       13.294714   -0.550659    0.942578
     57          1           0       -9.145058   -1.243236    0.246173
     58          1           0       13.722041   -1.168232   -1.089487
     59          1           0       13.503276    0.561265   -1.622781
     60          1           0        9.405011    1.908471    1.721975
     61          1           0       10.146739    2.787212    0.180362
     62          1           0       10.569752    2.869024    1.889917
     63          1           0       11.661115   -0.596792    2.389132
     64          1           0       10.081840    0.030392    2.584081
     65          1           0       11.281735    1.055196    3.123891
     66          1           0      -10.386492    0.444625   -2.455604
     67          1           0      -11.854697    1.451102   -2.345783
     68          1           0      -11.917267    0.178230   -3.230121
     69          1           0      -14.865201   -2.102307   -0.272869
     70          1           0        8.596554    0.582921    0.122514
     71          1           0       -8.840719    1.793473   -0.384765
     72          1           0       11.701346   -2.573235   -2.060793
     73          1           0       10.061229   -1.412999   -2.130777
     74          1           0       11.428090   -0.718967   -3.153027
     75          1           0       15.034066    0.977943    1.224299
     76          1           0        9.456544   -2.638559   -0.155767
     77          1           0       -5.480842   -1.361495   -0.633608
     78          1           0       -6.693056   -1.428808    0.755338
     79          1           0       -7.116956   -1.467438   -1.193384
     80          1           0       -6.553205    2.526180   -0.307717
     81          1           0        6.593252   -3.751903    1.157133
     82          1           0        6.497722   -3.992234   -0.667478
     83          1           0        8.153728   -4.026466    0.195124
     84          1           0        6.820934   -0.010327   -0.125464
     85          1           0       -4.410010    0.405154    0.037322
     86          1           0        4.689929   -2.511162    0.035968
     87          1           0       -4.505011    3.502535   -0.687570
     88          1           0        4.311973    0.495029   -0.111125
     89          1           0       -1.258615    4.132924   -1.538626
     90          1           0       -1.536096    4.500979    0.120677
     91          1           0       -2.754953    4.789778   -0.941496
     92          1           0       -2.221747    0.578160   -0.182491
     93          1           0        2.222545    1.498344   -0.302722
     94          1           0        2.291635   -2.517377    0.783000
     95          1           0        1.064062   -2.154119   -0.345965
     96          1           0        2.529034   -2.756627   -1.169834
     97          1           0        0.187640    2.325769   -0.273798
     98          1           0       -0.291859   -0.540423   -0.249524
 ---------------------------------------------------------------------

 SCF Done:  E(RCAM-B3LYP) =  -1706.90919304     A.U. after   15 cycles

 Excitation energies and oscillator strengths:

 Excited State   1:      Singlet-A      2.1387 eV  579.72 nm  f=3.0925  <S**2>=0.000
     155 ->158         0.16067
     156 ->157         0.68891
 This state for optimization and/or second-order correction.
 Total Energy, E(TD-HF/TD-DFT) =  -1706.83059770
 Copying the excited state density for this state as the 1-particle RhoCI density.

 The electronic state is 1-A.
 Alpha  occ. eigenvalues --  -19.22516 -19.22081 -10.32609 -10.29560 -10.28366
 Alpha  occ. eigenvalues --  -10.28025 -10.27915 -10.27827 -10.27731 -10.27617
 Alpha  occ. eigenvalues --  -10.27573 -10.27393 -10.27332 -10.26957 -10.26923
 Alpha  occ. eigenvalues --  -10.26849 -10.26750 -10.26701 -10.26602 -10.26591
 Alpha  occ. eigenvalues --  -10.26506 -10.26362 -10.26348 -10.26234 -10.26213
 Alpha  occ. eigenvalues --  -10.26133 -10.26066 -10.25919 -10.25757 -10.25725
 Alpha  occ. eigenvalues --  -10.25473 -10.25175 -10.25002 -10.24912 -10.24756
 Alpha  occ. eigenvalues --  -10.24745 -10.24660 -10.24656 -10.23798 -10.23102
 Alpha  occ. eigenvalues --  -10.22905 -10.22786  -1.10836  -1.08797  -0.95208
 Alpha  occ. eigenvalues --   -0.94019  -0.91667  -0.91089  -0.90024  -0.88838
 Alpha  occ. eigenvalues --   -0.88441  -0.87352  -0.86122  -0.85233  -0.84444
 Alpha  occ. eigenvalues --   -0.82709  -0.81983  -0.80135  -0.79088  -0.77664
 Alpha  occ. eigenvalues --   -0.77172  -0.76890  -0.76331  -0.76246  -0.75947
 Alpha  occ. eigenvalues --   -0.75181  -0.74201  -0.74026  -0.72521  -0.70279
 Alpha  occ. eigenvalues --   -0.68796  -0.67953  -0.65780  -0.64960  -0.63552
 Alpha  occ. eigenvalues --   -0.63116  -0.62910  -0.62564  -0.60787  -0.59920
 Alpha  occ. eigenvalues --   -0.59645  -0.59073  -0.58457  -0.56986  -0.56356
 Alpha  occ. eigenvalues --   -0.55330  -0.55005  -0.54417  -0.53943  -0.53141
 Alpha  occ. eigenvalues --   -0.53016  -0.52721  -0.52227  -0.51946  -0.51316
 Alpha  occ. eigenvalues --   -0.50902  -0.50664  -0.50587  -0.49999  -0.49966
 Alpha  occ. eigenvalues --   -0.49663  -0.49314  -0.48680  -0.48401  -0.48057
 Alpha  occ. eigenvalues --   -0.47625  -0.47495  -0.46788  -0.46267  -0.45966
 Alpha  occ. eigenvalues --   -0.45415  -0.45155  -0.44915  -0.44683  -0.44580
 Alpha  occ. eigenvalues --   -0.44472  -0.43990  -0.43892  -0.43714  -0.43528
 Alpha  occ. eigenvalues --   -0.42931  -0.42811  -0.42353  -0.41868  -0.41507
 Alpha  occ. eigenvalues --   -0.41303  -0.41273  -0.40877  -0.40808  -0.40457
 Alpha  occ. eigenvalues --   -0.40247  -0.40002  -0.39715  -0.39518  -0.39341
 Alpha  occ. eigenvalues --   -0.38801  -0.38493  -0.38243  -0.37594  -0.37284
 Alpha  occ. eigenvalues --   -0.36937  -0.36931  -0.36371  -0.35785  -0.35326
 Alpha  occ. eigenvalues --   -0.35076  -0.34065  -0.33376  -0.32292  -0.32248
 Alpha  occ. eigenvalues --   -0.31588  -0.29818  -0.29276  -0.27297  -0.23294
 Alpha  occ. eigenvalues --   -0.19387
 Alpha virt. eigenvalues --   -0.05908  -0.01329   0.03336   0.05951   0.08245
 Alpha virt. eigenvalues --    0.09055   0.10743   0.10976   0.11443   0.12025
 Alpha virt. eigenvalues --    0.12538   0.12891   0.13246   0.13597   0.13853

 Mulliken charges:
               1
     1  O   -0.536151
     2  O   -0.555610
     3  C    0.003142
     4  C   -0.074895
     5  C   -0.202432
     6  C    0.182956
     7  C    0.061855
     8  C   -0.016646
     9  C   -0.306180
    10  C   -0.285355
    11  C   -0.177580
    12  C   -0.126591
    13  C    0.126211
    14  C    0.093986
    15  C   -0.086897
    16  C   -0.216121
    17  C    0.063508
    18  C   -0.326207
    19  C   -0.292353
    20  C   -0.333947
    21  C   -0.100100
    22  C   -0.137416
    23  C   -0.335883
    24  C    0.088515
    25  C   -0.100803
    26  C   -0.375042
    27  C    0.061832
    28  C   -0.119200
    29  C   -0.359410
    30  C   -0.078786
    31  C   -0.062948
    32  C   -0.097449
    33  C   -0.103721
    34  C    0.029996
    35  C   -0.083033
    36  C    0.065543
    37  C   -0.358937
    38  C   -0.112791
    39  C   -0.154765
    40  C   -0.372802
    41  C   -0.052536
    42  C   -0.071716
    43  H    0.085624
    44  H    0.091859
    45  H    0.098182
    46  H    0.039732
    47  H    0.104540
    48  H    0.098590
    49  H    0.099979
    50  H    0.096877
    51  H    0.099998
    52  H    0.081243
    53  H    0.093480
    54  H    0.076241
    55  H    0.058611
    56  H    0.084073
    57  H    0.081525
    58  H    0.115499
    59  H    0.126112
    60  H    0.084550
    61  H    0.109494
    62  H    0.101637
    63  H    0.111455
    64  H    0.117011
    65  H    0.078434
    66  H    0.131024
    67  H    0.124473
    68  H    0.107158
    69  H    0.310813
    70  H    0.097842
    71  H    0.077730
    72  H    0.076933
    73  H    0.123224
    74  H    0.050663
    75  H    0.311956
    76  H    0.076493
    77  H    0.067959
    78  H    0.137612
    79  H    0.127199
    80  H    0.077634
    81  H    0.133609
    82  H    0.109269
    83  H    0.107941
    84  H    0.071158
    85  H    0.094679
    86  H    0.093151
    87  H    0.076100
    88  H    0.064524
    89  H    0.136244
    90  H    0.139163
    91  H    0.093610
    92  H    0.063667
    93  H    0.095658
    94  H    0.139938
    95  H    0.104164
    96  H    0.120873
    97  H    0.070722
    98  H    0.088831
 Sum of Mulliken charges =  -0.00000

 Dipole moment (field-independent basis, Debye):
    X=             -1.3660    Y=              0.0864    Z=              0.8926  Tot=              1.6340
 Quadrupole moment (field-independent basis, Debye-Ang):
   XX=           -287.6733   YY=           -244.6033   ZZ=           -263.4831
   XY=              0.8556   XZ=             45.5726   YZ=              2.4403

 Normal termination of Gaussian 16 at Sun Jul 14 13:40:05 2019.
