 Gaussian 16, Revision A.03,
 Gaussian 16:  ES64L-G16RevA.03 25-Dec-2016

 -------------------------------------
 # td=(NStates=1) CAM-B3LYP/6-31G(d,p)
 -------------------------------------

 --
 TD
 --
 Symbolic Z-matrix:
 Charge =  0 Multiplicity = 1

                         Standard orientation:
 ---------------------------------------------------------------------
 Center     Atomic      Atomic             Coordinates (Angstroms)
 Number     Number       Type             X           Y           Z
 ---------------------------------------------------------------------
      1          8           0      -14.040470   -2.182006    0.225365
      2          8           0       14.798385    1.065152    0.148920
      3          6           0      -11.701054   -0.198539    1.311939
      4          6           0      -10.954258    0.451495    0.108887
      5          6           0      -12.011350   -1.703807    1.245210
      6          6           0      -12.583717   -2.076807   -0.094028
      7          6           0      -11.672639   -0.003869   -1.179609
      8          6           0       11.063226    1.018469    1.036380
      9          6           0      -10.870546    0.161171    2.605290
     10          6           0      -12.986505    0.638434    1.470234
     11          6           0       12.463156    1.633479    0.710937
     12          6           0      -12.336854   -1.238174   -1.155301
     13          6           0       13.482505    0.495359    0.384692
     14          6           0       10.639308   -0.042857   -0.034735
     15          6           0       -9.513079   -0.017357    0.053296
     16          6           0       12.957737   -0.134589   -0.936367
     17          6           0       11.508327   -0.399818   -0.982808
     18          6           0       10.060475    2.195258    1.275750
     19          6           0       10.972026    0.228435    2.331115
     20          6           0      -11.368111    0.714390   -2.441291
     21          6           0       -8.568605    0.926062   -0.051509
     22          6           0        9.247200   -0.489178    0.026630
     23          6           0       11.132798   -1.367835   -2.159870
     24          6           0       -7.119915    0.570030   -0.133396
     25          6           0        8.857731   -1.754358   -0.117578
     26          6           0       -6.726012   -0.860733   -0.101212
     27          6           0        7.392160   -2.198968   -0.130859
     28          6           0       -6.188404    1.548974   -0.302614
     29          6           0        7.135925   -3.704208    0.039795
     30          6           0        6.341857   -1.366169   -0.221424
     31          6           0       -4.714726    1.399653   -0.298831
     32          6           0        4.945523   -1.598053    0.016869
     33          6           0       -3.943270    2.448941   -0.552248
     34          6           0       -2.494862    2.600189   -0.644925
     35          6           0        3.972789   -0.636780   -0.167778
     36          6           0        2.580807   -0.874910   -0.187316
     37          6           0       -1.902097    3.925365   -0.876705
     38          6           0       -1.739976    1.535935   -0.363242
     39          6           0        1.815107    0.231955   -0.410460
     40          6           0        2.125939   -2.244420    0.174237
     41          6           0       -0.362343    1.477187   -0.468388
     42          6           0        0.389445    0.404178   -0.294046
     43          1           0      -11.220543    1.358578    0.438399
     44          1           0      -12.543357   -2.029317    2.325055
     45          1           0      -10.931709   -2.036047    1.203768
     46          1           0      -12.301670   -3.035576   -0.194453
     47          1           0      -10.017856   -0.470884    2.661413
     48          1           0      -10.557877    1.184377    2.721393
     49          1           0      -11.448953   -0.275268    3.596716
     50          1           0      -13.767803    0.546478    0.452329
     51          1           0      -13.399554    0.396652    2.445468
     52          1           0      -12.686061    1.628512    1.631808
     53          1           0       12.258442    2.227553   -0.247448
     54          1           0       12.782361    2.052414    1.622596
     55          1           0      -12.809242   -1.486218   -2.152493
     56          1           0       13.485610   -0.271332    1.192480
     57          1           0       -9.310792   -0.991753    0.169250
     58          1           0       13.592255   -0.913926   -1.047666
     59          1           0       13.245288    0.484092   -1.813453
     60          1           0        8.959756    1.959799    1.456772
     61          1           0       10.058452    2.860896    0.372479
     62          1           0       10.527982    2.945585    2.031494
     63          1           0       11.537340   -0.698103    2.343996
     64          1           0        9.918893   -0.151344    2.331021
     65          1           0       11.560015    0.789009    3.192296
     66          1           0      -10.369584    1.096029   -2.608008
     67          1           0      -11.991365    1.787734   -2.369920
     68          1           0      -12.002908    0.163174   -3.219740
     69          1           0      -14.500676   -2.359952   -0.728151
     70          1           0        8.332049    0.056032    0.383438
     71          1           0       -8.618491    1.995785   -0.415219
     72          1           0       11.494308   -2.320403   -1.707550
     73          1           0       10.077142   -1.383837   -2.351850
     74          1           0       11.844204   -1.222722   -3.010559
     75          1           0       15.063100    1.282830    1.006435
     76          1           0        9.582570   -2.472887   -0.239327
     77          1           0       -5.654788   -1.085479   -0.716313
     78          1           0       -6.742295   -1.428234    0.842457
     79          1           0       -7.616295   -1.488093   -0.767714
     80          1           0       -6.483902    2.528083   -0.238936
     81          1           0        6.707782   -4.022576    1.032311
     82          1           0        6.379852   -4.038120   -0.762801
     83          1           0        8.049449   -4.361899   -0.424679
     84          1           0        6.655209   -0.337847   -0.237523
     85          1           0       -4.263596    0.452623   -0.213585
     86          1           0        4.575390   -2.546633    0.304157
     87          1           0       -4.595447    3.228324   -0.721148
     88          1           0        4.162819    0.395153   -0.318854
     89          1           0       -1.093982    3.609150   -1.630404
     90          1           0       -1.479443    4.289414   -0.032019
     91          1           0       -2.679801    4.776559   -1.083987
     92          1           0       -2.350676    0.589711   -0.008152
     93          1           0        2.378131    1.117542   -0.588343
     94          1           0        1.930352   -2.211816    1.389278
     95          1           0        1.038900   -2.334459   -0.464200
     96          1           0        3.052564   -3.039405   -0.156676
     97          1           0        0.313145    2.456754   -0.466040
     98          1           0       -0.142306   -0.471057   -0.112221
 ---------------------------------------------------------------------

 SCF Done:  E(RCAM-B3LYP) =  -1706.93301315     A.U. after   14 cycles

 Excitation energies and oscillator strengths:

 Excited State   1:      Singlet-A      2.6478 eV  468.25 nm  f=2.9294  <S**2>=0.000
     155 ->158         0.16934
     156 ->157         0.68193
 This state for optimization and/or second-order correction.
 Total Energy, E(TD-HF/TD-DFT) =  -1706.83570853
 Copying the excited state density for this state as the 1-particle RhoCI density.

 The electronic state is 1-A.
 Alpha  occ. eigenvalues --  -19.21207 -19.20751 -10.30979 -10.29882 -10.29004
 Alpha  occ. eigenvalues --  -10.28375 -10.28223 -10.27514 -10.27458 -10.27312
 Alpha  occ. eigenvalues --  -10.27238 -10.27175 -10.27051 -10.27024 -10.26788
 Alpha  occ. eigenvalues --  -10.26755 -10.26728 -10.26355 -10.26314 -10.26212
 Alpha  occ. eigenvalues --  -10.26128 -10.26058 -10.26031 -10.25933 -10.25929
 Alpha  occ. eigenvalues --  -10.25915 -10.25882 -10.25849 -10.25835 -10.25753
 Alpha  occ. eigenvalues --  -10.25684 -10.25625 -10.25590 -10.25474 -10.25403
 Alpha  occ. eigenvalues --  -10.25355 -10.25255 -10.25144 -10.24891 -10.24873
 Alpha  occ. eigenvalues --  -10.24607 -10.23856  -1.09853  -1.05587  -0.94031
 Alpha  occ. eigenvalues --   -0.93603  -0.93217  -0.92361  -0.90716  -0.90010
 Alpha  occ. eigenvalues --   -0.87947  -0.86882  -0.86630  -0.86147  -0.85338
 Alpha  occ. eigenvalues --   -0.84017  -0.82182  -0.81210  -0.79976  -0.78086
 Alpha  occ. eigenvalues --   -0.76331  -0.75972  -0.75930  -0.75655  -0.75345
 Alpha  occ. eigenvalues --   -0.74931  -0.74751  -0.74360  -0.73969  -0.70450
 Alpha  occ. eigenvalues --   -0.68746  -0.68253  -0.67149  -0.65235  -0.64632
 Alpha  occ. eigenvalues --   -0.63267  -0.62562  -0.62383  -0.60729  -0.59794
 Alpha  occ. eigenvalues --   -0.59664  -0.58665  -0.57732  -0.56731  -0.56513
 Alpha  occ. eigenvalues --   -0.56243  -0.55653  -0.55346  -0.54880  -0.53576
 Alpha  occ. eigenvalues --   -0.53519  -0.53239  -0.52673  -0.52483  -0.51687
 Alpha  occ. eigenvalues --   -0.51155  -0.50053  -0.49720  -0.49027  -0.48898
 Alpha  occ. eigenvalues --   -0.48831  -0.48445  -0.48210  -0.48128  -0.47692
 Alpha  occ. eigenvalues --   -0.47576  -0.47294  -0.47007  -0.46768  -0.46353
 Alpha  occ. eigenvalues --   -0.46016  -0.45714  -0.45485  -0.45403  -0.44876
 Alpha  occ. eigenvalues --   -0.44633  -0.44193  -0.43728  -0.43495  -0.42857
 Alpha  occ. eigenvalues --   -0.42733  -0.42386  -0.42285  -0.42003  -0.41836
 Alpha  occ. eigenvalues --   -0.41790  -0.41573  -0.41348  -0.41099  -0.41038
 Alpha  occ. eigenvalues --   -0.40614  -0.40551  -0.40067  -0.39542  -0.39154
 Alpha  occ. eigenvalues --   -0.38640  -0.38347  -0.38107  -0.38022  -0.37804
 Alpha  occ. eigenvalues --   -0.37595  -0.37266  -0.36826  -0.35804  -0.35541
 Alpha  occ. eigenvalues --   -0.34875  -0.34733  -0.34096  -0.32422  -0.32040
 Alpha  occ. eigenvalues --   -0.31902  -0.29541  -0.28467  -0.27057  -0.24584
 Alpha  occ. eigenvalues --   -0.21115
 Alpha virt. eigenvalues --   -0.04812  -0.00504   0.02572   0.04389   0.06452
 Alpha virt. eigenvalues --    0.09122   0.10837   0.11058   0.11427   0.12004
 Alpha virt. eigenvalues --    0.12433   0.12575   0.12780   0.13611   0.13727

 Mulliken charges:
               1
     1  O   -0.564317
     2  O   -0.547174
     3  C   -0.032581
     4  C   -0.097378
     5  C   -0.165123
     6  C    0.161304
     7  C    0.118141
     8  C   -0.033446
     9  C   -0.306216
    10  C   -0.273409
    11  C   -0.176791
    12  C   -0.128790
    13  C    0.130699
    14  C    0.077442
    15  C   -0.079122
    16  C   -0.234052
    17  C    0.034813
    18  C   -0.296648
    19  C   -0.285971
    20  C   -0.354904
    21  C   -0.074134
    22  C   -0.129021
    23  C   -0.358065
    24  C    0.125077
    25  C   -0.083737
    26  C   -0.369756
    27  C    0.073400
    28  C   -0.155794
    29  C   -0.377359
    30  C   -0.106509
    31  C   -0.044647
    32  C   -0.113124
    33  C   -0.118440
    34  C    0.103389
    35  C   -0.081518
    36  C    0.144830
    37  C   -0.366555
    38  C   -0.111492
    39  C   -0.141525
    40  C   -0.348446
    41  C   -0.087466
    42  C   -0.081878
    43  H    0.092746
    44  H    0.106352
    45  H    0.074269
    46  H    0.103962
    47  H    0.103712
    48  H    0.109052
    49  H    0.067322
    50  H    0.086659
    51  H    0.096192
    52  H    0.092405
    53  H    0.109613
    54  H    0.079712
    55  H    0.063234
    56  H    0.086003
    57  H    0.095760
    58  H    0.120430
    59  H    0.119676
    60  H    0.101786
    61  H    0.092637
    62  H    0.094292
    63  H    0.094039
    64  H    0.113368
    65  H    0.075335
    66  H    0.141394
    67  H    0.081460
    68  H    0.109755
    69  H    0.286140
    70  H    0.086737
    71  H    0.087342
    72  H    0.116502
    73  H    0.131414
    74  H    0.104255
    75  H    0.301314
    76  H    0.080360
    77  H    0.095182
    78  H    0.131604
    79  H    0.073601
    80  H    0.077103
    81  H    0.127182
    82  H    0.110596
    83  H    0.090146
    84  H    0.070121
    85  H    0.070102
    86  H    0.080676
    87  H    0.063725
    88  H    0.078428
    89  H    0.125070
    90  H    0.144789
    91  H    0.099611
    92  H    0.081855
    93  H    0.072342
    94  H    0.118989
    95  H    0.096160
    96  H    0.099723
    97  H    0.078339
    98  H    0.065719
 Sum of Mulliken charges =  -0.00000

 Dipole moment (field-independent basis, Debye):
    X=              0.8218    Y=             -0.0657    Z=              0.0725  Tot=              0.8276
 Quadrupole moment (field-independent basis, Debye-Ang):
   XX=           -296.7059   YY=           -248.5137   ZZ=           -262.3334
   XY=            -11.2126   XZ=             38.8088   YZ=              3.4665

 Normal termination of Gaussian 16 at Mon Jul 15 22:36:08 2019.
