 Gaussian 16, Revision A.03,
 Gaussian 16:  ES64L-G16RevA.03 25-Dec-2016

 -------------------------------------
 # td=(NStates=1) CAM-B3LYP/6-31G(d,p)
 -------------------------------------

 --
 TD
 --
 Symbolic Z-matrix:
 Charge =  0 Multiplicity = 1

                         Standard orientation:
 ---------------------------------------------------------------------
 Center     Atomic      Atomic             Coordinates (Angstroms)
 Number     Number       Type             X           Y           Z
 ---------------------------------------------------------------------
      1          8           0      -14.219424   -1.968195    0.259373
      2          8           0       14.826183    0.858776    0.084013
      3          6           0      -11.799096    0.089135    1.204100
      4          6           0      -11.031567    0.321031   -0.090231
      5          6           0      -12.047065   -1.403139    1.312875
      6          6           0      -12.838825   -2.135392    0.059828
      7          6           0      -11.568673   -0.426230   -1.315593
      8          6           0       11.094459    1.166374    0.830771
      9          6           0      -11.159701    0.518164    2.498340
     10          6           0      -13.165322    0.817158    1.071905
     11          6           0       12.503075    1.553020    0.616299
     12          6           0      -12.350994   -1.507634   -1.241022
     13          6           0       13.518349    0.446284    0.238229
     14          6           0       10.686823   -0.029737   -0.156150
     15          6           0       -9.493726   -0.045368    0.020207
     16          6           0       13.029144   -0.314096   -0.935823
     17          6           0       11.513511   -0.556216   -0.999461
     18          6           0       10.056734    2.317359    0.879638
     19          6           0       11.001328    0.453331    2.263788
     20          6           0      -11.148464    0.189125   -2.665589
     21          6           0       -8.556791    0.880806   -0.073121
     22          6           0        9.270098   -0.369715   -0.049101
     23          6           0       11.139413   -1.650093   -2.060983
     24          6           0       -7.150494    0.534455   -0.053368
     25          6           0        8.867947   -1.685847   -0.144581
     26          6           0       -6.837933   -0.909531    0.372222
     27          6           0        7.495295   -2.066130   -0.074141
     28          6           0       -6.215403    1.497051   -0.399861
     29          6           0        7.189343   -3.512464    0.416976
     30          6           0        6.424010   -1.212926   -0.145740
     31          6           0       -4.783341    1.361011   -0.365512
     32          6           0        5.086714   -1.564521    0.011003
     33          6           0       -3.875478    2.451757   -0.593089
     34          6           0       -2.495458    2.608498   -0.523880
     35          6           0        4.037612   -0.671072   -0.304175
     36          6           0        2.571198   -0.812230    0.022537
     37          6           0       -1.756679    3.865262   -0.763926
     38          6           0       -1.763478    1.508010   -0.236528
     39          6           0        1.717952    0.263013   -0.265728
     40          6           0        2.146259   -2.122262    0.598525
     41          6           0       -0.416250    1.389384   -0.356339
     42          6           0        0.413707    0.266960   -0.159851
     43          1           0      -10.977629    1.434980   -0.099888
     44          1           0      -12.382146   -1.712099    2.364571
     45          1           0      -10.928479   -1.771554    1.346394
     46          1           0      -12.474347   -3.149579    0.241969
     47          1           0      -10.130571    0.142185    2.386218
     48          1           0      -11.203518    1.650120    2.378682
     49          1           0      -11.623326    0.146340    3.331565
     50          1           0      -13.704108    0.560748    0.303172
     51          1           0      -13.656975    0.373261    2.074888
     52          1           0      -13.009710    1.995757    1.337890
     53          1           0       12.524394    2.195251   -0.214468
     54          1           0       12.878891    2.177785    1.501267
     55          1           0      -12.639512   -1.861244   -2.263693
     56          1           0       13.440487   -0.161343    1.223283
     57          1           0       -9.379409   -1.171116    0.170517
     58          1           0       13.554783   -1.234729   -0.716327
     59          1           0       13.367548    0.336230   -1.770921
     60          1           0        9.039758    1.902550    1.255353
     61          1           0       10.123351    2.673846   -0.229818
     62          1           0       10.478382    3.034835    1.519229
     63          1           0       11.693956   -0.395910    2.405660
     64          1           0       10.189041   -0.165513    2.453206
     65          1           0       11.417328    1.145789    3.045728
     66          1           0      -10.038396    0.232744   -2.801768
     67          1           0      -11.750074    1.338173   -3.013625
     68          1           0      -11.358128   -0.482454   -3.508145
     69          1           0      -14.726624   -1.927931   -0.533258
     70          1           0        8.583127    0.697096   -0.042643
     71          1           0       -8.718192    2.063622   -0.111478
     72          1           0       11.479552   -2.518735   -1.763092
     73          1           0       10.160697   -1.458153   -2.380179
     74          1           0       11.756192   -1.540399   -2.985603
     75          1           0       15.149518    1.249912    0.728809
     76          1           0        9.630480   -2.506884   -0.078949
     77          1           0       -5.623297   -1.072956    0.516882
     78          1           0       -7.206674   -1.142601    1.349554
     79          1           0       -7.234578   -1.708287   -0.398556
     80          1           0       -6.550574    2.489079   -0.684797
     81          1           0        7.333625   -3.483944    1.724269
     82          1           0        6.171432   -3.867073   -0.000869
     83          1           0        8.022716   -4.185049    0.119687
     84          1           0        6.606136   -0.211438   -0.441044
     85          1           0       -4.428627    0.490235    0.155493
     86          1           0        4.803561   -2.685610    0.245553
     87          1           0       -4.550607    3.249046   -1.025124
     88          1           0        4.056141    0.431758   -0.991873
     89          1           0       -1.004263    3.746798   -1.575766
     90          1           0       -1.126941    4.216967    0.027752
     91          1           0       -2.644690    4.576892   -1.227483
     92          1           0       -2.269420    0.292333    0.115521
     93          1           0        2.201207    1.031935   -0.770193
     94          1           0        2.443799   -2.024957    1.642244
     95          1           0        1.170840   -2.250962    0.672195
     96          1           0        2.493810   -3.100007   -0.070935
     97          1           0        0.113786    2.336061   -0.614493
     98          1           0       -0.247178   -0.561949    0.269651
 ---------------------------------------------------------------------

 SCF Done:  E(RCAM-B3LYP) =  -1706.86498285     A.U. after   15 cycles

 Excitation energies and oscillator strengths:

 Excited State   1:      Singlet-A      1.9339 eV  641.11 nm  f=3.0462  <S**2>=0.000
     155 ->158         0.13726
     156 ->157         0.69857
     156 <-157        -0.11015
 This state for optimization and/or second-order correction.
 Total Energy, E(TD-HF/TD-DFT) =  -1706.79391332
 Copying the excited state density for this state as the 1-particle RhoCI density.

 The electronic state is 1-A.
 Alpha  occ. eigenvalues --  -19.21369 -19.20517 -10.32069 -10.30615 -10.28947
 Alpha  occ. eigenvalues --  -10.28333 -10.28232 -10.27967 -10.27873 -10.27732
 Alpha  occ. eigenvalues --  -10.27694 -10.27693 -10.27366 -10.27338 -10.27325
 Alpha  occ. eigenvalues --  -10.27185 -10.27079 -10.27009 -10.26975 -10.26939
 Alpha  occ. eigenvalues --  -10.26639 -10.26462 -10.26333 -10.26314 -10.26303
 Alpha  occ. eigenvalues --  -10.26282 -10.26272 -10.26242 -10.26166 -10.25943
 Alpha  occ. eigenvalues --  -10.25738 -10.25730 -10.25295 -10.25281 -10.25245
 Alpha  occ. eigenvalues --  -10.25186 -10.25091 -10.24399 -10.23871 -10.23781
 Alpha  occ. eigenvalues --  -10.23764 -10.23397  -1.14001  -1.10263  -0.93821
 Alpha  occ. eigenvalues --   -0.93274  -0.92816  -0.91455  -0.90647  -0.90046
 Alpha  occ. eigenvalues --   -0.87200  -0.86901  -0.86700  -0.85755  -0.84623
 Alpha  occ. eigenvalues --   -0.82835  -0.81511  -0.79830  -0.79441  -0.78949
 Alpha  occ. eigenvalues --   -0.76635  -0.76321  -0.76227  -0.75957  -0.75707
 Alpha  occ. eigenvalues --   -0.75352  -0.74587  -0.74001  -0.72632  -0.70820
 Alpha  occ. eigenvalues --   -0.69731  -0.68603  -0.66557  -0.65297  -0.63614
 Alpha  occ. eigenvalues --   -0.62671  -0.62193  -0.61611  -0.60239  -0.60011
 Alpha  occ. eigenvalues --   -0.58873  -0.58758  -0.58183  -0.57486  -0.56533
 Alpha  occ. eigenvalues --   -0.55931  -0.55169  -0.54399  -0.53960  -0.53828
 Alpha  occ. eigenvalues --   -0.53229  -0.52815  -0.52384  -0.52063  -0.51663
 Alpha  occ. eigenvalues --   -0.50939  -0.50881  -0.50004  -0.49601  -0.49529
 Alpha  occ. eigenvalues --   -0.48987  -0.48613  -0.48537  -0.48239  -0.47760
 Alpha  occ. eigenvalues --   -0.47727  -0.47559  -0.46476  -0.46349  -0.45744
 Alpha  occ. eigenvalues --   -0.45614  -0.45485  -0.44961  -0.44664  -0.44361
 Alpha  occ. eigenvalues --   -0.44254  -0.43991  -0.43643  -0.43504  -0.43136
 Alpha  occ. eigenvalues --   -0.42974  -0.42671  -0.42487  -0.42285  -0.41853
 Alpha  occ. eigenvalues --   -0.41680  -0.41413  -0.40772  -0.40436  -0.40383
 Alpha  occ. eigenvalues --   -0.40276  -0.39892  -0.39535  -0.39088  -0.38754
 Alpha  occ. eigenvalues --   -0.38333  -0.38301  -0.38103  -0.37807  -0.37368
 Alpha  occ. eigenvalues --   -0.37124  -0.36805  -0.36569  -0.36125  -0.35339
 Alpha  occ. eigenvalues --   -0.34797  -0.34307  -0.33983  -0.32118  -0.31622
 Alpha  occ. eigenvalues --   -0.31262  -0.30104  -0.29605  -0.27188  -0.23707
 Alpha  occ. eigenvalues --   -0.18727
 Alpha virt. eigenvalues --   -0.06666  -0.01083   0.02761   0.05268   0.07025
 Alpha virt. eigenvalues --    0.09387   0.09810   0.10482   0.11540   0.11641
 Alpha virt. eigenvalues --    0.12297   0.12702   0.12959   0.13308   0.13319

 Mulliken charges:
               1
     1  O   -0.534570
     2  O   -0.505348
     3  C   -0.000913
     4  C   -0.125129
     5  C   -0.187015
     6  C    0.162142
     7  C    0.140514
     8  C   -0.000769
     9  C   -0.282189
    10  C   -0.246688
    11  C   -0.202265
    12  C   -0.172058
    13  C    0.160741
    14  C    0.076454
    15  C   -0.115236
    16  C   -0.209558
    17  C   -0.001179
    18  C   -0.296028
    19  C   -0.319076
    20  C   -0.341327
    21  C   -0.083101
    22  C   -0.113339
    23  C   -0.352432
    24  C    0.111340
    25  C   -0.120662
    26  C   -0.364073
    27  C    0.068437
    28  C   -0.133638
    29  C   -0.340379
    30  C   -0.063804
    31  C   -0.063532
    32  C   -0.115818
    33  C   -0.142484
    34  C    0.116214
    35  C   -0.124047
    36  C    0.090507
    37  C   -0.378190
    38  C   -0.078003
    39  C   -0.106337
    40  C   -0.355315
    41  C   -0.092957
    42  C   -0.072006
    43  H    0.086540
    44  H    0.090097
    45  H    0.058655
    46  H    0.096254
    47  H    0.100357
    48  H    0.085242
    49  H    0.112622
    50  H    0.105784
    51  H    0.076378
    52  H    0.061177
    53  H    0.090690
    54  H    0.064030
    55  H    0.079632
    56  H    0.052144
    57  H    0.102438
    58  H    0.121141
    59  H    0.119377
    60  H    0.112353
    61  H    0.095858
    62  H    0.114345
    63  H    0.090802
    64  H    0.113595
    65  H    0.088147
    66  H    0.127509
    67  H    0.075545
    68  H    0.105579
    69  H    0.308232
    70  H    0.096379
    71  H    0.088208
    72  H    0.126081
    73  H    0.131620
    74  H    0.094117
    75  H    0.273489
    76  H    0.102211
    77  H    0.080567
    78  H    0.132696
    79  H    0.113996
    80  H    0.077913
    81  H    0.086213
    82  H    0.111073
    83  H    0.107800
    84  H    0.079242
    85  H    0.075460
    86  H    0.094639
    87  H    0.065994
    88  H    0.061755
    89  H    0.127641
    90  H    0.142007
    91  H    0.092620
    92  H    0.041449
    93  H    0.079540
    94  H    0.134805
    95  H    0.119145
    96  H    0.099278
    97  H    0.065374
    98  H    0.077282
 Sum of Mulliken charges =  -0.00000

 Dipole moment (field-independent basis, Debye):
    X=              1.8515    Y=             -0.6076    Z=             -0.3068  Tot=              1.9726
 Quadrupole moment (field-independent basis, Debye-Ang):
   XX=           -269.5138   YY=           -247.4968   ZZ=           -261.7834
   XY=              5.3884   XZ=             36.0121   YZ=              0.1779

 Normal termination of Gaussian 16 at Mon Jul 15 15:27:59 2019.
