 Gaussian 16, Revision A.03,
 Gaussian 16:  ES64L-G16RevA.03 25-Dec-2016

 -------------------------------------
 # td=(NStates=1) CAM-B3LYP/6-31G(d,p)
 -------------------------------------

 --
 TD
 --
 Symbolic Z-matrix:
 Charge =  0 Multiplicity = 1

                         Standard orientation:
 ---------------------------------------------------------------------
 Center     Atomic      Atomic             Coordinates (Angstroms)
 Number     Number       Type             X           Y           Z
 ---------------------------------------------------------------------
      1          8           0      -14.274332   -2.075319    0.373706
      2          8           0       14.812662    0.772238    0.078489
      3          6           0      -11.635091   -0.112836    1.425334
      4          6           0      -11.063653    0.304166    0.194358
      5          6           0      -11.989908   -1.627599    1.245285
      6          6           0      -12.842024   -1.936482    0.027935
      7          6           0      -11.788320   -0.102817   -1.156309
      8          6           0       11.317311    0.811416    1.283054
      9          6           0      -10.835092    0.132411    2.702006
     10          6           0      -13.009863    0.676164    1.629869
     11          6           0       12.722533    1.273159    1.052385
     12          6           0      -12.581582   -1.173684   -1.214021
     13          6           0       13.569180    0.238707    0.299998
     14          6           0       10.745377    0.029571    0.013925
     15          6           0       -9.492076   -0.134304    0.033992
     16          6           0       12.993672   -0.158099   -0.967109
     17          6           0       11.563372   -0.324982   -1.020856
     18          6           0       10.410043    2.051513    1.516881
     19          6           0       11.201818   -0.070597    2.563407
     20          6           0      -11.384677    0.662479   -2.388535
     21          6           0       -8.563197    0.709260   -0.117266
     22          6           0        9.292918   -0.314134    0.108065
     23          6           0       11.188533   -1.096085   -2.291763
     24          6           0       -7.175861    0.395838   -0.087308
     25          6           0        8.818897   -1.607926   -0.119321
     26          6           0       -6.665479   -1.113941   -0.067493
     27          6           0        7.483279   -2.014542   -0.200313
     28          6           0       -6.181540    1.395698   -0.390899
     29          6           0        7.172331   -3.446570   -0.099069
     30          6           0        6.359242   -1.149662   -0.255062
     31          6           0       -4.759885    1.430548   -0.370292
     32          6           0        5.052863   -1.451820   -0.223033
     33          6           0       -4.051426    2.546850   -0.583799
     34          6           0       -2.637975    2.635078   -0.589237
     35          6           0        4.008646   -0.519727   -0.350244
     36          6           0        2.613662   -0.675111   -0.260086
     37          6           0       -2.086988    3.964351   -0.986202
     38          6           0       -1.886931    1.440211   -0.464808
     39          6           0        1.761208    0.384937   -0.371903
     40          6           0        2.131175   -2.102618   -0.112217
     41          6           0       -0.470493    1.505924   -0.428369
     42          6           0        0.305055    0.385535   -0.392220
     43          1           0      -10.925206    1.484008    0.080333
     44          1           0      -12.466381   -1.899040    2.220922
     45          1           0      -11.103246   -2.298891    1.092151
     46          1           0      -12.726249   -2.997394   -0.280480
     47          1           0       -9.770714   -0.447737    2.518567
     48          1           0      -10.770470    1.088691    2.830104
     49          1           0      -11.344459   -0.213513    3.661487
     50          1           0      -13.813647    0.574247    0.901490
     51          1           0      -13.623965    0.218655    2.449384
     52          1           0      -13.052248    1.774494    1.611034
     53          1           0       12.497404    2.229127    0.371489
     54          1           0       13.084853    1.622470    2.035507
     55          1           0      -12.595212   -1.367025   -2.322193
     56          1           0       13.542935   -0.714704    1.101560
     57          1           0       -9.380967   -1.231266    0.003487
     58          1           0       13.630553   -0.976553   -1.406530
     59          1           0       13.123230    0.687905   -1.482938
     60          1           0        9.222440    2.045461    1.731984
     61          1           0       10.602777    2.786334    0.535712
     62          1           0       10.764478    2.615309    2.443228
     63          1           0       11.775737   -0.817305    2.650869
     64          1           0       10.193358   -0.513724    2.637434
     65          1           0       11.514113    0.638482    3.596904
     66          1           0      -10.349598    0.414771   -2.673934
     67          1           0      -11.544780    1.790191   -2.471990
     68          1           0      -12.027866    0.065377   -3.269504
     69          1           0      -14.724158   -2.230955   -0.462830
     70          1           0        8.534357    0.493714    0.400711
     71          1           0       -8.726958    1.793277   -0.058982
     72          1           0       11.054671   -2.135181   -2.241370
     73          1           0       10.064647   -0.903911   -2.453750
     74          1           0       11.665818   -0.557061   -3.354218
     75          1           0       15.012184    1.285149    0.824336
     76          1           0        9.376794   -2.437535   -0.271310
     77          1           0       -5.681074   -1.381223   -0.170916
     78          1           0       -6.883495   -1.378779    0.993767
     79          1           0       -7.291361   -1.629228   -0.837723
     80          1           0       -6.721046    2.263315   -0.413054
     81          1           0        6.143937   -3.869820    0.656711
     82          1           0        6.773048   -3.795556   -1.214685
     83          1           0        8.215274   -3.990890    0.218784
     84          1           0        6.491805   -0.076481   -0.322730
     85          1           0       -4.142245    0.543548    0.061882
     86          1           0        4.776969   -2.428629   -0.099273
     87          1           0       -4.711373    3.594907   -0.808498
     88          1           0        4.449644    0.520325   -0.481097
     89          1           0       -1.280140    3.871035   -1.828398
     90          1           0       -1.496162    4.309147   -0.149944
     91          1           0       -2.931774    4.641279   -1.248551
     92          1           0       -2.438447    0.527594   -0.088363
     93          1           0        2.162532    1.327671   -0.700555
     94          1           0        2.370041   -2.528615    0.794423
     95          1           0        1.125005   -2.225436   -0.315804
     96          1           0        2.529831   -2.721173   -0.954892
     97          1           0       -0.040458    2.521460   -0.665913
     98          1           0       -0.095699   -0.577345   -0.523953
 ---------------------------------------------------------------------

 SCF Done:  E(RCAM-B3LYP) =  -1706.89688123     A.U. after   15 cycles

 Excitation energies and oscillator strengths:

 Excited State   1:      Singlet-A      2.0793 eV  596.27 nm  f=3.0169  <S**2>=0.000
     155 ->158        -0.16897
     156 ->157         0.68664
 This state for optimization and/or second-order correction.
 Total Energy, E(TD-HF/TD-DFT) =  -1706.82046771
 Copying the excited state density for this state as the 1-particle RhoCI density.

 The electronic state is 1-A.
 Alpha  occ. eigenvalues --  -19.21389 -19.19680 -10.31150 -10.30976 -10.29621
 Alpha  occ. eigenvalues --  -10.28199 -10.28046 -10.27761 -10.27707 -10.27541
 Alpha  occ. eigenvalues --  -10.27531 -10.27439 -10.27429 -10.27353 -10.27272
 Alpha  occ. eigenvalues --  -10.27162 -10.27113 -10.27008 -10.26921 -10.26734
 Alpha  occ. eigenvalues --  -10.26706 -10.26674 -10.26628 -10.26620 -10.26586
 Alpha  occ. eigenvalues --  -10.26225 -10.26207 -10.26169 -10.26102 -10.25913
 Alpha  occ. eigenvalues --  -10.25911 -10.25670 -10.25611 -10.25594 -10.25289
 Alpha  occ. eigenvalues --  -10.25019 -10.24829 -10.24820 -10.24745 -10.24498
 Alpha  occ. eigenvalues --  -10.23782 -10.23495  -1.12581  -1.07121  -0.94104
 Alpha  occ. eigenvalues --   -0.93723  -0.92489  -0.92048  -0.90822  -0.90385
 Alpha  occ. eigenvalues --   -0.87727  -0.87613  -0.87467  -0.85916  -0.84649
 Alpha  occ. eigenvalues --   -0.83148  -0.82519  -0.80650  -0.79288  -0.78798
 Alpha  occ. eigenvalues --   -0.76896  -0.76481  -0.76413  -0.76164  -0.75389
 Alpha  occ. eigenvalues --   -0.75262  -0.75149  -0.74529  -0.72840  -0.70275
 Alpha  occ. eigenvalues --   -0.69462  -0.67723  -0.66524  -0.65380  -0.63927
 Alpha  occ. eigenvalues --   -0.63318  -0.62795  -0.62568  -0.60987  -0.60171
 Alpha  occ. eigenvalues --   -0.59735  -0.58462  -0.57260  -0.57228  -0.56807
 Alpha  occ. eigenvalues --   -0.56411  -0.55798  -0.54513  -0.54464  -0.54051
 Alpha  occ. eigenvalues --   -0.53215  -0.53154  -0.52592  -0.51882  -0.51234
 Alpha  occ. eigenvalues --   -0.51021  -0.50105  -0.49937  -0.49477  -0.49376
 Alpha  occ. eigenvalues --   -0.48902  -0.48574  -0.48472  -0.48385  -0.47836
 Alpha  occ. eigenvalues --   -0.47812  -0.46840  -0.46416  -0.46370  -0.46141
 Alpha  occ. eigenvalues --   -0.45968  -0.45817  -0.45657  -0.45379  -0.44662
 Alpha  occ. eigenvalues --   -0.44551  -0.44274  -0.43896  -0.43682  -0.43317
 Alpha  occ. eigenvalues --   -0.43256  -0.43114  -0.42714  -0.42525  -0.42251
 Alpha  occ. eigenvalues --   -0.41846  -0.41417  -0.41081  -0.40918  -0.40715
 Alpha  occ. eigenvalues --   -0.40290  -0.39627  -0.39501  -0.39016  -0.38948
 Alpha  occ. eigenvalues --   -0.38737  -0.38551  -0.38301  -0.38141  -0.38096
 Alpha  occ. eigenvalues --   -0.37516  -0.37122  -0.36892  -0.36630  -0.36162
 Alpha  occ. eigenvalues --   -0.35658  -0.34534  -0.34013  -0.32033  -0.31791
 Alpha  occ. eigenvalues --   -0.31081  -0.29527  -0.28931  -0.27566  -0.23274
 Alpha  occ. eigenvalues --   -0.19460
 Alpha virt. eigenvalues --   -0.06212  -0.02032   0.02960   0.05277   0.06377
 Alpha virt. eigenvalues --    0.08590   0.10279   0.11052   0.11443   0.11834
 Alpha virt. eigenvalues --    0.11893   0.12573   0.12877   0.13724   0.14002

 Mulliken charges:
               1
     1  O   -0.572401
     2  O   -0.530203
     3  C    0.021828
     4  C   -0.111833
     5  C   -0.191273
     6  C    0.139954
     7  C    0.112264
     8  C   -0.004286
     9  C   -0.272461
    10  C   -0.336881
    11  C   -0.216241
    12  C   -0.121120
    13  C    0.189302
    14  C    0.036298
    15  C   -0.114420
    16  C   -0.200328
    17  C    0.060264
    18  C   -0.288008
    19  C   -0.271671
    20  C   -0.356715
    21  C   -0.055969
    22  C   -0.132115
    23  C   -0.369189
    24  C    0.050967
    25  C   -0.067854
    26  C   -0.357213
    27  C    0.100448
    28  C   -0.127718
    29  C   -0.353334
    30  C   -0.108517
    31  C   -0.056382
    32  C   -0.042013
    33  C   -0.112589
    34  C    0.093275
    35  C   -0.135743
    36  C    0.116076
    37  C   -0.379043
    38  C   -0.103581
    39  C   -0.134883
    40  C   -0.376085
    41  C   -0.086324
    42  C   -0.089681
    43  H    0.061631
    44  H    0.118435
    45  H    0.098550
    46  H    0.083567
    47  H    0.078776
    48  H    0.115968
    49  H    0.096082
    50  H    0.120843
    51  H    0.100471
    52  H    0.095180
    53  H    0.078804
    54  H    0.090365
    55  H    0.082359
    56  H    0.030659
    57  H    0.094344
    58  H    0.121826
    59  H    0.134508
    60  H    0.095048
    61  H    0.074054
    62  H    0.094110
    63  H    0.115460
    64  H    0.109026
    65  H    0.046279
    66  H    0.134141
    67  H    0.121424
    68  H    0.071480
    69  H    0.299550
    70  H    0.098478
    71  H    0.089081
    72  H    0.136374
    73  H    0.107575
    74  H    0.085527
    75  H    0.305137
    76  H    0.068793
    77  H    0.117087
    78  H    0.112747
    79  H    0.114564
    80  H    0.064274
    81  H    0.085288
    82  H    0.105704
    83  H    0.087994
    84  H    0.066291
    85  H    0.084827
    86  H    0.062763
    87  H    0.069160
    88  H    0.069126
    89  H    0.118814
    90  H    0.135091
    91  H    0.115997
    92  H    0.083564
    93  H    0.081079
    94  H    0.132999
    95  H    0.110038
    96  H    0.116034
    97  H    0.083627
    98  H    0.084423
 Sum of Mulliken charges =  -0.00000

 Dipole moment (field-independent basis, Debye):
    X=             -0.4057    Y=              0.3978    Z=             -0.6463  Tot=              0.8605
 Quadrupole moment (field-independent basis, Debye-Ang):
   XX=           -302.5149   YY=           -245.5821   ZZ=           -262.3863
   XY=             -0.8173   XZ=             33.1507   YZ=              3.8578

 Normal termination of Gaussian 16 at Mon Jul 15 12:42:41 2019.
