 Gaussian 16, Revision A.03,
 Gaussian 16:  ES64L-G16RevA.03 25-Dec-2016

 -------------------------------------
 # td=(NStates=1) CAM-B3LYP/6-31G(d,p)
 -------------------------------------

 --
 TD
 --
 Symbolic Z-matrix:
 Charge =  0 Multiplicity = 1

                         Standard orientation:
 ---------------------------------------------------------------------
 Center     Atomic      Atomic             Coordinates (Angstroms)
 Number     Number       Type             X           Y           Z
 ---------------------------------------------------------------------
      1          8           0      -14.179913   -1.981888    0.348417
      2          8           0       14.810127    0.894263   -0.050197
      3          6           0      -11.749279    0.004994    1.391775
      4          6           0      -10.909859    0.319046    0.099678
      5          6           0      -12.057636   -1.514546    1.280883
      6          6           0      -12.802246   -2.138322    0.092591
      7          6           0      -11.587361   -0.245335   -1.230581
      8          6           0       11.106249    1.051299    0.921070
      9          6           0      -10.858535    0.396257    2.500807
     10          6           0      -13.062577    0.717522    1.361599
     11          6           0       12.521388    1.578999    0.635939
     12          6           0      -12.391885   -1.298363   -1.222131
     13          6           0       13.512927    0.410463    0.306517
     14          6           0       10.673904   -0.088920   -0.057515
     15          6           0       -9.511788   -0.040073    0.146330
     16          6           0       13.022443   -0.305705   -0.926750
     17          6           0       11.578294   -0.660925   -0.904975
     18          6           0       10.239494    2.294482    0.861139
     19          6           0       10.964207    0.598098    2.489792
     20          6           0      -11.212047    0.521038   -2.493472
     21          6           0       -8.486039    0.715148   -0.056079
     22          6           0        9.246898   -0.383888    0.014115
     23          6           0       11.174559   -1.641899   -2.005220
     24          6           0       -7.091366    0.408743   -0.196541
     25          6           0        8.761068   -1.674762    0.078336
     26          6           0       -6.610378   -0.985444   -0.149341
     27          6           0        7.353807   -2.108650    0.096602
     28          6           0       -6.148283    1.392238   -0.475402
     29          6           0        7.213866   -3.623616    0.273967
     30          6           0        6.318126   -1.261316   -0.098529
     31          6           0       -4.805393    1.378170   -0.470901
     32          6           0        4.968523   -1.510732    0.040435
     33          6           0       -4.070400    2.552119   -0.558358
     34          6           0       -2.594716    2.642930   -0.570442
     35          6           0        3.921120   -0.613537   -0.151945
     36          6           0        2.489406   -0.841022   -0.166006
     37          6           0       -1.908230    3.910624   -0.861617
     38          6           0       -1.789279    1.512894   -0.338516
     39          6           0        1.736498    0.287092   -0.301743
     40          6           0        1.996923   -2.224882    0.008699
     41          6           0       -0.377672    1.491065   -0.322018
     42          6           0        0.357466    0.330132   -0.304138
     43          1           0      -11.118673    1.504925   -0.230870
     44          1           0      -12.491857   -1.902742    2.374407
     45          1           0      -11.128839   -2.089892    1.319235
     46          1           0      -12.376436   -3.158421    0.142055
     47          1           0      -10.024044   -0.321036    2.618315
     48          1           0      -10.646521    1.388949    2.323302
     49          1           0      -11.361812    0.270953    3.556421
     50          1           0      -13.477704    0.405249    0.394152
     51          1           0      -13.653550    0.692055    2.098484
     52          1           0      -12.982189    1.810000    1.076283
     53          1           0       12.621175    2.282139   -0.173125
     54          1           0       12.782749    2.343039    1.573612
     55          1           0      -12.777489   -1.768577   -2.026734
     56          1           0       13.639148   -0.289544    1.190360
     57          1           0       -9.252145   -1.062062    0.173427
     58          1           0       13.477847   -1.178692   -1.126304
     59          1           0       13.103309    0.293070   -1.710550
     60          1           0        9.270690    1.994328    1.145883
     61          1           0       10.412992    2.671539   -0.061478
     62          1           0       10.499404    3.056845    1.558876
     63          1           0       11.695483   -0.198018    2.588819
     64          1           0       10.014457    0.237713    2.729534
     65          1           0       11.340735    1.667082    3.035448
     66          1           0      -10.090558    0.675351   -2.392424
     67          1           0      -11.437185    1.558321   -2.327358
     68          1           0      -11.554781    0.095769   -3.605591
     69          1           0      -14.744486   -2.435990   -0.376910
     70          1           0        8.480664    0.322087    0.240042
     71          1           0       -8.640051    1.928580   -0.181277
     72          1           0       11.279407   -2.834174   -1.784141
     73          1           0       10.123453   -1.330751   -2.205811
     74          1           0       11.868246   -1.415102   -2.863181
     75          1           0       15.094385    1.492341    0.702156
     76          1           0        9.550155   -2.525041    0.080064
     77          1           0       -5.717059   -1.117687    0.024980
     78          1           0       -6.914031   -1.418890    0.826847
     79          1           0       -6.904101   -1.470800   -1.116551
     80          1           0       -6.499198    2.466742   -0.440246
     81          1           0        6.638513   -3.754919    1.291238
     82          1           0        6.625834   -4.289729   -0.483666
     83          1           0        8.285961   -4.087492    0.321850
     84          1           0        6.538605   -0.154168   -0.204066
     85          1           0       -4.333348    0.507667   -0.263277
     86          1           0        4.723209   -2.702258   -0.042117
     87          1           0       -4.602176    3.512782   -0.656426
     88          1           0        4.179476    0.352392   -0.286184
     89          1           0       -1.249742    3.919050   -1.652345
     90          1           0       -1.218222    4.268121   -0.049844
     91          1           0       -2.523881    4.746572   -1.127554
     92          1           0       -2.174965    0.516005   -0.201905
     93          1           0        2.175312    1.133024   -0.430452
     94          1           0        2.502058   -2.776278    1.049209
     95          1           0        0.888219   -2.183351    0.211100
     96          1           0        2.444126   -2.969825   -0.705365
     97          1           0       -0.028335    2.384437   -0.595580
     98          1           0       -0.167130   -0.469194   -0.138855
 ---------------------------------------------------------------------

 SCF Done:  E(RCAM-B3LYP) =  -1706.94608908     A.U. after   15 cycles

 Excitation energies and oscillator strengths:

 Excited State   1:      Singlet-A      2.1682 eV  571.83 nm  f=3.0958  <S**2>=0.000
     155 ->158         0.15718
     156 ->157         0.68979
 This state for optimization and/or second-order correction.
 Total Energy, E(TD-HF/TD-DFT) =  -1706.86640982
 Copying the excited state density for this state as the 1-particle RhoCI density.

 The electronic state is 1-A.
 Alpha  occ. eigenvalues --  -19.21786 -19.21093 -10.31255 -10.30838 -10.28034
 Alpha  occ. eigenvalues --  -10.27854 -10.27810 -10.27676 -10.27550 -10.27389
 Alpha  occ. eigenvalues --  -10.27216 -10.27212 -10.27198 -10.27126 -10.27019
 Alpha  occ. eigenvalues --  -10.26894 -10.26686 -10.26668 -10.26515 -10.26315
 Alpha  occ. eigenvalues --  -10.26267 -10.26145 -10.26119 -10.25891 -10.25811
 Alpha  occ. eigenvalues --  -10.25725 -10.25665 -10.25601 -10.25501 -10.25331
 Alpha  occ. eigenvalues --  -10.25226 -10.25148 -10.24992 -10.24944 -10.24932
 Alpha  occ. eigenvalues --  -10.24786 -10.24304 -10.24103 -10.23628 -10.23207
 Alpha  occ. eigenvalues --  -10.22472 -10.21289  -1.08597  -1.08456  -0.93668
 Alpha  occ. eigenvalues --   -0.93216  -0.92911  -0.92088  -0.90914  -0.90128
 Alpha  occ. eigenvalues --   -0.87787  -0.87552  -0.86602  -0.86133  -0.84992
 Alpha  occ. eigenvalues --   -0.83609  -0.82329  -0.80942  -0.79602  -0.78916
 Alpha  occ. eigenvalues --   -0.77530  -0.76588  -0.76240  -0.76153  -0.75436
 Alpha  occ. eigenvalues --   -0.75331  -0.75081  -0.74705  -0.73151  -0.70858
 Alpha  occ. eigenvalues --   -0.68806  -0.67398  -0.66722  -0.65835  -0.64628
 Alpha  occ. eigenvalues --   -0.63424  -0.62850  -0.62009  -0.61517  -0.60071
 Alpha  occ. eigenvalues --   -0.59533  -0.58842  -0.58677  -0.58174  -0.57271
 Alpha  occ. eigenvalues --   -0.56004  -0.55228  -0.55187  -0.54040  -0.53765
 Alpha  occ. eigenvalues --   -0.53464  -0.53167  -0.52517  -0.52296  -0.51985
 Alpha  occ. eigenvalues --   -0.51162  -0.50902  -0.50533  -0.50019  -0.49658
 Alpha  occ. eigenvalues --   -0.49354  -0.49231  -0.48444  -0.48256  -0.48075
 Alpha  occ. eigenvalues --   -0.47519  -0.47231  -0.46655  -0.46369  -0.46027
 Alpha  occ. eigenvalues --   -0.45904  -0.45658  -0.45025  -0.44753  -0.44705
 Alpha  occ. eigenvalues --   -0.44646  -0.44288  -0.43959  -0.43929  -0.43793
 Alpha  occ. eigenvalues --   -0.43403  -0.43166  -0.42871  -0.42361  -0.42141
 Alpha  occ. eigenvalues --   -0.41882  -0.41778  -0.41613  -0.40896  -0.40741
 Alpha  occ. eigenvalues --   -0.40532  -0.40111  -0.39676  -0.39545  -0.39352
 Alpha  occ. eigenvalues --   -0.39207  -0.39076  -0.38476  -0.38311  -0.38112
 Alpha  occ. eigenvalues --   -0.37173  -0.36758  -0.36542  -0.36200  -0.35347
 Alpha  occ. eigenvalues --   -0.34975  -0.34659  -0.33906  -0.32443  -0.31711
 Alpha  occ. eigenvalues --   -0.31560  -0.29570  -0.29072  -0.26877  -0.23518
 Alpha  occ. eigenvalues --   -0.19616
 Alpha virt. eigenvalues --   -0.05954  -0.01434   0.02545   0.06355   0.07696
 Alpha virt. eigenvalues --    0.09257   0.11141   0.11300   0.11897   0.12120
 Alpha virt. eigenvalues --    0.12310   0.12772   0.13115   0.13815   0.14100

 Mulliken charges:
               1
     1  O   -0.529975
     2  O   -0.566903
     3  C    0.036414
     4  C   -0.151786
     5  C   -0.177652
     6  C    0.133543
     7  C    0.113452
     8  C   -0.049425
     9  C   -0.289248
    10  C   -0.273340
    11  C   -0.198393
    12  C   -0.141576
    13  C    0.155509
    14  C    0.084425
    15  C   -0.069183
    16  C   -0.184977
    17  C    0.011227
    18  C   -0.279744
    19  C   -0.280402
    20  C   -0.355428
    21  C   -0.060710
    22  C   -0.134501
    23  C   -0.354705
    24  C    0.073733
    25  C   -0.117360
    26  C   -0.346093
    27  C    0.109943
    28  C   -0.123195
    29  C   -0.371395
    30  C   -0.108948
    31  C   -0.021800
    32  C   -0.091952
    33  C   -0.142975
    34  C    0.096274
    35  C   -0.114220
    36  C    0.146362
    37  C   -0.406473
    38  C   -0.125395
    39  C   -0.083998
    40  C   -0.375254
    41  C   -0.058152
    42  C   -0.069971
    43  H    0.063184
    44  H    0.068226
    45  H    0.082861
    46  H    0.087838
    47  H    0.101028
    48  H    0.115793
    49  H    0.073581
    50  H    0.120183
    51  H    0.105903
    52  H    0.064641
    53  H    0.108116
    54  H    0.051659
    55  H    0.068550
    56  H    0.075649
    57  H    0.091318
    58  H    0.120687
    59  H    0.134781
    60  H    0.097239
    61  H    0.104475
    62  H    0.096389
    63  H    0.102283
    64  H    0.118172
    65  H    0.068454
    66  H    0.117051
    67  H    0.120384
    68  H    0.099550
    69  H    0.305371
    70  H    0.091111
    71  H    0.055234
    72  H    0.096267
    73  H    0.131332
    74  H    0.100308
    75  H    0.305094
    76  H    0.082624
    77  H    0.110451
    78  H    0.105005
    79  H    0.125387
    80  H    0.066174
    81  H    0.115620
    82  H    0.115136
    83  H    0.102677
    84  H    0.073446
    85  H    0.078321
    86  H    0.058753
    87  H    0.084861
    88  H    0.071531
    89  H    0.139446
    90  H    0.120894
    91  H    0.111118
    92  H    0.071408
    93  H    0.065115
    94  H    0.085544
    95  H    0.111417
    96  H    0.134067
    97  H    0.064185
    98  H    0.058354
 Sum of Mulliken charges =  -0.00000

 Dipole moment (field-independent basis, Debye):
    X=             -0.0885    Y=             -0.6532    Z=             -0.7478  Tot=              0.9968
 Quadrupole moment (field-independent basis, Debye-Ang):
   XX=           -288.5532   YY=           -239.1426   ZZ=           -264.3953
   XY=             17.4966   XZ=             31.2730   YZ=              2.2294

 Normal termination of Gaussian 16 at Mon Jul 15 21:37:04 2019.
