 Gaussian 16, Revision A.03,
 Gaussian 16:  ES64L-G16RevA.03 25-Dec-2016

 -------------------------------------
 # td=(NStates=1) CAM-B3LYP/6-31G(d,p)
 -------------------------------------

 --
 TD
 --
 Symbolic Z-matrix:
 Charge =  0 Multiplicity = 1

                         Standard orientation:
 ---------------------------------------------------------------------
 Center     Atomic      Atomic             Coordinates (Angstroms)
 Number     Number       Type             X           Y           Z
 ---------------------------------------------------------------------
      1          8           0      -14.186080   -1.909041    0.713235
      2          8           0       14.885026    0.929470    0.076915
      3          6           0      -11.748885    0.100157    1.202200
      4          6           0      -11.052333    0.289425   -0.094930
      5          6           0      -12.064616   -1.405806    1.445070
      6          6           0      -12.791586   -2.140834    0.418295
      7          6           0      -11.747198   -0.573255   -1.232161
      8          6           0       11.155793    0.921736    1.096657
      9          6           0      -11.117527    0.664785    2.460654
     10          6           0      -13.113735    0.832073    1.028654
     11          6           0       12.601892    1.426991    0.843336
     12          6           0      -12.373715   -1.648596   -1.017940
     13          6           0       13.632742    0.327100    0.426995
     14          6           0       10.764864   -0.062761   -0.029991
     15          6           0       -9.624229   -0.058458   -0.051681
     16          6           0       13.096895   -0.279932   -0.927657
     17          6           0       11.614093   -0.537641   -0.937190
     18          6           0       10.313364    2.143913    0.988083
     19          6           0       11.224292    0.323185    2.508284
     20          6           0      -11.321544   -0.127152   -2.596900
     21          6           0       -8.530676    0.744311   -0.230125
     22          6           0        9.363836   -0.427324    0.067254
     23          6           0       11.307145   -1.434757   -2.101003
     24          6           0       -7.180608    0.521844   -0.101130
     25          6           0        8.888634   -1.688046   -0.122453
     26          6           0       -6.676796   -0.923852    0.160717
     27          6           0        7.496499   -2.063919    0.046423
     28          6           0       -6.245050    1.545451   -0.251811
     29          6           0        7.149277   -3.515561    0.335745
     30          6           0        6.406188   -1.196723   -0.219794
     31          6           0       -4.819987    1.542187   -0.285150
     32          6           0        4.944156   -1.474933   -0.042278
     33          6           0       -3.965203    2.556027   -0.482199
     34          6           0       -2.629229    2.599110   -0.646549
     35          6           0        3.987236   -0.531281   -0.298014
     36          6           0        2.618405   -0.758876   -0.255747
     37          6           0       -2.046685    4.055179   -1.031064
     38          6           0       -1.853009    1.513508   -0.515386
     39          6           0        1.751171    0.391415   -0.354876
     40          6           0        2.098197   -2.141255    0.012631
     41          6           0       -0.457872    1.394495   -0.496898
     42          6           0        0.345616    0.321590   -0.342701
     43          1           0      -11.026073    1.265500   -0.500905
     44          1           0      -12.887023   -1.319841    2.398387
     45          1           0      -11.185928   -1.908765    1.772556
     46          1           0      -12.610423   -3.161789    0.499602
     47          1           0      -10.195174    0.197814    2.409332
     48          1           0      -10.968820    1.661788    2.106278
     49          1           0      -11.671045    0.609862    3.284763
     50          1           0      -13.671359    0.642703    0.215406
     51          1           0      -13.964261    0.591813    1.793251
     52          1           0      -13.023264    1.899043    0.783450
     53          1           0       12.315902    2.258035    0.034390
     54          1           0       13.036356    2.062853    1.604173
     55          1           0      -12.844487   -2.089959   -1.894837
     56          1           0       13.675256   -0.530928    1.038455
     57          1           0       -9.264552   -1.152087    0.153217
     58          1           0       13.576622   -1.238445   -1.155802
     59          1           0       13.339096    0.454102   -1.918636
     60          1           0        9.201527    2.139485    1.445962
     61          1           0       10.282275    2.506753    0.212866
     62          1           0       10.808473    2.850088    1.725537
     63          1           0       11.879994   -0.578971    2.362027
     64          1           0       10.140190    0.068638    2.506853
     65          1           0       11.552137    0.997749    3.256110
     66          1           0      -10.246242   -0.111499   -2.782474
     67          1           0      -11.597495    0.908288   -2.626589
     68          1           0      -11.802001   -0.793709   -3.461097
     69          1           0      -14.751186   -2.236833    0.100462
     70          1           0        8.708307    0.300802    0.501876
     71          1           0       -8.763701    1.811352   -0.189550
     72          1           0       11.770542   -2.400624   -1.886289
     73          1           0       10.230020   -1.394324   -2.371957
     74          1           0       11.608352   -0.838221   -3.010983
     75          1           0       15.156840    1.276909    0.865482
     76          1           0        9.561832   -2.546931   -0.245337
     77          1           0       -5.501438   -1.200585   -0.023460
     78          1           0       -6.965658   -0.972022    0.942260
     79          1           0       -7.436838   -1.579253   -0.556068
     80          1           0       -6.841789    2.451447   -0.279262
     81          1           0        7.125058   -3.807295    1.383230
     82          1           0        6.346623   -3.737458   -0.217601
     83          1           0        8.111417   -4.127863   -0.058001
     84          1           0        6.653227   -0.183466   -0.542287
     85          1           0       -4.453905    0.440002   -0.148624
     86          1           0        4.656875   -2.535773    0.045972
     87          1           0       -4.483731    3.564508   -0.785378
     88          1           0        4.249996    0.467198   -0.560618
     89          1           0       -1.427850    4.022939   -1.979437
     90          1           0       -1.293403    4.497659   -0.325829
     91          1           0       -2.932220    4.568040   -1.139970
     92          1           0       -2.328418    0.542694   -0.333889
     93          1           0        2.311849    1.364851   -0.412701
     94          1           0        2.728432   -2.520392    0.801352
     95          1           0        0.952169   -1.923353    0.331956
     96          1           0        2.295620   -2.716771   -0.895736
     97          1           0       -0.003082    2.259942   -0.837379
     98          1           0       -0.124057   -0.580249   -0.007933
 ---------------------------------------------------------------------

 SCF Done:  E(RCAM-B3LYP) =  -1706.88013970     A.U. after   15 cycles

 Excitation energies and oscillator strengths:

 Excited State   1:      Singlet-A      2.1925 eV  565.49 nm  f=3.2938  <S**2>=0.000
     155 ->158        -0.15654
     156 ->157         0.68919
 This state for optimization and/or second-order correction.
 Total Energy, E(TD-HF/TD-DFT) =  -1706.79956656
 Copying the excited state density for this state as the 1-particle RhoCI density.

 The electronic state is 1-A.
 Alpha  occ. eigenvalues --  -19.21083 -19.20023 -10.30965 -10.30229 -10.27381
 Alpha  occ. eigenvalues --  -10.27280 -10.27186 -10.27074 -10.27042 -10.26983
 Alpha  occ. eigenvalues --  -10.26950 -10.26882 -10.26778 -10.26491 -10.26441
 Alpha  occ. eigenvalues --  -10.26381 -10.26328 -10.26282 -10.26255 -10.26189
 Alpha  occ. eigenvalues --  -10.26128 -10.26123 -10.26123 -10.26104 -10.26023
 Alpha  occ. eigenvalues --  -10.25839 -10.25735 -10.25679 -10.25639 -10.25538
 Alpha  occ. eigenvalues --  -10.25454 -10.25412 -10.25401 -10.25327 -10.25299
 Alpha  occ. eigenvalues --  -10.25018 -10.24908 -10.24631 -10.24310 -10.23742
 Alpha  occ. eigenvalues --  -10.22325 -10.21915  -1.10878  -1.09757  -0.94622
 Alpha  occ. eigenvalues --   -0.94171  -0.92703  -0.91844  -0.91145  -0.89714
 Alpha  occ. eigenvalues --   -0.88113  -0.87732  -0.87616  -0.85513  -0.84661
 Alpha  occ. eigenvalues --   -0.83478  -0.81971  -0.81122  -0.80336  -0.78662
 Alpha  occ. eigenvalues --   -0.78208  -0.78010  -0.76993  -0.76463  -0.75987
 Alpha  occ. eigenvalues --   -0.75861  -0.75609  -0.74436  -0.73323  -0.70971
 Alpha  occ. eigenvalues --   -0.69560  -0.68766  -0.66978  -0.65659  -0.64150
 Alpha  occ. eigenvalues --   -0.63531  -0.62697  -0.62359  -0.60046  -0.59638
 Alpha  occ. eigenvalues --   -0.59273  -0.59020  -0.58790  -0.57439  -0.56603
 Alpha  occ. eigenvalues --   -0.55810  -0.55593  -0.55100  -0.54892  -0.54548
 Alpha  occ. eigenvalues --   -0.53953  -0.53521  -0.52746  -0.52649  -0.52037
 Alpha  occ. eigenvalues --   -0.51326  -0.51029  -0.50502  -0.50341  -0.49996
 Alpha  occ. eigenvalues --   -0.49738  -0.49465  -0.49410  -0.48684  -0.48332
 Alpha  occ. eigenvalues --   -0.47819  -0.47769  -0.47203  -0.46813  -0.46466
 Alpha  occ. eigenvalues --   -0.46238  -0.45957  -0.45826  -0.45457  -0.45023
 Alpha  occ. eigenvalues --   -0.44668  -0.44518  -0.44414  -0.43540  -0.43413
 Alpha  occ. eigenvalues --   -0.43200  -0.42404  -0.42127  -0.42035  -0.41829
 Alpha  occ. eigenvalues --   -0.41773  -0.41470  -0.41099  -0.40990  -0.40802
 Alpha  occ. eigenvalues --   -0.40227  -0.40059  -0.39680  -0.39494  -0.39265
 Alpha  occ. eigenvalues --   -0.39039  -0.38607  -0.38248  -0.38168  -0.37695
 Alpha  occ. eigenvalues --   -0.37480  -0.37088  -0.36625  -0.36281  -0.35639
 Alpha  occ. eigenvalues --   -0.34840  -0.34500  -0.34248  -0.32410  -0.32231
 Alpha  occ. eigenvalues --   -0.31856  -0.31107  -0.29631  -0.26788  -0.23636
 Alpha  occ. eigenvalues --   -0.19573
 Alpha virt. eigenvalues --   -0.05883  -0.01293   0.02488   0.05994   0.08188
 Alpha virt. eigenvalues --    0.09569   0.10936   0.11914   0.12536   0.12925
 Alpha virt. eigenvalues --    0.13036   0.13394   0.13871   0.14003   0.14160

 Mulliken charges:
               1
     1  O   -0.542957
     2  O   -0.533055
     3  C    0.000917
     4  C   -0.119522
     5  C   -0.185102
     6  C    0.167534
     7  C    0.141116
     8  C   -0.061430
     9  C   -0.265372
    10  C   -0.300698
    11  C   -0.191922
    12  C   -0.163497
    13  C    0.151211
    14  C    0.085494
    15  C   -0.094673
    16  C   -0.203435
    17  C    0.022195
    18  C   -0.264900
    19  C   -0.269126
    20  C   -0.357775
    21  C   -0.102339
    22  C   -0.116134
    23  C   -0.357336
    24  C    0.084203
    25  C   -0.097226
    26  C   -0.317256
    27  C    0.065241
    28  C   -0.123487
    29  C   -0.359856
    30  C   -0.130075
    31  C   -0.061539
    32  C   -0.118150
    33  C   -0.125677
    34  C    0.114128
    35  C   -0.077009
    36  C    0.088675
    37  C   -0.361484
    38  C   -0.122032
    39  C   -0.129097
    40  C   -0.358389
    41  C   -0.075137
    42  C   -0.080351
    43  H    0.089136
    44  H    0.094404
    45  H    0.092276
    46  H    0.088858
    47  H    0.099882
    48  H    0.095057
    49  H    0.113070
    50  H    0.112614
    51  H    0.091446
    52  H    0.072775
    53  H    0.080142
    54  H    0.074645
    55  H    0.068270
    56  H    0.097074
    57  H    0.070282
    58  H    0.100212
    59  H    0.094555
    60  H    0.077671
    61  H    0.106154
    62  H    0.089128
    63  H    0.094382
    64  H    0.100098
    65  H    0.107844
    66  H    0.132349
    67  H    0.113256
    68  H    0.090062
    69  H    0.288495
    70  H    0.093384
    71  H    0.072715
    72  H    0.122801
    73  H    0.118143
    74  H    0.109086
    75  H    0.294584
    76  H    0.088423
    77  H    0.097977
    78  H    0.136172
    79  H    0.086566
    80  H    0.064293
    81  H    0.128888
    82  H    0.130385
    83  H    0.079146
    84  H    0.077315
    85  H    0.069314
    86  H    0.083914
    87  H    0.071583
    88  H    0.079867
    89  H    0.116921
    90  H    0.121855
    91  H    0.114591
    92  H    0.067642
    93  H    0.084924
    94  H    0.128440
    95  H    0.094778
    96  H    0.131918
    97  H    0.065057
    98  H    0.080506
 Sum of Mulliken charges =  -0.00000

 Dipole moment (field-independent basis, Debye):
    X=              0.4279    Y=             -0.8917    Z=             -0.1130  Tot=              0.9955
 Quadrupole moment (field-independent basis, Debye-Ang):
   XX=           -260.5258   YY=           -244.9143   ZZ=           -263.6056
   XY=              6.5840   XZ=             39.1272   YZ=              1.4365

 Normal termination of Gaussian 16 at Sat Jul 13 00:50:38 2019.
