 Gaussian 16, Revision A.03,
 Gaussian 16:  ES64L-G16RevA.03 25-Dec-2016

 -------------------------------------
 # td=(NStates=1) CAM-B3LYP/6-31G(d,p)
 -------------------------------------

 --
 TD
 --
 Symbolic Z-matrix:
 Charge =  0 Multiplicity = 1

                         Standard orientation:
 ---------------------------------------------------------------------
 Center     Atomic      Atomic             Coordinates (Angstroms)
 Number     Number       Type             X           Y           Z
 ---------------------------------------------------------------------
      1          8           0      -14.043165   -1.983189    0.477620
      2          8           0       14.600373    1.347068    0.049431
      3          6           0      -11.649238    0.021166    1.407011
      4          6           0      -10.882999    0.382782    0.050474
      5          6           0      -11.885228   -1.543329    1.432481
      6          6           0      -12.582356   -2.094234    0.213774
      7          6           0      -11.562949   -0.220021   -1.197523
      8          6           0       10.940313    1.090810    1.040515
      9          6           0      -10.959573    0.542075    2.608012
     10          6           0      -13.069701    0.761569    1.287092
     11          6           0       12.374503    1.649751    0.724208
     12          6           0      -12.220230   -1.341360   -1.119184
     13          6           0       13.366271    0.606759    0.380277
     14          6           0       10.538519   -0.150471    0.093145
     15          6           0       -9.518252    0.010727    0.018083
     16          6           0       12.857485   -0.156236   -0.840869
     17          6           0       11.382698   -0.587192   -0.878597
     18          6           0        9.847798    2.270654    0.930888
     19          6           0       10.939960    0.551034    2.517048
     20          6           0      -11.192669    0.470143   -2.463150
     21          6           0       -8.436362    0.827671   -0.140052
     22          6           0        9.228781   -0.593116    0.216205
     23          6           0       11.092868   -1.436970   -1.981543
     24          6           0       -6.994584    0.423441   -0.233697
     25          6           0        8.710171   -1.797405    0.002690
     26          6           0       -6.485209   -0.987447   -0.089159
     27          6           0        7.420090   -2.280260    0.013722
     28          6           0       -6.143699    1.494873   -0.317473
     29          6           0        7.099301   -3.715774    0.230800
     30          6           0        6.340035   -1.400830   -0.184471
     31          6           0       -4.690137    1.454474   -0.417618
     32          6           0        4.980500   -1.658446   -0.155750
     33          6           0       -3.919337    2.508204   -0.638150
     34          6           0       -2.460323    2.515381   -0.626742
     35          6           0        3.954146   -0.641232   -0.296620
     36          6           0        2.620848   -0.840719   -0.275432
     37          6           0       -1.829303    3.759312   -0.926632
     38          6           0       -1.700989    1.351340   -0.580896
     39          6           0        1.791471    0.170995   -0.380485
     40          6           0        2.062604   -2.181736    0.033541
     41          6           0       -0.373617    1.396874   -0.574696
     42          6           0        0.391054    0.182164   -0.304957
     43          1           0      -11.011346    1.436351   -0.082531
     44          1           0      -12.523385   -1.917474    2.414747
     45          1           0      -10.865265   -1.874251    1.538996
     46          1           0      -12.315364   -3.145602   -0.042675
     47          1           0      -10.025493    0.072390    2.616086
     48          1           0      -10.812383    1.537826    2.518686
     49          1           0      -11.564202    0.410669    3.588341
     50          1           0      -13.429556    0.314374    0.345177
     51          1           0      -13.811879    0.396733    2.065748
     52          1           0      -12.883470    1.844117    1.457304
     53          1           0       12.369394    2.053370   -0.335888
     54          1           0       12.795405    2.352066    1.493418
     55          1           0      -12.511396   -1.694606   -1.944949
     56          1           0       13.461869   -0.167248    1.118521
     57          1           0       -9.264871   -1.065861    0.056228
     58          1           0       13.388370   -1.169894   -0.801396
     59          1           0       12.926838    0.467707   -1.735142
     60          1           0        8.880924    1.969188    1.501888
     61          1           0        9.495326    2.370658   -0.124068
     62          1           0       10.227359    3.312527    1.522865
     63          1           0       11.895491   -0.160356    2.641830
     64          1           0       10.162852   -0.263623    2.791409
     65          1           0       11.039367    1.396438    3.350062
     66          1           0      -10.135891    0.470853   -2.710882
     67          1           0      -11.408643    1.565135   -2.191491
     68          1           0      -11.823933   -0.004301   -3.401770
     69          1           0      -14.324526   -1.380979   -0.762678
     70          1           0        8.355995    0.169606    0.275627
     71          1           0       -8.677135    1.892959   -0.263149
     72          1           0       11.382145   -2.641843   -1.892961
     73          1           0       10.038191   -1.595125   -2.402766
     74          1           0       11.875503   -1.102791   -2.817463
     75          1           0       14.840900    1.877150    0.827660
     76          1           0        9.451041   -2.715379   -0.101264
     77          1           0       -5.360155   -0.794932   -0.209375
     78          1           0       -6.951721   -1.495004    0.816909
     79          1           0       -6.957447   -1.410476   -0.928063
     80          1           0       -6.431163    2.503618   -0.452070
     81          1           0        6.679984   -3.760659    1.339263
     82          1           0        6.535053   -4.278857   -0.434530
     83          1           0        7.965704   -4.290872   -0.057582
     84          1           0        6.677305   -0.410487   -0.422001
     85          1           0       -4.103959    0.577058   -0.154393
     86          1           0        4.860886   -2.623832    0.235281
     87          1           0       -4.421553    3.574707   -0.775201
     88          1           0        4.435496    0.316121   -0.763905
     89          1           0       -1.253294    3.663494   -1.840536
     90          1           0       -1.080927    4.214508   -0.116906
     91          1           0       -2.694347    4.397515   -1.154985
     92          1           0       -1.948287    0.338606   -0.313690
     93          1           0        2.437007    1.131977   -0.514807
     94          1           0        2.400890   -2.823595    1.007540
     95          1           0        0.952531   -2.204044    0.141333
     96          1           0        2.403469   -2.964888   -0.773557
     97          1           0        0.039206    2.328496   -0.683429
     98          1           0       -0.136519   -0.802796   -0.132840
 ---------------------------------------------------------------------

 SCF Done:  E(RCAM-B3LYP) =  -1706.89498308     A.U. after   15 cycles

 Excitation energies and oscillator strengths:

 Excited State   1:      Singlet-A      1.9283 eV  642.97 nm  f=3.0542  <S**2>=0.000
     155 ->158        -0.13581
     156 ->157         0.69858
     156 <-157        -0.11108
 This state for optimization and/or second-order correction.
 Total Energy, E(TD-HF/TD-DFT) =  -1706.82411867
 Copying the excited state density for this state as the 1-particle RhoCI density.

 The electronic state is 1-A.
 Alpha  occ. eigenvalues --  -19.23199 -19.21087 -10.31408 -10.30000 -10.28945
 Alpha  occ. eigenvalues --  -10.28373 -10.27773 -10.27754 -10.27596 -10.27481
 Alpha  occ. eigenvalues --  -10.27446 -10.27305 -10.27173 -10.27093 -10.27077
 Alpha  occ. eigenvalues --  -10.27028 -10.26979 -10.26970 -10.26904 -10.26764
 Alpha  occ. eigenvalues --  -10.26465 -10.26462 -10.26371 -10.26346 -10.26301
 Alpha  occ. eigenvalues --  -10.26211 -10.26149 -10.26088 -10.26069 -10.25952
 Alpha  occ. eigenvalues --  -10.25948 -10.25891 -10.25821 -10.25788 -10.25506
 Alpha  occ. eigenvalues --  -10.25473 -10.25422 -10.24969 -10.24862 -10.24390
 Alpha  occ. eigenvalues --  -10.23759 -10.23162  -1.07888  -1.03496  -0.94363
 Alpha  occ. eigenvalues --   -0.93718  -0.93536  -0.92767  -0.91214  -0.90931
 Alpha  occ. eigenvalues --   -0.87813  -0.87572  -0.86534  -0.86072  -0.85375
 Alpha  occ. eigenvalues --   -0.83845  -0.82910  -0.80777  -0.80691  -0.78823
 Alpha  occ. eigenvalues --   -0.77543  -0.76720  -0.76413  -0.76184  -0.75857
 Alpha  occ. eigenvalues --   -0.74786  -0.74643  -0.73746  -0.72523  -0.70354
 Alpha  occ. eigenvalues --   -0.68899  -0.67455  -0.66330  -0.65129  -0.63681
 Alpha  occ. eigenvalues --   -0.63248  -0.62600  -0.62500  -0.61702  -0.60568
 Alpha  occ. eigenvalues --   -0.59916  -0.58979  -0.58501  -0.57137  -0.56544
 Alpha  occ. eigenvalues --   -0.55796  -0.54877  -0.54453  -0.54428  -0.53654
 Alpha  occ. eigenvalues --   -0.53322  -0.52900  -0.52467  -0.51883  -0.51329
 Alpha  occ. eigenvalues --   -0.50902  -0.50364  -0.49828  -0.49378  -0.49275
 Alpha  occ. eigenvalues --   -0.49037  -0.48969  -0.48626  -0.48055  -0.47970
 Alpha  occ. eigenvalues --   -0.47397  -0.47265  -0.46670  -0.46581  -0.46084
 Alpha  occ. eigenvalues --   -0.45884  -0.45842  -0.45366  -0.45240  -0.45151
 Alpha  occ. eigenvalues --   -0.44600  -0.44125  -0.43823  -0.43574  -0.43381
 Alpha  occ. eigenvalues --   -0.42805  -0.42610  -0.42310  -0.41949  -0.41619
 Alpha  occ. eigenvalues --   -0.41562  -0.41404  -0.41278  -0.41131  -0.40713
 Alpha  occ. eigenvalues --   -0.40439  -0.40336  -0.39925  -0.39622  -0.39306
 Alpha  occ. eigenvalues --   -0.39083  -0.38516  -0.38359  -0.38219  -0.37705
 Alpha  occ. eigenvalues --   -0.37600  -0.37264  -0.37095  -0.36765  -0.36191
 Alpha  occ. eigenvalues --   -0.35509  -0.34411  -0.33949  -0.32620  -0.32248
 Alpha  occ. eigenvalues --   -0.31959  -0.30878  -0.29002  -0.27098  -0.23951
 Alpha  occ. eigenvalues --   -0.18776
 Alpha virt. eigenvalues --   -0.06857  -0.01251   0.00610   0.02601   0.05650
 Alpha virt. eigenvalues --    0.07960   0.09536   0.11230   0.11918   0.12067
 Alpha virt. eigenvalues --    0.12364   0.12524   0.12825   0.13040   0.13383

 Mulliken charges:
               1
     1  O   -0.516781
     2  O   -0.567471
     3  C   -0.003722
     4  C   -0.140743
     5  C   -0.162807
     6  C    0.174258
     7  C    0.134746
     8  C    0.015146
     9  C   -0.288083
    10  C   -0.278520
    11  C   -0.179418
    12  C   -0.189362
    13  C    0.164473
    14  C    0.034599
    15  C   -0.068674
    16  C   -0.242556
    17  C    0.091632
    18  C   -0.301147
    19  C   -0.299841
    20  C   -0.347931
    21  C   -0.091441
    22  C   -0.102523
    23  C   -0.364979
    24  C    0.070890
    25  C   -0.105582
    26  C   -0.351361
    27  C    0.080050
    28  C   -0.110163
    29  C   -0.373367
    30  C   -0.106057
    31  C   -0.075217
    32  C   -0.083132
    33  C   -0.132277
    34  C    0.088177
    35  C   -0.165252
    36  C    0.200286
    37  C   -0.392744
    38  C   -0.081620
    39  C   -0.112804
    40  C   -0.374338
    41  C   -0.054924
    42  C   -0.145849
    43  H    0.087221
    44  H    0.093739
    45  H    0.089091
    46  H    0.091030
    47  H    0.101088
    48  H    0.105394
    49  H    0.094705
    50  H    0.087568
    51  H    0.101143
    52  H    0.082517
    53  H    0.104302
    54  H    0.075935
    55  H    0.065628
    56  H    0.086780
    57  H    0.078694
    58  H    0.112587
    59  H    0.126191
    60  H    0.101716
    61  H    0.110783
    62  H    0.080046
    63  H    0.074664
    64  H    0.110415
    65  H    0.086772
    66  H    0.140915
    67  H    0.106674
    68  H    0.090995
    69  H    0.252605
    70  H    0.075938
    71  H    0.076611
    72  H    0.088684
    73  H    0.128419
    74  H    0.094829
    75  H    0.307154
    76  H    0.059774
    77  H    0.112493
    78  H    0.124547
    79  H    0.135717
    80  H    0.080374
    81  H    0.120823
    82  H    0.127841
    83  H    0.101802
    84  H    0.061929
    85  H    0.090915
    86  H    0.078238
    87  H    0.072567
    88  H    0.084203
    89  H    0.137529
    90  H    0.113554
    91  H    0.108157
    92  H    0.076615
    93  H    0.075407
    94  H    0.100899
    95  H    0.101744
    96  H    0.107197
    97  H    0.080013
    98  H    0.093264
 Sum of Mulliken charges =  -0.00000

 Dipole moment (field-independent basis, Debye):
    X=             -0.1345    Y=              0.5020    Z=             -1.0072  Tot=              1.1334
 Quadrupole moment (field-independent basis, Debye-Ang):
   XX=           -323.5929   YY=           -247.3315   ZZ=           -261.8286
   XY=            -15.6145   XZ=             38.3060   YZ=              3.9525

 Normal termination of Gaussian 16 at Tue Jul 16 00:19:01 2019.
