 Gaussian 16, Revision A.03,
 Gaussian 16:  ES64L-G16RevA.03 25-Dec-2016

 -------------------------------------
 # td=(NStates=1) CAM-B3LYP/6-31G(d,p)
 -------------------------------------

 --
 TD
 --
 Symbolic Z-matrix:
 Charge =  0 Multiplicity = 1

                         Standard orientation:
 ---------------------------------------------------------------------
 Center     Atomic      Atomic             Coordinates (Angstroms)
 Number     Number       Type             X           Y           Z
 ---------------------------------------------------------------------
      1          8           0      -14.139912   -1.845731    0.781438
      2          8           0       14.703812    1.102040    0.168397
      3          6           0      -11.732114    0.273536    1.308928
      4          6           0      -10.984562    0.373423   -0.056011
      5          6           0      -11.951574   -1.160724    1.665800
      6          6           0      -12.670340   -2.012879    0.580085
      7          6           0      -11.550727   -0.537579   -1.135141
      8          6           0       11.088950    1.050530    1.128192
      9          6           0      -10.851233    0.936465    2.379075
     10          6           0      -13.147790    0.977388    1.104626
     11          6           0       12.458480    1.583083    0.797939
     12          6           0      -12.284718   -1.626666   -0.817326
     13          6           0       13.466019    0.485702    0.394725
     14          6           0       10.587330    0.029604    0.065174
     15          6           0       -9.547900    0.017678    0.133516
     16          6           0       12.922747   -0.135567   -0.922282
     17          6           0       11.455245   -0.466846   -0.817849
     18          6           0       10.086699    2.218011    1.131786
     19          6           0       11.064004    0.322916    2.510754
     20          6           0      -11.302583   -0.101284   -2.567389
     21          6           0       -8.455870    0.705697   -0.261763
     22          6           0        9.136005   -0.390704    0.116657
     23          6           0       11.163262   -1.503200   -1.942266
     24          6           0       -7.005031    0.498866   -0.193748
     25          6           0        8.746090   -1.576282   -0.079689
     26          6           0       -6.610874   -0.840135    0.260133
     27          6           0        7.405827   -2.110041    0.002160
     28          6           0       -6.186747    1.484806   -0.638370
     29          6           0        7.158355   -3.553714    0.024038
     30          6           0        6.361262   -1.141715   -0.064612
     31          6           0       -4.765385    1.435306   -0.676918
     32          6           0        4.984401   -1.564697   -0.095495
     33          6           0       -3.922418    2.406014   -0.832021
     34          6           0       -2.509188    2.458816   -0.875428
     35          6           0        3.970869   -0.743950   -0.240775
     36          6           0        2.577289   -0.945847   -0.207554
     37          6           0       -1.879476    3.756933   -1.075808
     38          6           0       -1.735994    1.308148   -0.632425
     39          6           0        1.770164    0.116801   -0.338741
     40          6           0        2.055930   -2.242087    0.006567
     41          6           0       -0.319992    1.283152   -0.656390
     42          6           0        0.326278    0.070208   -0.472905
     43          1           0      -10.753971    1.385500   -0.376916
     44          1           0      -12.607196   -1.195701    2.594481
     45          1           0      -11.026925   -1.665141    1.805248
     46          1           0      -12.465502   -3.183586    0.692197
     47          1           0       -9.856671    0.521476    2.584597
     48          1           0      -10.594552    1.936304    1.914591
     49          1           0      -11.409171    1.154311    3.404743
     50          1           0      -13.622444    0.299385    0.246519
     51          1           0      -13.845812    0.742814    2.047362
     52          1           0      -12.973959    1.932197    0.891656
     53          1           0       12.352488    2.424142   -0.037160
     54          1           0       12.995342    2.139628    1.750896
     55          1           0      -12.695063   -2.243803   -1.651547
     56          1           0       13.494925   -0.372057    0.995227
     57          1           0       -9.350199   -0.973713    0.720758
     58          1           0       13.633450   -1.126370   -1.126513
     59          1           0       13.266946    0.619841   -1.558193
     60          1           0        9.062624    1.955571    1.539468
     61          1           0       10.178732    2.542217    0.087600
     62          1           0       10.412309    3.133910    1.881065
     63          1           0       11.893831   -0.367636    2.590181
     64          1           0       10.101484   -0.106525    2.812497
     65          1           0       11.452000    1.108066    3.200028
     66          1           0      -10.211787   -0.260222   -2.695537
     67          1           0      -11.597870    1.041578   -2.860271
     68          1           0      -11.670270   -0.823582   -3.315867
     69          1           0      -14.785848   -2.320276    0.230651
     70          1           0        8.364939    0.410889    0.516634
     71          1           0       -8.851270    1.575943   -0.958515
     72          1           0       11.204581   -2.539550   -1.728270
     73          1           0       10.139128   -1.324885   -2.432323
     74          1           0       11.996311   -1.387253   -2.764130
     75          1           0       14.850022    1.541094    1.104095
     76          1           0        9.525523   -2.231279   -0.356976
     77          1           0       -5.640017   -0.983602    0.062859
     78          1           0       -7.094229   -1.147648    1.323752
     79          1           0       -7.147165   -1.486039   -0.476177
     80          1           0       -6.686439    2.266310   -1.092550
     81          1           0        6.978071   -4.019530    1.016203
     82          1           0        6.137783   -3.735939   -0.647044
     83          1           0        8.160358   -4.170602   -0.105841
     84          1           0        6.489205   -0.163503   -0.175319
     85          1           0       -4.331494    0.498121   -0.185346
     86          1           0        4.725558   -2.600896    0.289926
     87          1           0       -4.273511    3.485998   -1.155664
     88          1           0        4.301685    0.225451   -0.340916
     89          1           0       -1.277968    3.591275   -1.941213
     90          1           0       -1.252902    4.080974   -0.158938
     91          1           0       -2.483668    4.543626   -1.394131
     92          1           0       -2.029856    0.262215   -0.615349
     93          1           0        2.413588    0.919649   -0.721645
     94          1           0        2.650838   -2.709380    0.923534
     95          1           0        0.955170   -2.437216    0.033121
     96          1           0        2.128506   -2.999843   -0.884499
     97          1           0        0.150683    2.198217   -0.943897
     98          1           0       -0.215648   -0.846393   -0.213310
 ---------------------------------------------------------------------

 SCF Done:  E(RCAM-B3LYP) =  -1707.00944578     A.U. after   14 cycles

 Excitation energies and oscillator strengths:

 Excited State   1:      Singlet-A      2.4739 eV  501.16 nm  f=2.9410  <S**2>=0.000
     155 ->158         0.16319
     156 ->157         0.68576
 This state for optimization and/or second-order correction.
 Total Energy, E(TD-HF/TD-DFT) =  -1706.91853063
 Copying the excited state density for this state as the 1-particle RhoCI density.

 The electronic state is 1-A.
 Alpha  occ. eigenvalues --  -19.22076 -19.20254 -10.32263 -10.29456 -10.27664
 Alpha  occ. eigenvalues --  -10.27510 -10.27503 -10.27432 -10.27395 -10.27356
 Alpha  occ. eigenvalues --  -10.27189 -10.27085 -10.26789 -10.26747 -10.26695
 Alpha  occ. eigenvalues --  -10.26676 -10.26553 -10.26500 -10.26478 -10.26329
 Alpha  occ. eigenvalues --  -10.26150 -10.26148 -10.25998 -10.25875 -10.25839
 Alpha  occ. eigenvalues --  -10.25704 -10.25694 -10.25694 -10.25675 -10.25647
 Alpha  occ. eigenvalues --  -10.25556 -10.25494 -10.25412 -10.25389 -10.25305
 Alpha  occ. eigenvalues --  -10.25222 -10.25046 -10.24887 -10.24602 -10.24389
 Alpha  occ. eigenvalues --  -10.24234 -10.23817  -1.09480  -1.06344  -0.93972
 Alpha  occ. eigenvalues --   -0.93645  -0.93202  -0.92474  -0.91060  -0.90686
 Alpha  occ. eigenvalues --   -0.87791  -0.86561  -0.86376  -0.85931  -0.85133
 Alpha  occ. eigenvalues --   -0.83654  -0.82874  -0.80330  -0.79974  -0.78409
 Alpha  occ. eigenvalues --   -0.77611  -0.76310  -0.76118  -0.75722  -0.75499
 Alpha  occ. eigenvalues --   -0.74752  -0.74577  -0.74351  -0.73332  -0.70303
 Alpha  occ. eigenvalues --   -0.68475  -0.67874  -0.65754  -0.64662  -0.63347
 Alpha  occ. eigenvalues --   -0.62758  -0.62592  -0.62085  -0.61486  -0.60166
 Alpha  occ. eigenvalues --   -0.59145  -0.59018  -0.58422  -0.58235  -0.57241
 Alpha  occ. eigenvalues --   -0.55704  -0.55261  -0.54972  -0.54333  -0.53602
 Alpha  occ. eigenvalues --   -0.53049  -0.52744  -0.52411  -0.52289  -0.51018
 Alpha  occ. eigenvalues --   -0.50784  -0.50248  -0.49856  -0.49160  -0.48907
 Alpha  occ. eigenvalues --   -0.48730  -0.48570  -0.48235  -0.48021  -0.47798
 Alpha  occ. eigenvalues --   -0.47450  -0.47290  -0.47162  -0.46309  -0.45981
 Alpha  occ. eigenvalues --   -0.45772  -0.45379  -0.45068  -0.44910  -0.44424
 Alpha  occ. eigenvalues --   -0.44111  -0.43934  -0.43786  -0.43570  -0.43532
 Alpha  occ. eigenvalues --   -0.43030  -0.42748  -0.42568  -0.42487  -0.42224
 Alpha  occ. eigenvalues --   -0.41782  -0.41621  -0.41463  -0.40912  -0.40810
 Alpha  occ. eigenvalues --   -0.40382  -0.40132  -0.39681  -0.39561  -0.39140
 Alpha  occ. eigenvalues --   -0.38555  -0.38526  -0.38204  -0.38084  -0.37822
 Alpha  occ. eigenvalues --   -0.37425  -0.37068  -0.36505  -0.36263  -0.35886
 Alpha  occ. eigenvalues --   -0.35341  -0.33871  -0.33594  -0.32475  -0.32076
 Alpha  occ. eigenvalues --   -0.31674  -0.29477  -0.29023  -0.27318  -0.24104
 Alpha  occ. eigenvalues --   -0.20321
 Alpha virt. eigenvalues --   -0.04917  -0.00559   0.03120   0.05715   0.07070
 Alpha virt. eigenvalues --    0.09021   0.10111   0.11501   0.11874   0.12734
 Alpha virt. eigenvalues --    0.12865   0.13140   0.13355   0.13966   0.14061

 Mulliken charges:
               1
     1  O   -0.575921
     2  O   -0.556633
     3  C    0.016693
     4  C   -0.145500
     5  C   -0.162994
     6  C    0.133250
     7  C    0.145593
     8  C   -0.011018
     9  C   -0.304267
    10  C   -0.277660
    11  C   -0.189513
    12  C   -0.133239
    13  C    0.163687
    14  C    0.059617
    15  C   -0.092879
    16  C   -0.234857
    17  C    0.048645
    18  C   -0.289617
    19  C   -0.300375
    20  C   -0.362193
    21  C   -0.107021
    22  C   -0.094788
    23  C   -0.378233
    24  C    0.116745
    25  C   -0.086019
    26  C   -0.358554
    27  C    0.101480
    28  C   -0.097738
    29  C   -0.385738
    30  C   -0.102455
    31  C   -0.097326
    32  C   -0.090677
    33  C   -0.087180
    34  C    0.078586
    35  C   -0.121968
    36  C    0.182823
    37  C   -0.380808
    38  C   -0.116799
    39  C   -0.136710
    40  C   -0.394172
    41  C   -0.058290
    42  C   -0.120552
    43  H    0.091376
    44  H    0.113377
    45  H    0.098681
    46  H    0.069264
    47  H    0.110839
    48  H    0.092136
    49  H    0.085351
    50  H    0.117827
    51  H    0.085876
    52  H    0.097457
    53  H    0.097424
    54  H    0.045636
    55  H    0.074534
    56  H    0.094299
    57  H    0.064678
    58  H    0.079951
    59  H    0.133480
    60  H    0.102840
    61  H    0.109139
    62  H    0.071426
    63  H    0.101532
    64  H    0.114281
    65  H    0.091271
    66  H    0.124141
    67  H    0.105638
    68  H    0.109685
    69  H    0.304965
    70  H    0.075520
    71  H    0.056076
    72  H    0.127639
    73  H    0.114681
    74  H    0.095153
    75  H    0.307067
    76  H    0.080123
    77  H    0.112302
    78  H    0.109170
    79  H    0.124312
    80  H    0.078638
    81  H    0.127521
    82  H    0.116344
    83  H    0.101710
    84  H    0.078158
    85  H    0.080407
    86  H    0.073908
    87  H    0.054417
    88  H    0.064713
    89  H    0.132342
    90  H    0.125007
    91  H    0.116828
    92  H    0.080916
    93  H    0.081920
    94  H    0.102415
    95  H    0.107634
    96  H    0.107601
    97  H    0.088053
    98  H    0.096896
 Sum of Mulliken charges =  -0.00000

 Dipole moment (field-independent basis, Debye):
    X=             -0.6164    Y=             -1.3577    Z=             -0.2440  Tot=              1.5109
 Quadrupole moment (field-independent basis, Debye-Ang):
   XX=           -292.1236   YY=           -243.3305   ZZ=           -262.4191
   XY=             10.7439   XZ=             39.4963   YZ=             -0.5131

 Normal termination of Gaussian 16 at Sat Jul 13 15:08:53 2019.
