 Gaussian 16, Revision A.03,
 Gaussian 16:  ES64L-G16RevA.03 25-Dec-2016

 -------------------------------------
 # td=(NStates=1) CAM-B3LYP/6-31G(d,p)
 -------------------------------------

 --
 TD
 --
 Symbolic Z-matrix:
 Charge =  0 Multiplicity = 1

                         Standard orientation:
 ---------------------------------------------------------------------
 Center     Atomic      Atomic             Coordinates (Angstroms)
 Number     Number       Type             X           Y           Z
 ---------------------------------------------------------------------
      1          8           0      -13.979638   -2.044062    0.511445
      2          8           0       14.760352    0.890493    0.005026
      3          6           0      -11.679624    0.166380    1.261352
      4          6           0      -10.884833    0.296024   -0.043026
      5          6           0      -11.909574   -1.359494    1.387577
      6          6           0      -12.585706   -2.140832    0.264607
      7          6           0      -11.457882   -0.428974   -1.272873
      8          6           0       11.142387    0.904884    1.205425
      9          6           0      -10.993079    0.784082    2.581915
     10          6           0      -12.993434    0.846352    1.186533
     11          6           0       12.622122    1.427003    0.945988
     12          6           0      -12.195966   -1.549950   -1.016699
     13          6           0       13.524551    0.316371    0.272185
     14          6           0       10.696181    0.012901    0.000166
     15          6           0       -9.454370    0.016576    0.129066
     16          6           0       12.904587   -0.058187   -1.010617
     17          6           0       11.434681   -0.391198   -0.999089
     18          6           0       10.208187    2.150263    1.164391
     19          6           0       11.028118    0.156762    2.364410
     20          6           0      -11.179985    0.041075   -2.588373
     21          6           0       -8.482208    0.814944   -0.228838
     22          6           0        9.260544   -0.405273    0.040333
     23          6           0       11.011715   -1.297837   -2.165131
     24          6           0       -7.122741    0.485931   -0.145377
     25          6           0        8.700215   -1.619405   -0.118182
     26          6           0       -6.666815   -0.942978    0.165397
     27          6           0        7.323621   -2.007337    0.021363
     28          6           0       -6.172496    1.528599   -0.397036
     29          6           0        7.087445   -3.497865    0.143231
     30          6           0        6.323153   -1.066685   -0.106444
     31          6           0       -4.870438    1.427477   -0.520397
     32          6           0        4.944072   -1.396828   -0.006477
     33          6           0       -4.100189    2.547264   -0.690235
     34          6           0       -2.571576    2.554936   -0.667475
     35          6           0        3.914489   -0.507168   -0.130958
     36          6           0        2.493671   -0.887837   -0.161259
     37          6           0       -1.924590    3.827144   -0.899192
     38          6           0       -1.849720    1.440028   -0.449013
     39          6           0        1.720687    0.140765   -0.405068
     40          6           0        2.163324   -2.220061    0.277049
     41          6           0       -0.418289    1.393700   -0.589576
     42          6           0        0.268072    0.276738   -0.383724
     43          1           0      -10.991480    1.416099   -0.393224
     44          1           0      -12.266275   -1.472495    2.287409
     45          1           0      -11.007716   -1.967572    1.528417
     46          1           0      -12.218320   -3.187991    0.106731
     47          1           0      -10.146834    0.025847    2.815189
     48          1           0      -10.785120    1.744357    2.320241
     49          1           0      -11.740162    0.643509    3.370765
     50          1           0      -13.639745    0.515680    0.469218
     51          1           0      -13.716458    0.486628    2.053495
     52          1           0      -12.770293    1.947340    1.137755
     53          1           0       12.765633    2.510565    0.362348
     54          1           0       12.969910    1.608257    1.877248
     55          1           0      -12.599126   -2.047771   -1.738616
     56          1           0       13.548258   -0.528045    0.836856
     57          1           0       -9.310526   -1.070820    0.545577
     58          1           0       13.506366   -1.079845   -1.541433
     59          1           0       13.007546    0.713943   -1.754320
     60          1           0        9.176718    1.823781    1.765456
     61          1           0       10.036872    2.365353    0.202540
     62          1           0       10.745062    3.041376    1.673971
     63          1           0       11.661180   -0.682144    2.432174
     64          1           0       10.021193   -0.389123    2.704223
     65          1           0       11.156826    0.689660    3.226807
     66          1           0      -10.150023    0.030288   -2.953019
     67          1           0      -11.525831    1.080241   -2.757390
     68          1           0      -11.800119   -0.649618   -3.139487
     69          1           0      -14.586276   -2.317188   -0.223986
     70          1           0        8.562132    0.238598    0.385633
     71          1           0       -8.739922    1.777428   -0.716515
     72          1           0       11.074259   -2.384780   -1.966245
     73          1           0        9.905707   -1.274550   -2.329724
     74          1           0       11.489518   -0.945819   -3.214717
     75          1           0       15.232765    1.220834    0.809260
     76          1           0        9.406790   -2.393770   -0.249256
     77          1           0       -5.623090   -0.904330   -0.178997
     78          1           0       -6.754724   -0.992425    1.318034
     79          1           0       -7.179002   -1.632721   -0.415788
     80          1           0       -6.573110    2.458397   -0.633452
     81          1           0        6.444789   -3.764503    1.017955
     82          1           0        6.581175   -3.828288   -0.768363
     83          1           0        8.017177   -4.232664   -0.005475
     84          1           0        6.878280   -0.153246   -0.173570
     85          1           0       -4.254797    0.652541   -0.350068
     86          1           0        4.462885   -2.356331   -0.136461
     87          1           0       -4.758324    3.317383   -0.757488
     88          1           0        4.269964    0.554725   -0.487908
     89          1           0       -0.939679    3.590292   -1.525055
     90          1           0       -1.741625    4.173341    0.056783
     91          1           0       -2.585063    4.725676   -1.409717
     92          1           0       -2.155333    0.471446   -0.173937
     93          1           0        2.074405    1.245691   -0.522202
     94          1           0        2.851704   -2.621347    1.135914
     95          1           0        1.052253   -2.159471    0.774941
     96          1           0        2.115051   -3.045878   -0.450367
     97          1           0        0.033229    2.245121   -0.699507
     98          1           0       -0.284241   -0.672860   -0.175997
 ---------------------------------------------------------------------

 SCF Done:  E(RCAM-B3LYP) =  -1706.93840917     A.U. after   14 cycles

 Excitation energies and oscillator strengths:

 Excited State   1:      Singlet-A      2.6411 eV  469.44 nm  f=3.0039  <S**2>=0.000
     155 ->158        -0.19600
     156 ->157         0.67291
 This state for optimization and/or second-order correction.
 Total Energy, E(TD-HF/TD-DFT) =  -1706.84134925
 Copying the excited state density for this state as the 1-particle RhoCI density.

 The electronic state is 1-A.
 Alpha  occ. eigenvalues --  -19.21381 -19.21092 -10.30809 -10.29566 -10.27557
 Alpha  occ. eigenvalues --  -10.27481 -10.26999 -10.26975 -10.26782 -10.26659
 Alpha  occ. eigenvalues --  -10.26536 -10.26442 -10.26193 -10.26168 -10.26067
 Alpha  occ. eigenvalues --  -10.26038 -10.25964 -10.25891 -10.25770 -10.25753
 Alpha  occ. eigenvalues --  -10.25748 -10.25733 -10.25584 -10.25537 -10.25481
 Alpha  occ. eigenvalues --  -10.25185 -10.25134 -10.25107 -10.25036 -10.24991
 Alpha  occ. eigenvalues --  -10.24881 -10.24795 -10.24560 -10.24515 -10.24496
 Alpha  occ. eigenvalues --  -10.24475 -10.24246 -10.23752 -10.23472 -10.23372
 Alpha  occ. eigenvalues --  -10.23129 -10.22987  -1.09746  -1.08911  -0.93966
 Alpha  occ. eigenvalues --   -0.93863  -0.92762  -0.92065  -0.90956  -0.90249
 Alpha  occ. eigenvalues --   -0.88055  -0.87808  -0.87522  -0.85972  -0.84676
 Alpha  occ. eigenvalues --   -0.83808  -0.82350  -0.81500  -0.79637  -0.78165
 Alpha  occ. eigenvalues --   -0.77317  -0.76870  -0.76551  -0.75880  -0.75656
 Alpha  occ. eigenvalues --   -0.75261  -0.75063  -0.74673  -0.73673  -0.69889
 Alpha  occ. eigenvalues --   -0.69112  -0.67894  -0.66645  -0.65608  -0.63939
 Alpha  occ. eigenvalues --   -0.63781  -0.63466  -0.62952  -0.61667  -0.59726
 Alpha  occ. eigenvalues --   -0.59589  -0.59148  -0.58643  -0.57938  -0.56925
 Alpha  occ. eigenvalues --   -0.56054  -0.55484  -0.54739  -0.54569  -0.53970
 Alpha  occ. eigenvalues --   -0.53823  -0.53128  -0.52316  -0.52098  -0.51327
 Alpha  occ. eigenvalues --   -0.51222  -0.50644  -0.50317  -0.49750  -0.49578
 Alpha  occ. eigenvalues --   -0.49325  -0.48813  -0.48469  -0.48270  -0.48203
 Alpha  occ. eigenvalues --   -0.47724  -0.47545  -0.47383  -0.46946  -0.46305
 Alpha  occ. eigenvalues --   -0.46119  -0.45962  -0.45830  -0.45442  -0.44830
 Alpha  occ. eigenvalues --   -0.44791  -0.44369  -0.43907  -0.43485  -0.43204
 Alpha  occ. eigenvalues --   -0.43078  -0.42487  -0.42342  -0.41687  -0.41634
 Alpha  occ. eigenvalues --   -0.41442  -0.40827  -0.40570  -0.40328  -0.40238
 Alpha  occ. eigenvalues --   -0.40117  -0.39850  -0.39720  -0.39397  -0.38835
 Alpha  occ. eigenvalues --   -0.38712  -0.38619  -0.38485  -0.38174  -0.37571
 Alpha  occ. eigenvalues --   -0.37305  -0.36824  -0.36634  -0.35618  -0.35284
 Alpha  occ. eigenvalues --   -0.34930  -0.34480  -0.33578  -0.32612  -0.32176
 Alpha  occ. eigenvalues --   -0.31308  -0.29361  -0.29008  -0.26989  -0.22771
 Alpha  occ. eigenvalues --   -0.20214
 Alpha virt. eigenvalues --   -0.03923  -0.00658   0.03423   0.05957   0.08132
 Alpha virt. eigenvalues --    0.10137   0.11815   0.12184   0.12371   0.12828
 Alpha virt. eigenvalues --    0.13017   0.13456   0.14049   0.14245   0.14414

 Mulliken charges:
               1
     1  O   -0.551878
     2  O   -0.562636
     3  C    0.005507
     4  C   -0.155158
     5  C   -0.172379
     6  C    0.154260
     7  C    0.141625
     8  C    0.013782
     9  C   -0.292292
    10  C   -0.278061
    11  C   -0.213457
    12  C   -0.124320
    13  C    0.197125
    14  C    0.045551
    15  C   -0.058072
    16  C   -0.206615
    17  C    0.058650
    18  C   -0.292717
    19  C   -0.307579
    20  C   -0.367483
    21  C   -0.086132
    22  C   -0.111479
    23  C   -0.367686
    24  C    0.064364
    25  C   -0.107959
    26  C   -0.352835
    27  C    0.090680
    28  C   -0.133282
    29  C   -0.381027
    30  C   -0.100723
    31  C    0.005234
    32  C   -0.111253
    33  C   -0.140775
    34  C    0.073926
    35  C   -0.109210
    36  C    0.142953
    37  C   -0.371040
    38  C   -0.102609
    39  C   -0.124163
    40  C   -0.401984
    41  C   -0.052333
    42  C   -0.104714
    43  H    0.052694
    44  H    0.096959
    45  H    0.077517
    46  H    0.081051
    47  H    0.090281
    48  H    0.116299
    49  H    0.109603
    50  H    0.116044
    51  H    0.082485
    52  H    0.081106
    53  H    0.083874
    54  H    0.089779
    55  H    0.050551
    56  H    0.089794
    57  H    0.082462
    58  H    0.059763
    59  H    0.122660
    60  H    0.078788
    61  H    0.127063
    62  H    0.088554
    63  H    0.107739
    64  H    0.095539
    65  H    0.106592
    66  H    0.127262
    67  H    0.113557
    68  H    0.112133
    69  H    0.302042
    70  H    0.068691
    71  H    0.080061
    72  H    0.120535
    73  H    0.119026
    74  H    0.091317
    75  H    0.306983
    76  H    0.071651
    77  H    0.111177
    78  H    0.122787
    79  H    0.127597
    80  H    0.072141
    81  H    0.122251
    82  H    0.127613
    83  H    0.093965
    84  H    0.078521
    85  H    0.067362
    86  H    0.089148
    87  H    0.062188
    88  H    0.075791
    89  H    0.111524
    90  H    0.147956
    91  H    0.095386
    92  H    0.081460
    93  H    0.077433
    94  H    0.124415
    95  H    0.096776
    96  H    0.133041
    97  H    0.064060
    98  H    0.065151
 Sum of Mulliken charges =  -0.00000

 Dipole moment (field-independent basis, Debye):
    X=             -1.0988    Y=             -0.9350    Z=              0.2592  Tot=              1.4659
 Quadrupole moment (field-independent basis, Debye-Ang):
   XX=           -250.9765   YY=           -242.8788   ZZ=           -261.1161
   XY=              9.0972   XZ=             45.1046   YZ=              2.9274

 Normal termination of Gaussian 16 at Fri Jul 12 17:08:54 2019.
