 Gaussian 16, Revision A.03,
 Gaussian 16:  ES64L-G16RevA.03 25-Dec-2016

 -------------------------------------
 # td=(NStates=1) CAM-B3LYP/6-31G(d,p)
 -------------------------------------

 --
 TD
 --
 Symbolic Z-matrix:
 Charge =  0 Multiplicity = 1

                         Standard orientation:
 ---------------------------------------------------------------------
 Center     Atomic      Atomic             Coordinates (Angstroms)
 Number     Number       Type             X           Y           Z
 ---------------------------------------------------------------------
      1          8           0      -14.146711   -2.001817    0.241635
      2          8           0       14.820488    0.862435   -0.065789
      3          6           0      -11.771169   -0.085444    1.250237
      4          6           0      -10.949530    0.230627   -0.044919
      5          6           0      -12.073835   -1.573299    1.273355
      6          6           0      -12.779992   -2.061349    0.060528
      7          6           0      -11.567913   -0.313804   -1.374301
      8          6           0       11.173324    0.936287    1.052238
      9          6           0      -10.931783    0.509296    2.506865
     10          6           0      -13.055012    0.761780    1.142411
     11          6           0       12.564747    1.513216    0.627353
     12          6           0      -12.369254   -1.372690   -1.303859
     13          6           0       13.471665    0.326364    0.296034
     14          6           0       10.578848    0.046799   -0.107836
     15          6           0       -9.438974   -0.111190    0.056250
     16          6           0       12.918938   -0.200698   -0.987683
     17          6           0       11.457584   -0.432997   -1.065980
     18          6           0       10.232702    2.203782    1.046933
     19          6           0       11.195475    0.277262    2.390351
     20          6           0      -11.090296    0.293143   -2.607541
     21          6           0       -8.453698    0.845333   -0.177963
     22          6           0        9.261314   -0.472587    0.099774
     23          6           0       11.046269   -1.215428   -2.301863
     24          6           0       -7.075245    0.509771   -0.089452
     25          6           0        8.787059   -1.677164   -0.056744
     26          6           0       -6.699918   -0.845864    0.338752
     27          6           0        7.435720   -2.206388   -0.042303
     28          6           0       -6.242220    1.547684   -0.320369
     29          6           0        7.077173   -3.616880    0.283961
     30          6           0        6.343932   -1.264417   -0.189766
     31          6           0       -4.832112    1.478942   -0.196893
     32          6           0        5.082405   -1.584115    0.034476
     33          6           0       -3.979874    2.563242   -0.562487
     34          6           0       -2.585794    2.650811   -0.470623
     35          6           0        4.080051   -0.649682   -0.166459
     36          6           0        2.700074   -0.819359   -0.046579
     37          6           0       -1.965885    3.999991   -0.735646
     38          6           0       -1.771907    1.504136   -0.214769
     39          6           0        1.730086    0.282603   -0.157483
     40          6           0        2.075891   -2.137043    0.294301
     41          6           0       -0.371887    1.400053   -0.324035
     42          6           0        0.361082    0.239476   -0.217652
     43          1           0      -10.911228    1.384721   -0.150107
     44          1           0      -12.713090   -1.720392    2.132324
     45          1           0      -11.156614   -2.155764    1.403235
     46          1           0      -12.495642   -3.208412   -0.051028
     47          1           0      -10.058469    0.011669    2.597300
     48          1           0      -10.827618    1.472736    2.333715
     49          1           0      -11.881703    0.303338    3.248274
     50          1           0      -13.690316    0.645922    0.117910
     51          1           0      -13.612061    0.363974    2.057249
     52          1           0      -12.647867    1.802120    1.331210
     53          1           0       12.474558    2.345792   -0.179627
     54          1           0       12.845117    2.031780    1.432324
     55          1           0      -12.593389   -1.713248   -2.214689
     56          1           0       13.525884   -0.316242    0.932747
     57          1           0       -9.208379   -1.216862    0.229025
     58          1           0       13.467664   -1.098722   -1.543723
     59          1           0       13.018848    0.619381   -1.770581
     60          1           0        9.118645    1.930553    1.405244
     61          1           0       10.190362    2.589408    0.003959
     62          1           0       10.445095    3.005704    1.613733
     63          1           0       11.961284   -0.677856    2.435107
     64          1           0       10.338338   -0.170026    2.574562
     65          1           0       11.269963    0.987681    3.251395
     66          1           0      -10.050873    0.367682   -2.674299
     67          1           0      -11.593190    1.195733   -2.699865
     68          1           0      -11.583692   -0.055390   -3.395193
     69          1           0      -14.646618   -2.088959   -0.336025
     70          1           0        8.586838    0.262552    0.410038
     71          1           0       -8.847142    1.827471   -0.264689
     72          1           0       11.681235   -2.164487   -2.296928
     73          1           0        9.957717   -1.539380   -2.196654
     74          1           0       11.393425   -0.683476   -3.227906
     75          1           0       15.144491    1.217402    0.759520
     76          1           0        9.441297   -2.525228   -0.288244
     77          1           0       -5.919745   -1.065858    0.323018
     78          1           0       -7.037041   -1.074818    1.247566
     79          1           0       -7.101914   -1.834918   -0.385669
     80          1           0       -6.638355    2.587985   -0.628904
     81          1           0        6.952383   -3.655341    1.404311
     82          1           0        6.016907   -3.795012   -0.218532
     83          1           0        7.851302   -4.232149   -0.033999
     84          1           0        6.732937   -0.475972   -0.676388
     85          1           0       -4.356612    0.673974    0.134071
     86          1           0        4.755584   -2.502490    0.173636
     87          1           0       -4.555104    3.531113   -1.069278
     88          1           0        4.274427    0.356438   -0.321194
     89          1           0       -1.526463    4.043074   -1.724991
     90          1           0       -1.520625    4.281253    0.234317
     91          1           0       -2.686718    4.640431   -0.956182
     92          1           0       -2.415233    0.423569   -0.451108
     93          1           0        2.306866    1.256551   -0.255520
     94          1           0        2.277403   -2.597428    1.362644
     95          1           0        1.047980   -2.084862    0.308599
     96          1           0        2.427437   -2.925796   -0.396570
     97          1           0        0.175998    2.377791   -0.287296
     98          1           0       -0.202751   -0.724868   -0.112304
 ---------------------------------------------------------------------

 SCF Done:  E(RCAM-B3LYP) =  -1706.76381747     A.U. after   16 cycles

 Excitation energies and oscillator strengths:

 Excited State   1:      Singlet-A      1.7763 eV  698.00 nm  f=3.1271  <S**2>=0.000
     155 ->158         0.13388
     156 ->157         0.70245
     156 <-157        -0.12792
 This state for optimization and/or second-order correction.
 Total Energy, E(TD-HF/TD-DFT) =  -1706.69854047
 Copying the excited state density for this state as the 1-particle RhoCI density.

 The electronic state is 1-A.
 Alpha  occ. eigenvalues --  -19.20440 -19.18814 -10.31946 -10.29090 -10.27765
 Alpha  occ. eigenvalues --  -10.27705 -10.27668 -10.27654 -10.27198 -10.27026
 Alpha  occ. eigenvalues --  -10.26950 -10.26867 -10.26860 -10.26728 -10.26595
 Alpha  occ. eigenvalues --  -10.26583 -10.26572 -10.26304 -10.26193 -10.26015
 Alpha  occ. eigenvalues --  -10.26002 -10.25943 -10.25913 -10.25819 -10.25627
 Alpha  occ. eigenvalues --  -10.25494 -10.25329 -10.25149 -10.25041 -10.24982
 Alpha  occ. eigenvalues --  -10.24966 -10.24864 -10.24810 -10.24663 -10.24552
 Alpha  occ. eigenvalues --  -10.24448 -10.24268 -10.23944 -10.23920 -10.23899
 Alpha  occ. eigenvalues --  -10.23614 -10.22645  -1.14302  -1.07532  -0.93718
 Alpha  occ. eigenvalues --   -0.93080  -0.92232  -0.92095  -0.90964  -0.89854
 Alpha  occ. eigenvalues --   -0.87801  -0.87543  -0.87044  -0.85858  -0.84906
 Alpha  occ. eigenvalues --   -0.83651  -0.82979  -0.81889  -0.80910  -0.78815
 Alpha  occ. eigenvalues --   -0.78424  -0.77323  -0.77126  -0.76415  -0.75863
 Alpha  occ. eigenvalues --   -0.75366  -0.74973  -0.74444  -0.72327  -0.71142
 Alpha  occ. eigenvalues --   -0.70235  -0.69241  -0.67437  -0.65836  -0.63423
 Alpha  occ. eigenvalues --   -0.63036  -0.62582  -0.62159  -0.61604  -0.60854
 Alpha  occ. eigenvalues --   -0.60064  -0.59731  -0.59402  -0.57785  -0.56387
 Alpha  occ. eigenvalues --   -0.55623  -0.55267  -0.55133  -0.54474  -0.53837
 Alpha  occ. eigenvalues --   -0.53678  -0.53007  -0.52405  -0.51744  -0.51548
 Alpha  occ. eigenvalues --   -0.51085  -0.50852  -0.50530  -0.50411  -0.50087
 Alpha  occ. eigenvalues --   -0.49651  -0.49179  -0.48785  -0.48465  -0.48118
 Alpha  occ. eigenvalues --   -0.48034  -0.47397  -0.47105  -0.46914  -0.46558
 Alpha  occ. eigenvalues --   -0.46211  -0.46122  -0.45555  -0.45331  -0.45017
 Alpha  occ. eigenvalues --   -0.44617  -0.44378  -0.44013  -0.43796  -0.43593
 Alpha  occ. eigenvalues --   -0.43163  -0.42991  -0.42796  -0.42139  -0.41927
 Alpha  occ. eigenvalues --   -0.41696  -0.41651  -0.41399  -0.41141  -0.41058
 Alpha  occ. eigenvalues --   -0.40775  -0.40237  -0.40111  -0.39899  -0.39264
 Alpha  occ. eigenvalues --   -0.39051  -0.38535  -0.38458  -0.38299  -0.37973
 Alpha  occ. eigenvalues --   -0.37729  -0.37114  -0.36851  -0.36350  -0.35809
 Alpha  occ. eigenvalues --   -0.34895  -0.34363  -0.33498  -0.32028  -0.31642
 Alpha  occ. eigenvalues --   -0.31204  -0.29317  -0.28407  -0.26504  -0.23306
 Alpha  occ. eigenvalues --   -0.17967
 Alpha virt. eigenvalues --   -0.07011  -0.01368   0.02991   0.05700   0.07651
 Alpha virt. eigenvalues --    0.08803   0.11006   0.11904   0.12456   0.12512
 Alpha virt. eigenvalues --    0.12714   0.13432   0.13767   0.13957   0.14213

 Mulliken charges:
               1
     1  O   -0.474255
     2  O   -0.572492
     3  C   -0.025667
     4  C   -0.131253
     5  C   -0.166625
     6  C    0.165636
     7  C    0.113317
     8  C   -0.023726
     9  C   -0.276104
    10  C   -0.270139
    11  C   -0.185003
    12  C   -0.149573
    13  C    0.195905
    14  C    0.048370
    15  C   -0.100142
    16  C   -0.222144
    17  C    0.051366
    18  C   -0.315448
    19  C   -0.294925
    20  C   -0.350296
    21  C   -0.110584
    22  C   -0.097387
    23  C   -0.356338
    24  C    0.115064
    25  C   -0.100952
    26  C   -0.273013
    27  C    0.024770
    28  C   -0.125908
    29  C   -0.350441
    30  C   -0.071337
    31  C   -0.055967
    32  C   -0.062910
    33  C   -0.133749
    34  C    0.074869
    35  C   -0.110170
    36  C    0.094527
    37  C   -0.362938
    38  C   -0.133496
    39  C   -0.133544
    40  C   -0.370459
    41  C   -0.085385
    42  C   -0.068581
    43  H    0.058057
    44  H    0.111220
    45  H    0.093360
    46  H    0.054060
    47  H    0.112890
    48  H    0.112776
    49  H    0.074307
    50  H    0.100347
    51  H    0.090899
    52  H    0.086520
    53  H    0.098481
    54  H    0.087665
    55  H    0.060959
    56  H    0.085172
    57  H    0.085310
    58  H    0.092905
    59  H    0.123789
    60  H    0.077062
    61  H    0.107507
    62  H    0.106725
    63  H    0.075012
    64  H    0.127518
    65  H    0.099266
    66  H    0.133908
    67  H    0.118455
    68  H    0.104368
    69  H    0.240819
    70  H    0.078634
    71  H    0.088115
    72  H    0.102416
    73  H    0.118254
    74  H    0.115444
    75  H    0.297714
    76  H    0.066269
    77  H    0.070508
    78  H    0.133253
    79  H    0.067598
    80  H    0.084518
    81  H    0.128676
    82  H    0.106392
    83  H    0.113500
    84  H    0.086115
    85  H    0.078670
    86  H    0.074060
    87  H    0.063692
    88  H    0.067254
    89  H    0.129832
    90  H    0.134101
    91  H    0.115753
    92  H    0.057083
    93  H    0.075407
    94  H    0.099245
    95  H    0.110480
    96  H    0.108872
    97  H    0.091056
    98  H    0.094859
 Sum of Mulliken charges =  -0.00000

 Dipole moment (field-independent basis, Debye):
    X=              0.0118    Y=              0.0250    Z=              0.0715  Tot=              0.0767
 Quadrupole moment (field-independent basis, Debye-Ang):
   XX=           -278.8345   YY=           -243.6740   ZZ=           -259.4225
   XY=             -0.3957   XZ=             41.8657   YZ=             -0.0805

 Normal termination of Gaussian 16 at Sun Jul 14 06:51:14 2019.
