 Gaussian 16, Revision A.03,
 Gaussian 16:  ES64L-G16RevA.03 25-Dec-2016

 -------------------------------------
 # td=(NStates=1) CAM-B3LYP/6-31G(d,p)
 -------------------------------------

 --
 TD
 --
 Symbolic Z-matrix:
 Charge =  0 Multiplicity = 1

                         Standard orientation:
 ---------------------------------------------------------------------
 Center     Atomic      Atomic             Coordinates (Angstroms)
 Number     Number       Type             X           Y           Z
 ---------------------------------------------------------------------
      1          8           0      -14.058998   -2.244895    0.215465
      2          8           0       14.932261    0.769964    0.122110
      3          6           0      -11.770012   -0.116610    1.371005
      4          6           0      -10.944973    0.296290    0.074340
      5          6           0      -11.954160   -1.715939    1.266072
      6          6           0      -12.678831   -2.211705   -0.005923
      7          6           0      -11.629545   -0.243360   -1.226108
      8          6           0       11.107815    0.830937    1.159306
      9          6           0      -10.987404    0.308507    2.571390
     10          6           0      -13.069953    0.745176    1.523958
     11          6           0       12.552193    1.340480    0.938717
     12          6           0      -12.351433   -1.377283   -1.280292
     13          6           0       13.589376    0.383298    0.354294
     14          6           0       10.653798   -0.109272   -0.023205
     15          6           0       -9.545125   -0.142329    0.113305
     16          6           0       12.975396   -0.162125   -1.021656
     17          6           0       11.495221   -0.438700   -1.033949
     18          6           0       10.253837    2.102696    1.372511
     19          6           0       11.066461    0.157906    2.469710
     20          6           0      -11.327039    0.532436   -2.425133
     21          6           0       -8.512765    0.904170    0.122699
     22          6           0        9.273420   -0.497929    0.170697
     23          6           0       10.955502   -1.162976   -2.321085
     24          6           0       -7.181209    0.557140    0.070248
     25          6           0        8.852986   -1.703378   -0.055939
     26          6           0       -6.762909   -0.912717    0.142371
     27          6           0        7.426082   -2.111975   -0.020664
     28          6           0       -6.296400    1.585733   -0.214572
     29          6           0        7.251672   -3.581516    0.040211
     30          6           0        6.356601   -1.149452   -0.198997
     31          6           0       -4.823982    1.453920   -0.395738
     32          6           0        4.943509   -1.390211   -0.134315
     33          6           0       -3.940990    2.514642   -0.525125
     34          6           0       -2.609377    2.584665   -0.658338
     35          6           0        4.083374   -0.488867   -0.365873
     36          6           0        2.611599   -0.678635   -0.249594
     37          6           0       -2.057007    3.949413   -1.066272
     38          6           0       -1.742261    1.564473   -0.499448
     39          6           0        1.803621    0.414615   -0.373107
     40          6           0        2.098665   -2.050948   -0.057316
     41          6           0       -0.370438    1.527641   -0.627858
     42          6           0        0.380042    0.355503   -0.383271
     43          1           0      -10.936024    1.426243   -0.049008
     44          1           0      -12.577238   -1.875677    2.094067
     45          1           0      -10.905283   -2.254368    1.491540
     46          1           0      -12.358713   -3.213390   -0.047590
     47          1           0      -10.129995   -0.282333    2.757352
     48          1           0      -11.000271    1.531927    2.426421
     49          1           0      -11.641742    0.326314    3.397007
     50          1           0      -13.870532    0.759649    0.777257
     51          1           0      -13.759624    0.402779    2.372085
     52          1           0      -12.821231    1.781747    1.660857
     53          1           0       12.483906    2.235997    0.367335
     54          1           0       13.074299    1.677676    1.840120
     55          1           0      -12.867668   -1.466241   -2.305701
     56          1           0       13.623341   -0.530048    0.918557
     57          1           0       -9.062807   -1.099466    0.224040
     58          1           0       13.652974   -0.974896   -1.386696
     59          1           0       13.266186    0.572448   -1.781682
     60          1           0        9.260200    1.838069    1.550452
     61          1           0       10.068451    2.825617    0.493398
     62          1           0       10.753639    2.954798    2.177977
     63          1           0       11.838228   -0.536978    2.562972
     64          1           0       10.042066   -0.327159    2.961897
     65          1           0       11.218382    0.884635    3.261178
     66          1           0      -10.075021    0.493383   -2.628499
     67          1           0      -11.697775    1.670071   -2.353773
     68          1           0      -11.768074   -0.132730   -3.285079
     69          1           0      -14.562937   -2.599113   -0.713214
     70          1           0        8.568371    0.251435    0.573080
     71          1           0       -8.740030    2.007725    0.116970
     72          1           0       11.267390   -2.230643   -2.265720
     73          1           0        9.868902   -1.091591   -2.340480
     74          1           0       11.401065   -0.706591   -3.195408
     75          1           0       15.413102    0.928547    0.859856
     76          1           0        9.556467   -2.530634   -0.082053
     77          1           0       -5.686467   -1.091713    0.216465
     78          1           0       -7.216692   -1.301273    1.074246
     79          1           0       -7.228264   -1.425137   -0.740838
     80          1           0       -6.721134    2.744792   -0.327675
     81          1           0        6.298256   -3.875384    0.935174
     82          1           0        6.751256   -3.977188   -0.970170
     83          1           0        8.183378   -4.096182    0.412754
     84          1           0        6.643434   -0.196104   -0.516139
     85          1           0       -4.488771    0.513416   -0.382701
     86          1           0        4.828419   -2.572713    0.150245
     87          1           0       -4.427124    3.477024   -0.796036
     88          1           0        4.488225    0.555471   -0.551212
     89          1           0       -1.421829    3.732779   -1.950767
     90          1           0       -1.350997    4.285503   -0.246105
     91          1           0       -2.917333    4.705872   -1.298960
     92          1           0       -2.159077    0.606300   -0.184400
     93          1           0        2.256366    1.562737   -0.597822
     94          1           0        2.429657   -2.499241    0.902575
     95          1           0        0.904289   -2.143369    0.058702
     96          1           0        2.174372   -2.954163   -0.750877
     97          1           0        0.253328    2.410887   -1.004383
     98          1           0       -0.213552   -0.562338   -0.164534
 ---------------------------------------------------------------------

 SCF Done:  E(RCAM-B3LYP) =  -1706.96998932     A.U. after   15 cycles

 Excitation energies and oscillator strengths:

 Excited State   1:      Singlet-A      2.2357 eV  554.56 nm  f=3.0688  <S**2>=0.000
     155 ->158         0.15280
     156 ->157         0.69007
 This state for optimization and/or second-order correction.
 Total Energy, E(TD-HF/TD-DFT) =  -1706.88782763
 Copying the excited state density for this state as the 1-particle RhoCI density.

 The electronic state is 1-A.
 Alpha  occ. eigenvalues --  -19.21829 -19.21071 -10.30695 -10.30585 -10.28908
 Alpha  occ. eigenvalues --  -10.27906 -10.27807 -10.27780 -10.27734 -10.27715
 Alpha  occ. eigenvalues --  -10.27676 -10.27421 -10.27114 -10.26983 -10.26907
 Alpha  occ. eigenvalues --  -10.26883 -10.26695 -10.26597 -10.26547 -10.26467
 Alpha  occ. eigenvalues --  -10.26283 -10.26274 -10.26252 -10.26168 -10.26106
 Alpha  occ. eigenvalues --  -10.26036 -10.25991 -10.25934 -10.25903 -10.25772
 Alpha  occ. eigenvalues --  -10.25665 -10.25529 -10.25402 -10.25369 -10.25332
 Alpha  occ. eigenvalues --  -10.25204 -10.25048 -10.24926 -10.24459 -10.24297
 Alpha  occ. eigenvalues --  -10.24161 -10.23934  -1.10819  -1.07897  -0.93451
 Alpha  occ. eigenvalues --   -0.92619  -0.92333  -0.91634  -0.90434  -0.89780
 Alpha  occ. eigenvalues --   -0.87631  -0.86743  -0.86586  -0.85255  -0.83869
 Alpha  occ. eigenvalues --   -0.82920  -0.81544  -0.80332  -0.79911  -0.77867
 Alpha  occ. eigenvalues --   -0.76807  -0.75565  -0.75450  -0.75304  -0.75079
 Alpha  occ. eigenvalues --   -0.74794  -0.74546  -0.73824  -0.72666  -0.70031
 Alpha  occ. eigenvalues --   -0.69241  -0.67235  -0.66235  -0.65217  -0.63733
 Alpha  occ. eigenvalues --   -0.63119  -0.61501  -0.61114  -0.60495  -0.59404
 Alpha  occ. eigenvalues --   -0.59102  -0.58722  -0.57737  -0.56768  -0.56222
 Alpha  occ. eigenvalues --   -0.55684  -0.55056  -0.54110  -0.53927  -0.53563
 Alpha  occ. eigenvalues --   -0.53078  -0.52660  -0.52387  -0.51545  -0.50632
 Alpha  occ. eigenvalues --   -0.50553  -0.50488  -0.49961  -0.49207  -0.49044
 Alpha  occ. eigenvalues --   -0.48771  -0.48076  -0.47995  -0.47813  -0.47561
 Alpha  occ. eigenvalues --   -0.47048  -0.46950  -0.46582  -0.46265  -0.45594
 Alpha  occ. eigenvalues --   -0.45254  -0.44901  -0.44794  -0.44546  -0.44157
 Alpha  occ. eigenvalues --   -0.43885  -0.43606  -0.43381  -0.43330  -0.43241
 Alpha  occ. eigenvalues --   -0.42688  -0.42584  -0.42316  -0.42153  -0.41836
 Alpha  occ. eigenvalues --   -0.41618  -0.41579  -0.40835  -0.40727  -0.40636
 Alpha  occ. eigenvalues --   -0.40161  -0.39974  -0.39646  -0.39384  -0.39061
 Alpha  occ. eigenvalues --   -0.38891  -0.38514  -0.38302  -0.38266  -0.37833
 Alpha  occ. eigenvalues --   -0.37624  -0.37370  -0.36353  -0.36147  -0.35325
 Alpha  occ. eigenvalues --   -0.35130  -0.34421  -0.33703  -0.32816  -0.31701
 Alpha  occ. eigenvalues --   -0.31240  -0.29058  -0.28645  -0.26282  -0.23438
 Alpha  occ. eigenvalues --   -0.19436
 Alpha virt. eigenvalues --   -0.05491  -0.01125   0.02451   0.06066   0.06884
 Alpha virt. eigenvalues --    0.08485   0.09977   0.10696   0.11523   0.12142
 Alpha virt. eigenvalues --    0.12153   0.12877   0.13459   0.13499   0.13805

 Mulliken charges:
               1
     1  O   -0.557950
     2  O   -0.550606
     3  C    0.033644
     4  C   -0.121509
     5  C   -0.211519
     6  C    0.183998
     7  C    0.136789
     8  C   -0.009241
     9  C   -0.277319
    10  C   -0.325495
    11  C   -0.195561
    12  C   -0.158857
    13  C    0.169027
    14  C    0.056829
    15  C   -0.087541
    16  C   -0.250038
    17  C    0.046112
    18  C   -0.304344
    19  C   -0.281907
    20  C   -0.339136
    21  C   -0.105857
    22  C   -0.098314
    23  C   -0.356210
    24  C    0.130311
    25  C   -0.104097
    26  C   -0.383914
    27  C    0.083457
    28  C   -0.142994
    29  C   -0.361405
    30  C   -0.131890
    31  C   -0.066070
    32  C   -0.028931
    33  C   -0.129857
    34  C    0.127100
    35  C   -0.127240
    36  C    0.120345
    37  C   -0.370974
    38  C   -0.122832
    39  C   -0.128723
    40  C   -0.386454
    41  C   -0.083676
    42  C   -0.083367
    43  H    0.081382
    44  H    0.124848
    45  H    0.081606
    46  H    0.084189
    47  H    0.101203
    48  H    0.071151
    49  H    0.107107
    50  H    0.111003
    51  H    0.097031
    52  H    0.098357
    53  H    0.107180
    54  H    0.075098
    55  H    0.065574
    56  H    0.081027
    57  H    0.090381
    58  H    0.105885
    59  H    0.117015
    60  H    0.111498
    61  H    0.090466
    62  H    0.079054
    63  H    0.102620
    64  H    0.076757
    65  H    0.102793
    66  H    0.097492
    67  H    0.103620
    68  H    0.091520
    69  H    0.307320
    70  H    0.093272
    71  H    0.085900
    72  H    0.111453
    73  H    0.126575
    74  H    0.111632
    75  H    0.297693
    76  H    0.088260
    77  H    0.114372
    78  H    0.122886
    79  H    0.131533
    80  H    0.067296
    81  H    0.066393
    82  H    0.126969
    83  H    0.118317
    84  H    0.075310
    85  H    0.068841
    86  H    0.072480
    87  H    0.067337
    88  H    0.085459
    89  H    0.123872
    90  H    0.122333
    91  H    0.100019
    92  H    0.071139
    93  H    0.077948
    94  H    0.123974
    95  H    0.086986
    96  H    0.124552
    97  H    0.078828
    98  H    0.091409
 Sum of Mulliken charges =  -0.00000

 Dipole moment (field-independent basis, Debye):
    X=              0.5822    Y=             -1.2132    Z=             -0.0151  Tot=              1.3457
 Quadrupole moment (field-independent basis, Debye-Ang):
   XX=           -255.4910   YY=           -245.2851   ZZ=           -263.5332
   XY=              2.4409   XZ=             32.6971   YZ=              2.2392

 Normal termination of Gaussian 16 at Tue Jul 16 12:27:59 2019.
