 Gaussian 16, Revision A.03,
 Gaussian 16:  ES64L-G16RevA.03 25-Dec-2016

 -------------------------------------
 # td=(NStates=1) CAM-B3LYP/6-31G(d,p)
 -------------------------------------

 --
 TD
 --
 Symbolic Z-matrix:
 Charge =  0 Multiplicity = 1

                         Standard orientation:
 ---------------------------------------------------------------------
 Center     Atomic      Atomic             Coordinates (Angstroms)
 Number     Number       Type             X           Y           Z
 ---------------------------------------------------------------------
      1          8           0       14.271033   -1.780736   -0.302271
      2          8           0      -14.813698    1.001660    0.123525
      3          6           0       11.955599    0.212678   -1.049568
      4          6           0       10.995549    0.288763    0.255689
      5          6           0       12.238608   -1.252241   -1.451256
      6          6           0       12.870337   -2.020477   -0.255578
      7          6           0       11.536653   -0.588901    1.395404
      8          6           0      -11.196430    1.026364   -0.860748
      9          6           0       11.212921    0.892315   -2.253890
     10          6           0       13.230311    1.042715   -0.808894
     11          6           0      -12.541134    1.616968   -0.375130
     12          6           0       12.365951   -1.614467    1.142826
     13          6           0      -13.524732    0.478371    0.011303
     14          6           0      -10.756967    0.035207    0.162860
     15          6           0        9.553921   -0.004948   -0.029947
     16          6           0      -13.038025   -0.202357    1.274761
     17          6           0      -11.545061   -0.513381    1.132663
     18          6           0      -10.177102    2.272393   -1.019295
     19          6           0      -11.328603    0.505203   -2.342906
     20          6           0       11.107390   -0.112189    2.741022
     21          6           0        8.539596    0.883213    0.139980
     22          6           0       -9.355826   -0.394630    0.001410
     23          6           0      -11.051154   -1.476461    2.201906
     24          6           0        7.073062    0.514474    0.046859
     25          6           0       -8.863731   -1.713701   -0.071209
     26          6           0        6.679187   -0.900704   -0.500318
     27          6           0       -7.567455   -2.082151   -0.194680
     28          6           0        6.144870    1.462225    0.251180
     29          6           0       -7.159324   -3.583612   -0.458724
     30          6           0       -6.363117   -1.231313   -0.106773
     31          6           0        4.761129    1.352030    0.414805
     32          6           0       -5.058661   -1.605818   -0.190853
     33          6           0        3.975569    2.458504    0.578715
     34          6           0        2.557804    2.462157    0.543951
     35          6           0       -3.906533   -0.722697   -0.000421
     36          6           0       -2.624513   -0.844990   -0.134140
     37          6           0        1.838349    3.743223    0.955677
     38          6           0        1.722904    1.404676    0.234698
     39          6           0       -1.727350    0.234909    0.131795
     40          6           0       -2.130891   -2.262067   -0.566651
     41          6           0        0.357817    1.307325    0.149806
     42          6           0       -0.342058    0.148346   -0.053233
     43          1           0       10.886041    1.385992    0.399516
     44          1           0       12.853216   -1.296681   -2.311999
     45          1           0       11.349106   -1.788218   -1.534243
     46          1           0       12.667486   -3.083703   -0.275865
     47          1           0       10.134036    0.581657   -2.427507
     48          1           0       11.223885    2.013571   -2.065659
     49          1           0       11.754094    0.606834   -3.213453
     50          1           0       13.914532    0.341159   -0.019466
     51          1           0       13.953494    1.108391   -1.629116
     52          1           0       13.025037    2.075174   -0.452620
     53          1           0      -12.532657    2.194613    0.354444
     54          1           0      -13.162897    2.068390   -1.338041
     55          1           0       12.558888   -2.153830    1.854956
     56          1           0      -13.779470   -0.195530   -0.702150
     57          1           0        9.096596   -1.034108   -0.298087
     58          1           0      -13.581887   -1.031166    1.790453
     59          1           0      -12.900887    0.520023    2.187150
     60          1           0       -9.206072    1.975666   -1.925684
     61          1           0       -9.771716    2.677815   -0.294904
     62          1           0      -10.733103    3.136689   -1.603345
     63          1           0      -12.011287   -0.350442   -2.305323
     64          1           0      -10.375860    0.069524   -2.604988
     65          1           0      -11.549971    1.191556   -3.077131
     66          1           0       10.137944   -0.243989    2.916196
     67          1           0       11.245127    1.071420    3.051384
     68          1           0       11.561267   -0.780595    3.592666
     69          1           0       14.685926   -2.666268    0.368523
     70          1           0       -8.741424    0.504014   -0.087988
     71          1           0        8.617930    1.747880    0.325615
     72          1           0      -11.245677   -2.615691    2.089301
     73          1           0       -9.964781   -1.397295    2.188376
     74          1           0      -11.494231   -1.347642    3.108750
     75          1           0      -15.114925    1.119339   -0.764588
     76          1           0       -9.617410   -2.494260   -0.123976
     77          1           0        5.578325   -1.209839   -0.378325
     78          1           0        6.931663   -0.945498   -1.595657
     79          1           0        7.132381   -1.878362   -0.097575
     80          1           0        6.746961    2.361790    0.559838
     81          1           0       -6.408787   -3.763750   -1.359581
     82          1           0       -6.259266   -3.896489    0.345548
     83          1           0       -7.946134   -4.100764   -0.323965
     84          1           0       -6.527877   -0.298792    0.204111
     85          1           0        4.195881    0.419216    0.303084
     86          1           0       -4.776865   -2.600432   -0.536246
     87          1           0        4.547014    3.375017    0.964136
     88          1           0       -4.347335    0.391631   -0.002397
     89          1           0        1.222881    3.567399    1.782789
     90          1           0        1.137715    3.983496    0.149895
     91          1           0        2.613920    4.411419    1.463287
     92          1           0        2.303483    0.530606    0.075417
     93          1           0       -2.282918    1.178801    0.355505
     94          1           0       -2.739936   -2.544117   -1.557562
     95          1           0       -1.049117   -2.311613   -0.749968
     96          1           0       -2.190960   -2.816106    0.517819
     97          1           0       -0.338802    2.031384    0.339999
     98          1           0        0.165574   -0.852422   -0.459955
 ---------------------------------------------------------------------

 SCF Done:  E(RCAM-B3LYP) =  -1706.80052230     A.U. after   18 cycles

 Excitation energies and oscillator strengths:

 Excited State   1:      Singlet-A      1.6524 eV  750.35 nm  f=2.9428  <S**2>=0.000
     155 ->158         0.12319
     156 ->157         0.71221
     156 <-157        -0.16341
 This state for optimization and/or second-order correction.
 Total Energy, E(TD-HF/TD-DFT) =  -1706.73979911
 Copying the excited state density for this state as the 1-particle RhoCI density.

 The electronic state is 1-A.
 Alpha  occ. eigenvalues --  -19.23152 -19.20008 -10.30818 -10.29467 -10.28341
 Alpha  occ. eigenvalues --  -10.27897 -10.27848 -10.27433 -10.27418 -10.27352
 Alpha  occ. eigenvalues --  -10.27135 -10.27096 -10.27040 -10.27030 -10.27025
 Alpha  occ. eigenvalues --  -10.26903 -10.26741 -10.26720 -10.26593 -10.26584
 Alpha  occ. eigenvalues --  -10.26496 -10.26467 -10.26373 -10.26287 -10.26182
 Alpha  occ. eigenvalues --  -10.26147 -10.26007 -10.25998 -10.25963 -10.25777
 Alpha  occ. eigenvalues --  -10.25569 -10.25094 -10.24946 -10.24814 -10.24698
 Alpha  occ. eigenvalues --  -10.24686 -10.24678 -10.24560 -10.24345 -10.24309
 Alpha  occ. eigenvalues --  -10.23946 -10.23641  -1.10716  -1.07492  -0.93509
 Alpha  occ. eigenvalues --   -0.92756  -0.92473  -0.91628  -0.90427  -0.89682
 Alpha  occ. eigenvalues --   -0.87767  -0.86542  -0.86440  -0.85529  -0.84654
 Alpha  occ. eigenvalues --   -0.82710  -0.82050  -0.80066  -0.79349  -0.78224
 Alpha  occ. eigenvalues --   -0.76554  -0.76489  -0.76426  -0.76166  -0.75547
 Alpha  occ. eigenvalues --   -0.75458  -0.75195  -0.73417  -0.72668  -0.70633
 Alpha  occ. eigenvalues --   -0.69484  -0.67791  -0.67087  -0.66060  -0.65119
 Alpha  occ. eigenvalues --   -0.64115  -0.62465  -0.62313  -0.60659  -0.60448
 Alpha  occ. eigenvalues --   -0.59981  -0.59365  -0.58614  -0.57419  -0.56451
 Alpha  occ. eigenvalues --   -0.55619  -0.55158  -0.54613  -0.54185  -0.54047
 Alpha  occ. eigenvalues --   -0.53363  -0.52769  -0.52162  -0.51912  -0.51002
 Alpha  occ. eigenvalues --   -0.50462  -0.50297  -0.49944  -0.49700  -0.49235
 Alpha  occ. eigenvalues --   -0.48871  -0.48786  -0.48433  -0.48118  -0.47913
 Alpha  occ. eigenvalues --   -0.47707  -0.47201  -0.46993  -0.46639  -0.46409
 Alpha  occ. eigenvalues --   -0.45878  -0.45598  -0.45498  -0.45117  -0.44780
 Alpha  occ. eigenvalues --   -0.44075  -0.43825  -0.43569  -0.43398  -0.43334
 Alpha  occ. eigenvalues --   -0.43152  -0.42855  -0.42447  -0.42235  -0.41918
 Alpha  occ. eigenvalues --   -0.41618  -0.41488  -0.41297  -0.41065  -0.40696
 Alpha  occ. eigenvalues --   -0.40444  -0.40300  -0.40070  -0.39962  -0.39204
 Alpha  occ. eigenvalues --   -0.38888  -0.38753  -0.38585  -0.37910  -0.37526
 Alpha  occ. eigenvalues --   -0.37096  -0.36713  -0.36223  -0.35828  -0.35316
 Alpha  occ. eigenvalues --   -0.34877  -0.34281  -0.33378  -0.32114  -0.31466
 Alpha  occ. eigenvalues --   -0.31241  -0.29626  -0.28831  -0.27335  -0.23579
 Alpha  occ. eigenvalues --   -0.17542
 Alpha virt. eigenvalues --   -0.07674  -0.01474   0.03186   0.05165   0.06291
 Alpha virt. eigenvalues --    0.07766   0.08832   0.10802   0.11439   0.11905
 Alpha virt. eigenvalues --    0.12566   0.12670   0.13440   0.13805   0.14100

 Mulliken charges:
               1
     1  O   -0.520497
     2  O   -0.568452
     3  C    0.024684
     4  C   -0.149603
     5  C   -0.165277
     6  C    0.100976
     7  C    0.138701
     8  C   -0.004463
     9  C   -0.301918
    10  C   -0.305565
    11  C   -0.148949
    12  C   -0.082197
    13  C    0.180716
    14  C    0.031105
    15  C   -0.071363
    16  C   -0.231286
    17  C    0.066117
    18  C   -0.282770
    19  C   -0.302952
    20  C   -0.357035
    21  C   -0.026655
    22  C   -0.133755
    23  C   -0.366891
    24  C    0.096923
    25  C   -0.121781
    26  C   -0.389429
    27  C    0.100276
    28  C   -0.125746
    29  C   -0.343299
    30  C   -0.099066
    31  C   -0.066236
    32  C   -0.076107
    33  C   -0.121691
    34  C    0.082590
    35  C   -0.139811
    36  C    0.108949
    37  C   -0.377751
    38  C   -0.106187
    39  C   -0.136134
    40  C   -0.354701
    41  C   -0.066831
    42  C   -0.072200
    43  H    0.091321
    44  H    0.114130
    45  H    0.102907
    46  H    0.081369
    47  H    0.098383
    48  H    0.086384
    49  H    0.088124
    50  H    0.109377
    51  H    0.104242
    52  H    0.089935
    53  H    0.105698
    54  H    0.045717
    55  H    0.044330
    56  H    0.083002
    57  H    0.073525
    58  H    0.112524
    59  H    0.107600
    60  H    0.042731
    61  H    0.113901
    62  H    0.089409
    63  H    0.093919
    64  H    0.113653
    65  H    0.115555
    66  H    0.141063
    67  H    0.097225
    68  H    0.085796
    69  H    0.288480
    70  H    0.099066
    71  H    0.026688
    72  H    0.098619
    73  H    0.128043
    74  H    0.113328
    75  H    0.298962
    76  H    0.093827
    77  H    0.100913
    78  H    0.127411
    79  H    0.107659
    80  H    0.074193
    81  H    0.116242
    82  H    0.089635
    83  H    0.099205
    84  H    0.065498
    85  H    0.094482
    86  H    0.070894
    87  H    0.085296
    88  H    0.057400
    89  H    0.131766
    90  H    0.129114
    91  H    0.098399
    92  H    0.058154
    93  H    0.092517
    94  H    0.118601
    95  H    0.104689
    96  H    0.116872
    97  H    0.078884
    98  H    0.088907
 Sum of Mulliken charges =  -0.00000

 Dipole moment (field-independent basis, Debye):
    X=              0.4873    Y=             -2.1671    Z=              0.1390  Tot=              2.2256
 Quadrupole moment (field-independent basis, Debye-Ang):
   XX=           -274.6365   YY=           -244.2700   ZZ=           -260.2413
   XY=            -17.8539   XZ=             29.0284   YZ=              0.2197

 Normal termination of Gaussian 16 at Mon Jul 15 04:25:55 2019.
