 Gaussian 16, Revision A.03,
 Gaussian 16:  ES64L-G16RevA.03 25-Dec-2016

 -------------------------------------
 # td=(NStates=1) CAM-B3LYP/6-31G(d,p)
 -------------------------------------

 --
 TD
 --
 Symbolic Z-matrix:
 Charge =  0 Multiplicity = 1

                         Standard orientation:
 ---------------------------------------------------------------------
 Center     Atomic      Atomic             Coordinates (Angstroms)
 Number     Number       Type             X           Y           Z
 ---------------------------------------------------------------------
      1          8           0      -14.215933   -1.922233    0.705565
      2          8           0       14.781204    0.987360    0.202689
      3          6           0      -11.799150    0.119423    1.177082
      4          6           0      -11.104227    0.339640   -0.069399
      5          6           0      -12.071426   -1.392583    1.463566
      6          6           0      -12.766006   -2.094424    0.311773
      7          6           0      -11.698734   -0.423428   -1.249836
      8          6           0       11.094858    1.122902    0.981878
      9          6           0      -10.959779    0.690018    2.335244
     10          6           0      -13.174665    0.791761    1.197076
     11          6           0       12.530577    1.509490    0.768052
     12          6           0      -12.428132   -1.549845   -1.043541
     13          6           0       13.524722    0.480951    0.452378
     14          6           0       10.715514   -0.066893   -0.053545
     15          6           0       -9.579128    0.015715   -0.047417
     16          6           0       13.137338   -0.131957   -0.857403
     17          6           0       11.591357   -0.524692   -0.951735
     18          6           0       10.182827    2.293993    1.012641
     19          6           0       11.031876    0.411810    2.483247
     20          6           0      -11.319267   -0.027305   -2.593695
     21          6           0       -8.574073    0.835595   -0.121450
     22          6           0        9.314347   -0.475139    0.030933
     23          6           0       11.286560   -1.441428   -2.109841
     24          6           0       -7.093591    0.567528   -0.020386
     25          6           0        8.768658   -1.708068   -0.266025
     26          6           0       -6.744043   -0.835704    0.117720
     27          6           0        7.441129   -2.178075   -0.152795
     28          6           0       -6.167918    1.514759   -0.258638
     29          6           0        7.238460   -3.619243    0.243556
     30          6           0        6.352108   -1.322473   -0.263850
     31          6           0       -4.767060    1.415330   -0.388081
     32          6           0        5.000162   -1.611103   -0.102244
     33          6           0       -4.013684    2.486237   -0.643149
     34          6           0       -2.582563    2.546853   -0.737255
     35          6           0        3.966753   -0.677775   -0.103234
     36          6           0        2.631401   -0.855605    0.058753
     37          6           0       -1.929002    3.848592   -1.056050
     38          6           0       -1.700609    1.413042   -0.596565
     39          6           0        1.791418    0.226632   -0.288403
     40          6           0        2.058306   -2.195247    0.240982
     41          6           0       -0.285171    1.484977   -0.577582
     42          6           0        0.435187    0.252235   -0.276465
     43          1           0      -11.084947    1.566576   -0.301099
     44          1           0      -12.519442   -1.707414    2.507415
     45          1           0      -11.058720   -1.894548    1.241617
     46          1           0      -12.656390   -3.287019    0.176813
     47          1           0      -10.179977   -0.008039    2.539974
     48          1           0      -10.642464    1.720008    1.962666
     49          1           0      -11.459298    0.729495    3.251082
     50          1           0      -13.896348    0.637629    0.268837
     51          1           0      -13.653788    0.739879    2.214537
     52          1           0      -12.897243    1.820467    0.900895
     53          1           0       12.711479    2.204681    0.030953
     54          1           0       12.906579    1.971162    1.668783
     55          1           0      -12.855176   -2.169762   -1.747017
     56          1           0       13.519449   -0.231028    1.080562
     57          1           0       -9.335302   -0.820539    0.428111
     58          1           0       13.768235   -1.112910   -0.989377
     59          1           0       13.411547    0.326936   -1.853940
     60          1           0        9.166146    2.068562    1.366249
     61          1           0       10.058212    2.749676   -0.047271
     62          1           0       10.692263    2.953795    1.791160
     63          1           0       11.795004   -0.480418    2.525129
     64          1           0        9.932255    0.112752    2.645552
     65          1           0       11.370459    1.155639    3.163866
     66          1           0      -10.185556    0.363113   -2.359082
     67          1           0      -11.896909    0.964954   -2.912086
     68          1           0      -11.420519   -0.989413   -3.350131
     69          1           0      -14.717530   -1.963917   -0.079827
     70          1           0        8.551498    0.188594    0.367273
     71          1           0       -8.646156    1.985293   -0.455304
     72          1           0       11.404540   -2.385557   -1.969765
     73          1           0       10.222406   -1.328806   -2.287507
     74          1           0       11.799830   -1.326609   -3.089131
     75          1           0       15.117099    1.572268    0.877702
     76          1           0        9.491487   -2.605713   -0.238770
     77          1           0       -5.570793   -1.078671    0.081223
     78          1           0       -7.068614   -0.956604    1.128886
     79          1           0       -7.064502   -1.478151   -0.643073
     80          1           0       -6.474449    2.562541   -0.468849
     81          1           0        6.802649   -3.652822    1.333211
     82          1           0        6.373243   -4.313468   -0.374598
     83          1           0        8.203687   -4.159781    0.235731
     84          1           0        6.624718   -0.328082   -0.618542
     85          1           0       -4.496912    0.496101   -0.139250
     86          1           0        4.842296   -2.631149    0.091230
     87          1           0       -4.565653    3.497875   -0.925177
     88          1           0        4.391102    0.346845   -0.195676
     89          1           0       -1.057680    3.711557   -1.889146
     90          1           0       -1.406452    4.439630   -0.153825
     91          1           0       -2.839179    4.555904   -1.544533
     92          1           0       -2.216499    0.355856   -0.683078
     93          1           0        2.242685    1.149997   -0.387947
     94          1           0        2.371633   -2.616715    1.302994
     95          1           0        1.015289   -2.108342    0.437843
     96          1           0        2.254469   -3.004542   -0.533794
     97          1           0        0.304104    2.397896   -0.823845
     98          1           0       -0.011999   -0.645661   -0.102476
 ---------------------------------------------------------------------

 SCF Done:  E(RCAM-B3LYP) =  -1706.96198326     A.U. after   15 cycles

 Excitation energies and oscillator strengths:

 Excited State   1:      Singlet-A      1.8759 eV  660.92 nm  f=3.0366  <S**2>=0.000
     155 ->158         0.13063
     156 ->157         0.70191
     156 <-157        -0.12080
 This state for optimization and/or second-order correction.
 Total Energy, E(TD-HF/TD-DFT) =  -1706.89304433
 Copying the excited state density for this state as the 1-particle RhoCI density.

 The electronic state is 1-A.
 Alpha  occ. eigenvalues --  -19.20932 -19.19115 -10.31036 -10.28864 -10.28535
 Alpha  occ. eigenvalues --  -10.28122 -10.28067 -10.28058 -10.28047 -10.27906
 Alpha  occ. eigenvalues --  -10.27864 -10.27650 -10.27459 -10.27406 -10.27360
 Alpha  occ. eigenvalues --  -10.27241 -10.27074 -10.27040 -10.27012 -10.26488
 Alpha  occ. eigenvalues --  -10.26394 -10.26333 -10.26194 -10.26157 -10.26104
 Alpha  occ. eigenvalues --  -10.26044 -10.26007 -10.25969 -10.25935 -10.25743
 Alpha  occ. eigenvalues --  -10.25665 -10.25611 -10.25548 -10.25357 -10.25315
 Alpha  occ. eigenvalues --  -10.25225 -10.25074 -10.24728 -10.24299 -10.23746
 Alpha  occ. eigenvalues --  -10.23308 -10.23208  -1.11020  -1.06470  -0.94795
 Alpha  occ. eigenvalues --   -0.93119  -0.92803  -0.92449  -0.90851  -0.90145
 Alpha  occ. eigenvalues --   -0.87725  -0.87368  -0.86838  -0.85918  -0.85077
 Alpha  occ. eigenvalues --   -0.83779  -0.82673  -0.81356  -0.80285  -0.78403
 Alpha  occ. eigenvalues --   -0.76740  -0.76456  -0.76289  -0.75952  -0.75771
 Alpha  occ. eigenvalues --   -0.74859  -0.74768  -0.74758  -0.72128  -0.70662
 Alpha  occ. eigenvalues --   -0.69484  -0.67337  -0.66396  -0.65848  -0.63977
 Alpha  occ. eigenvalues --   -0.63390  -0.63220  -0.62891  -0.61368  -0.60682
 Alpha  occ. eigenvalues --   -0.60431  -0.59086  -0.58124  -0.57124  -0.56689
 Alpha  occ. eigenvalues --   -0.55856  -0.55159  -0.54949  -0.54323  -0.53905
 Alpha  occ. eigenvalues --   -0.53645  -0.53258  -0.52105  -0.51747  -0.51151
 Alpha  occ. eigenvalues --   -0.50937  -0.50223  -0.49977  -0.49385  -0.49277
 Alpha  occ. eigenvalues --   -0.49056  -0.48698  -0.48542  -0.48510  -0.47563
 Alpha  occ. eigenvalues --   -0.47128  -0.47062  -0.46743  -0.46482  -0.46351
 Alpha  occ. eigenvalues --   -0.46094  -0.45598  -0.45498  -0.44608  -0.44500
 Alpha  occ. eigenvalues --   -0.44329  -0.44072  -0.43899  -0.43359  -0.43283
 Alpha  occ. eigenvalues --   -0.42646  -0.42521  -0.42256  -0.41910  -0.41663
 Alpha  occ. eigenvalues --   -0.41541  -0.41493  -0.41125  -0.40981  -0.40835
 Alpha  occ. eigenvalues --   -0.40796  -0.40343  -0.39837  -0.39749  -0.39654
 Alpha  occ. eigenvalues --   -0.39266  -0.39036  -0.38480  -0.38377  -0.37976
 Alpha  occ. eigenvalues --   -0.37687  -0.37408  -0.36730  -0.36332  -0.35221
 Alpha  occ. eigenvalues --   -0.34640  -0.34281  -0.34243  -0.33297  -0.32302
 Alpha  occ. eigenvalues --   -0.31020  -0.29644  -0.28909  -0.27286  -0.24046
 Alpha  occ. eigenvalues --   -0.18667
 Alpha virt. eigenvalues --   -0.07114  -0.01015   0.02403   0.04708   0.06755
 Alpha virt. eigenvalues --    0.09018   0.11311   0.11817   0.11978   0.12496
 Alpha virt. eigenvalues --    0.12636   0.13020   0.13168   0.13615   0.13907

 Mulliken charges:
               1
     1  O   -0.557228
     2  O   -0.560406
     3  C    0.019433
     4  C   -0.143515
     5  C   -0.174320
     6  C    0.140402
     7  C    0.157965
     8  C   -0.014896
     9  C   -0.285487
    10  C   -0.256626
    11  C   -0.193671
    12  C   -0.145474
    13  C    0.221957
    14  C    0.079508
    15  C   -0.095220
    16  C   -0.229947
    17  C    0.030811
    18  C   -0.290912
    19  C   -0.306573
    20  C   -0.348187
    21  C   -0.058218
    22  C   -0.117914
    23  C   -0.370952
    24  C    0.078535
    25  C   -0.129773
    26  C   -0.370839
    27  C    0.104534
    28  C   -0.133035
    29  C   -0.366673
    30  C   -0.120247
    31  C   -0.001841
    32  C   -0.077930
    33  C   -0.131967
    34  C    0.101912
    35  C   -0.113815
    36  C    0.114149
    37  C   -0.360168
    38  C   -0.118651
    39  C   -0.097462
    40  C   -0.376915
    41  C   -0.102632
    42  C   -0.063444
    43  H    0.074512
    44  H    0.110301
    45  H    0.071150
    46  H    0.063863
    47  H    0.100832
    48  H    0.095691
    49  H    0.102189
    50  H    0.093600
    51  H    0.103659
    52  H    0.070264
    53  H    0.106246
    54  H    0.063710
    55  H    0.079710
    56  H    0.078834
    57  H    0.085825
    58  H    0.088203
    59  H    0.113804
    60  H    0.106175
    61  H    0.102485
    62  H    0.097437
    63  H    0.095114
    64  H    0.103634
    65  H    0.102281
    66  H    0.103092
    67  H    0.108733
    68  H    0.102650
    69  H    0.286681
    70  H    0.083396
    71  H    0.063173
    72  H    0.131362
    73  H    0.120948
    74  H    0.099501
    75  H    0.297249
    76  H    0.072823
    77  H    0.082674
    78  H    0.133801
    79  H    0.138144
    80  H    0.065146
    81  H    0.119397
    82  H    0.089347
    83  H    0.110945
    84  H    0.075091
    85  H    0.063230
    86  H    0.073837
    87  H    0.079822
    88  H    0.075323
    89  H    0.105061
    90  H    0.113911
    91  H    0.082247
    92  H    0.086409
    93  H    0.073325
    94  H    0.101488
    95  H    0.112611
    96  H    0.126927
    97  H    0.101366
    98  H    0.076508
 Sum of Mulliken charges =  -0.00000

 Dipole moment (field-independent basis, Debye):
    X=              1.4289    Y=             -0.0077    Z=              0.0167  Tot=              1.4290
 Quadrupole moment (field-independent basis, Debye-Ang):
   XX=           -288.8871   YY=           -247.5414   ZZ=           -262.3151
   XY=              5.8219   XZ=             38.2347   YZ=              3.6015

 Normal termination of Gaussian 16 at Sat Jul 13 20:13:14 2019.
