 Gaussian 16, Revision A.03,
 Gaussian 16:  ES64L-G16RevA.03 25-Dec-2016

 -------------------------------------
 # td=(NStates=1) CAM-B3LYP/6-31G(d,p)
 -------------------------------------

 --
 TD
 --
 Symbolic Z-matrix:
 Charge =  0 Multiplicity = 1

                         Standard orientation:
 ---------------------------------------------------------------------
 Center     Atomic      Atomic             Coordinates (Angstroms)
 Number     Number       Type             X           Y           Z
 ---------------------------------------------------------------------
      1          8           0      -13.915352   -2.141544    0.808002
      2          8           0       14.739558    0.960010    0.361748
      3          6           0      -11.769532    0.038263    1.243985
      4          6           0      -10.971700    0.287524   -0.121186
      5          6           0      -11.889074   -1.401767    1.526210
      6          6           0      -12.523030   -2.169568    0.434892
      7          6           0      -11.668286   -0.469986   -1.242199
      8          6           0       11.024686    0.923170    1.134655
      9          6           0      -10.923697    0.607562    2.415182
     10          6           0      -13.026259    0.812484    1.171388
     11          6           0       12.433433    1.498942    0.925704
     12          6           0      -12.340121   -1.546402   -0.950453
     13          6           0       13.406665    0.400391    0.570935
     14          6           0       10.624534   -0.096129    0.067491
     15          6           0       -9.517051   -0.073261    0.012039
     16          6           0       12.934708   -0.118238   -0.816350
     17          6           0       11.565943   -0.548690   -0.895823
     18          6           0        9.973126    2.129805    1.005042
     19          6           0       10.781529    0.369164    2.646367
     20          6           0      -11.331773   -0.046057   -2.680033
     21          6           0       -8.519938    0.875185   -0.149281
     22          6           0        9.276779   -0.472172    0.073145
     23          6           0       11.234394   -1.284758   -2.206480
     24          6           0       -7.123230    0.651443   -0.034324
     25          6           0        8.757054   -1.754058   -0.104376
     26          6           0       -6.545587   -0.772410    0.190353
     27          6           0        7.384908   -2.193350   -0.182775
     28          6           0       -6.188829    1.586669   -0.253536
     29          6           0        7.019876   -3.615411   -0.000947
     30          6           0        6.366221   -1.298813   -0.381136
     31          6           0       -4.727464    1.555899   -0.339750
     32          6           0        5.003889   -1.614117   -0.292689
     33          6           0       -3.945275    2.744900   -0.638984
     34          6           0       -2.530761    2.662621   -0.747514
     35          6           0        3.944442   -0.707044   -0.449158
     36          6           0        2.563707   -0.817883   -0.255833
     37          6           0       -1.904401    4.006645   -1.227150
     38          6           0       -1.808819    1.446965   -0.545374
     39          6           0        1.747914    0.293796   -0.374095
     40          6           0        2.122124   -2.281066    0.075844
     41          6           0       -0.349103    1.532341   -0.489992
     42          6           0        0.364817    0.335994   -0.380440
     43          1           0      -11.099501    1.507932   -0.321632
     44          1           0      -12.451977   -1.443148    2.413998
     45          1           0      -10.768753   -1.891722    1.738814
     46          1           0      -12.104274   -3.201819    0.479110
     47          1           0      -10.007456    0.071217    2.735844
     48          1           0      -10.466014    1.717573    2.305407
     49          1           0      -11.550961    0.747316    3.335656
     50          1           0      -13.700438    0.405598    0.377684
     51          1           0      -13.391115    0.617762    2.131714
     52          1           0      -12.873343    1.838264    1.316727
     53          1           0       12.397266    2.316777    0.179731
     54          1           0       12.834265    1.804704    1.995470
     55          1           0      -12.987457   -2.143917   -1.772076
     56          1           0       13.464509   -0.365459    1.350924
     57          1           0       -9.150374   -1.048026    0.132949
     58          1           0       13.570456   -0.992066   -0.856619
     59          1           0       13.297714    0.756034   -1.557408
     60          1           0        9.115084    1.537254    1.564727
     61          1           0        9.742738    2.526777    0.090098
     62          1           0       10.267253    2.763720    1.632563
     63          1           0       11.446978   -0.403492    2.824393
     64          1           0        9.909728   -0.056705    2.689671
     65          1           0       11.025871    1.160794    3.467628
     66          1           0      -10.242251    0.141727   -2.677011
     67          1           0      -11.904929    0.847821   -2.934135
     68          1           0      -11.501561   -0.665141   -3.448236
     69          1           0      -14.441558   -2.432006   -0.012643
     70          1           0        8.425951    0.387120    0.245013
     71          1           0       -8.799832    1.919959   -0.433981
     72          1           0       11.589640   -2.355121   -2.201912
     73          1           0       10.144288   -1.058461   -2.392242
     74          1           0       11.951906   -0.731530   -3.107731
     75          1           0       14.996190    1.517221    1.170746
     76          1           0        9.586403   -2.482936   -0.333861
     77          1           0       -5.494270   -0.953080   -0.040235
     78          1           0       -6.788910   -1.244249    1.113538
     79          1           0       -6.832259   -1.463769   -0.459128
     80          1           0       -6.436393    2.554590   -0.531899
     81          1           0        6.735920   -3.664601    1.009679
     82          1           0        6.195306   -3.943465   -0.528494
     83          1           0        7.838155   -4.386440   -0.287207
     84          1           0        6.779398   -0.327442   -0.582163
     85          1           0       -4.191433    0.548697   -0.299334
     86          1           0        4.662736   -2.703162   -0.131327
     87          1           0       -4.489966    3.539611   -0.783933
     88          1           0        4.285011    0.258222   -0.944793
     89          1           0       -1.281572    3.988108   -2.156738
     90          1           0       -1.312168    4.231407   -0.360092
     91          1           0       -2.702705    4.642107   -1.261685
     92          1           0       -2.261173    0.673597   -0.112014
     93          1           0        2.393211    1.122206   -0.539612
     94          1           0        2.555365   -2.367145    1.041612
     95          1           0        1.057139   -2.210890   -0.214053
     96          1           0        2.653665   -2.923414   -0.564905
     97          1           0        0.210461    2.408536   -0.994396
     98          1           0       -0.054521   -0.512666   -0.260333
 ---------------------------------------------------------------------

 SCF Done:  E(RCAM-B3LYP) =  -1706.95865023     A.U. after   15 cycles

 Excitation energies and oscillator strengths:

 Excited State   1:      Singlet-A      2.0094 eV  617.01 nm  f=3.0330  <S**2>=0.000
     155 ->158         0.15804
     156 ->157         0.68986
 This state for optimization and/or second-order correction.
 Total Energy, E(TD-HF/TD-DFT) =  -1706.88480503
 Copying the excited state density for this state as the 1-particle RhoCI density.

 The electronic state is 1-A.
 Alpha  occ. eigenvalues --  -19.21620 -19.20855 -10.30650 -10.29956 -10.27958
 Alpha  occ. eigenvalues --  -10.27911 -10.27882 -10.27853 -10.27426 -10.27422
 Alpha  occ. eigenvalues --  -10.27357 -10.27224 -10.26980 -10.26773 -10.26762
 Alpha  occ. eigenvalues --  -10.26640 -10.26622 -10.26524 -10.26501 -10.26417
 Alpha  occ. eigenvalues --  -10.26380 -10.26264 -10.26179 -10.26087 -10.26001
 Alpha  occ. eigenvalues --  -10.25630 -10.25570 -10.25534 -10.25295 -10.25277
 Alpha  occ. eigenvalues --  -10.25162 -10.25101 -10.25041 -10.24987 -10.24915
 Alpha  occ. eigenvalues --  -10.24893 -10.24652 -10.24457 -10.24089 -10.23975
 Alpha  occ. eigenvalues --  -10.22991 -10.22441  -1.08473  -1.06944  -0.94044
 Alpha  occ. eigenvalues --   -0.93335  -0.92003  -0.91418  -0.90739  -0.89852
 Alpha  occ. eigenvalues --   -0.87627  -0.86837  -0.86606  -0.85215  -0.84621
 Alpha  occ. eigenvalues --   -0.82516  -0.81821  -0.80827  -0.79906  -0.79029
 Alpha  occ. eigenvalues --   -0.77743  -0.77099  -0.77028  -0.76592  -0.76001
 Alpha  occ. eigenvalues --   -0.75574  -0.74946  -0.74324  -0.73193  -0.70537
 Alpha  occ. eigenvalues --   -0.69207  -0.67702  -0.66747  -0.64450  -0.63665
 Alpha  occ. eigenvalues --   -0.63478  -0.63101  -0.62786  -0.61172  -0.60158
 Alpha  occ. eigenvalues --   -0.58758  -0.58039  -0.57501  -0.57459  -0.56698
 Alpha  occ. eigenvalues --   -0.55672  -0.54910  -0.54612  -0.54137  -0.53637
 Alpha  occ. eigenvalues --   -0.53128  -0.52901  -0.52337  -0.52165  -0.51573
 Alpha  occ. eigenvalues --   -0.50886  -0.50527  -0.50370  -0.49701  -0.49641
 Alpha  occ. eigenvalues --   -0.49224  -0.48986  -0.48860  -0.48690  -0.48579
 Alpha  occ. eigenvalues --   -0.48225  -0.48017  -0.47616  -0.47181  -0.46563
 Alpha  occ. eigenvalues --   -0.46270  -0.46032  -0.45633  -0.45129  -0.44701
 Alpha  occ. eigenvalues --   -0.44219  -0.44117  -0.43830  -0.43381  -0.43197
 Alpha  occ. eigenvalues --   -0.43096  -0.42716  -0.42571  -0.42390  -0.41887
 Alpha  occ. eigenvalues --   -0.41827  -0.41538  -0.41351  -0.40911  -0.40621
 Alpha  occ. eigenvalues --   -0.40369  -0.40297  -0.39996  -0.39736  -0.39405
 Alpha  occ. eigenvalues --   -0.39284  -0.39114  -0.38413  -0.38255  -0.37828
 Alpha  occ. eigenvalues --   -0.37750  -0.36636  -0.36544  -0.36319  -0.36109
 Alpha  occ. eigenvalues --   -0.34982  -0.34340  -0.33291  -0.32582  -0.31943
 Alpha  occ. eigenvalues --   -0.31055  -0.30503  -0.28477  -0.26430  -0.23229
 Alpha  occ. eigenvalues --   -0.18942
 Alpha virt. eigenvalues --   -0.06075  -0.01667   0.02392   0.05293   0.06861
 Alpha virt. eigenvalues --    0.07925   0.10423   0.11797   0.11972   0.12811
 Alpha virt. eigenvalues --    0.13162   0.13427   0.13768   0.13883   0.14165

 Mulliken charges:
               1
     1  O   -0.553576
     2  O   -0.579798
     3  C    0.016370
     4  C   -0.140146
     5  C   -0.149390
     6  C    0.150501
     7  C    0.116396
     8  C   -0.050796
     9  C   -0.317245
    10  C   -0.283367
    11  C   -0.184954
    12  C   -0.147766
    13  C    0.158278
    14  C    0.087391
    15  C   -0.065288
    16  C   -0.223938
    17  C    0.058815
    18  C   -0.279849
    19  C   -0.311223
    20  C   -0.352665
    21  C   -0.103993
    22  C   -0.144729
    23  C   -0.342905
    24  C    0.134252
    25  C   -0.131387
    26  C   -0.391618
    27  C    0.088954
    28  C   -0.145755
    29  C   -0.375125
    30  C   -0.091825
    31  C   -0.067730
    32  C   -0.113028
    33  C   -0.108239
    34  C    0.053322
    35  C   -0.122232
    36  C    0.060775
    37  C   -0.364826
    38  C   -0.101513
    39  C   -0.102844
    40  C   -0.358929
    41  C   -0.106323
    42  C   -0.053556
    43  H    0.073471
    44  H    0.123465
    45  H    0.062393
    46  H    0.085767
    47  H    0.106178
    48  H    0.074990
    49  H    0.090781
    50  H    0.113782
    51  H    0.100731
    52  H    0.103635
    53  H    0.106749
    54  H    0.057268
    55  H    0.056847
    56  H    0.089318
    57  H    0.090878
    58  H    0.114638
    59  H    0.114150
    60  H    0.087130
    61  H    0.110032
    62  H    0.104619
    63  H    0.106141
    64  H    0.123598
    65  H    0.091863
    66  H    0.119793
    67  H    0.113594
    68  H    0.119440
    69  H    0.300525
    70  H    0.088877
    71  H    0.080673
    72  H    0.120789
    73  H    0.128086
    74  H    0.076861
    75  H    0.303106
    76  H    0.081285
    77  H    0.103354
    78  H    0.118228
    79  H    0.127072
    80  H    0.068291
    81  H    0.136405
    82  H    0.126453
    83  H    0.096352
    84  H    0.078287
    85  H    0.080237
    86  H    0.074371
    87  H    0.076574
    88  H    0.070123
    89  H    0.125438
    90  H    0.135036
    91  H    0.114368
    92  H    0.086284
    93  H    0.072188
    94  H    0.141812
    95  H    0.107143
    96  H    0.125851
    97  H    0.094124
    98  H    0.062057
 Sum of Mulliken charges =  -0.00000

 Dipole moment (field-independent basis, Debye):
    X=             -1.2743    Y=             -0.2780    Z=             -0.6123  Tot=              1.4408
 Quadrupole moment (field-independent basis, Debye-Ang):
   XX=           -279.1306   YY=           -243.2519   ZZ=           -260.6547
   XY=              6.0961   XZ=             39.0006   YZ=              1.6861

 Normal termination of Gaussian 16 at Mon Jul 15 15:36:05 2019.
