 Gaussian 16, Revision A.03,
 Gaussian 16:  ES64L-G16RevA.03 25-Dec-2016

 -------------------------------------
 # td=(NStates=1) CAM-B3LYP/6-31G(d,p)
 -------------------------------------

 --
 TD
 --
 Symbolic Z-matrix:
 Charge =  0 Multiplicity = 1

                         Standard orientation:
 ---------------------------------------------------------------------
 Center     Atomic      Atomic             Coordinates (Angstroms)
 Number     Number       Type             X           Y           Z
 ---------------------------------------------------------------------
      1          8           0      -14.010148   -2.189826    0.793528
      2          8           0       14.630711    0.961966    0.439479
      3          6           0      -11.676536    0.157625    1.285812
      4          6           0      -11.006249    0.330727   -0.011022
      5          6           0      -11.775216   -1.373417    1.533938
      6          6           0      -12.572081   -2.212359    0.437958
      7          6           0      -11.680029   -0.400665   -1.206142
      8          6           0       10.995725    1.036201    1.164205
      9          6           0      -10.928931    0.698594    2.547539
     10          6           0      -13.099794    0.809696    1.325156
     11          6           0       12.458894    1.594119    0.889107
     12          6           0      -12.334199   -1.561024   -0.951980
     13          6           0       13.441717    0.455029    0.495023
     14          6           0       10.595796   -0.011721   -0.068539
     15          6           0       -9.512094    0.039891   -0.007421
     16          6           0       13.033894    0.000292   -0.906676
     17          6           0       11.557310   -0.517066   -0.873382
     18          6           0       10.007792    2.180931    1.349586
     19          6           0       10.957270    0.168646    2.459778
     20          6           0      -11.367607    0.075063   -2.623527
     21          6           0       -8.525187    0.889709   -0.347085
     22          6           0        9.218650   -0.430113   -0.122775
     23          6           0       11.297064   -1.352814   -2.129852
     24          6           0       -7.200082    0.565287   -0.224904
     25          6           0        8.827389   -1.666060   -0.233754
     26          6           0       -6.755675   -0.896366    0.135713
     27          6           0        7.470990   -2.150296   -0.152348
     28          6           0       -6.228529    1.521413   -0.520655
     29          6           0        7.253114   -3.543943    0.194083
     30          6           0        6.396031   -1.223858   -0.294300
     31          6           0       -4.801206    1.427951   -0.457550
     32          6           0        5.047697   -1.554515   -0.248111
     33          6           0       -3.944678    2.568517   -0.589062
     34          6           0       -2.595233    2.671209   -0.712880
     35          6           0        4.006877   -0.633884   -0.472861
     36          6           0        2.613110   -0.906681   -0.349757
     37          6           0       -1.900317    3.946099   -0.942037
     38          6           0       -1.790466    1.467187   -0.606530
     39          6           0        1.727578    0.061224   -0.534924
     40          6           0        2.142779   -2.360668    0.005021
     41          6           0       -0.375112    1.327183   -0.693547
     42          6           0        0.326671    0.152553   -0.513208
     43          1           0      -11.290882    1.408668   -0.088795
     44          1           0      -12.166836   -1.498726    2.735559
     45          1           0      -10.872422   -1.765129    1.651708
     46          1           0      -12.242626   -3.156952    0.437195
     47          1           0       -9.936979    0.197656    2.687398
     48          1           0      -10.805667    1.753214    2.472899
     49          1           0      -11.457272    0.279364    3.448755
     50          1           0      -13.713190    0.610944    0.483273
     51          1           0      -13.564080    1.010327    2.315413
     52          1           0      -12.909582    1.929723    1.038010
     53          1           0       12.746752    2.465846    0.088039
     54          1           0       12.747951    2.117978    1.911197
     55          1           0      -13.035182   -1.946506   -1.726358
     56          1           0       13.149517   -0.411335    1.378731
     57          1           0       -9.243339   -1.012314    0.016613
     58          1           0       13.917278   -0.796612   -1.206568
     59          1           0       13.030385    0.756128   -1.664721
     60          1           0        9.029057    1.815930    1.566111
     61          1           0        9.865180    2.976480    0.519841
     62          1           0       10.432419    2.939963    2.276420
     63          1           0       11.801645   -0.764487    2.481559
     64          1           0        9.937597   -0.266817    2.653823
     65          1           0       11.180349    0.805805    3.391872
     66          1           0      -10.255602    0.041080   -2.826373
     67          1           0      -11.691895    1.158926   -2.675797
     68          1           0      -11.730939   -0.417691   -3.386356
     69          1           0      -14.527911   -2.356979   -0.022466
     70          1           0        8.548658    0.435895   -0.029035
     71          1           0       -8.658221    2.093508   -0.455179
     72          1           0       11.452619   -2.291362   -1.916795
     73          1           0       10.205280   -1.169468   -2.317726
     74          1           0       11.876523   -0.919304   -2.816497
     75          1           0       15.004857    1.273325    1.248220
     76          1           0        9.529658   -2.535621   -0.104896
     77          1           0       -5.751484   -0.743406    0.099715
     78          1           0       -7.028547   -1.036927    1.265398
     79          1           0       -7.030927   -1.654035   -0.470562
     80          1           0       -6.632458    2.501497   -0.751067
     81          1           0        6.685413   -3.581481    1.258133
     82          1           0        6.683313   -4.056370   -0.410254
     83          1           0        8.450585   -3.973265    0.567410
     84          1           0        6.581407   -0.191878   -0.558460
     85          1           0       -4.364259    0.590096   -0.085127
     86          1           0        4.775698   -2.578918    0.143020
     87          1           0       -4.436848    3.467428   -1.015041
     88          1           0        4.418286    0.387244   -0.624365
     89          1           0       -1.385746    3.859473   -1.962306
     90          1           0       -1.256045    4.228275   -0.271045
     91          1           0       -2.640746    4.769096   -0.827143
     92          1           0       -2.191918    0.493988   -0.421420
     93          1           0        2.245872    1.025390   -0.734276
     94          1           0        2.452649   -2.667271    0.899708
     95          1           0        0.989902   -2.289891    0.226783
     96          1           0        2.448344   -3.267702   -0.648372
     97          1           0        0.027502    2.330027   -0.986093
     98          1           0       -0.200367   -0.648109   -0.292291
 ---------------------------------------------------------------------

 SCF Done:  E(RCAM-B3LYP) =  -1706.92047297     A.U. after   15 cycles

 Excitation energies and oscillator strengths:

 Excited State   1:      Singlet-A      1.9431 eV  638.08 nm  f=3.0559  <S**2>=0.000
     155 ->158         0.14717
     156 ->157         0.69587
     156 <-157        -0.10401
 This state for optimization and/or second-order correction.
 Total Energy, E(TD-HF/TD-DFT) =  -1706.84906631
 Copying the excited state density for this state as the 1-particle RhoCI density.

 The electronic state is 1-A.
 Alpha  occ. eigenvalues --  -19.21794 -19.20454 -10.31134 -10.30550 -10.28926
 Alpha  occ. eigenvalues --  -10.27874 -10.27546 -10.27390 -10.27300 -10.27218
 Alpha  occ. eigenvalues --  -10.27040 -10.26988 -10.26740 -10.26687 -10.26534
 Alpha  occ. eigenvalues --  -10.26519 -10.26515 -10.26502 -10.26427 -10.26382
 Alpha  occ. eigenvalues --  -10.26339 -10.26302 -10.26290 -10.26277 -10.26260
 Alpha  occ. eigenvalues --  -10.26103 -10.26090 -10.26056 -10.25995 -10.25791
 Alpha  occ. eigenvalues --  -10.25766 -10.25677 -10.25550 -10.25488 -10.25428
 Alpha  occ. eigenvalues --  -10.25263 -10.25189 -10.24945 -10.24896 -10.24372
 Alpha  occ. eigenvalues --  -10.24092 -10.22416  -1.14470  -1.06619  -0.93635
 Alpha  occ. eigenvalues --   -0.92683  -0.92224  -0.91519  -0.90786  -0.90220
 Alpha  occ. eigenvalues --   -0.87270  -0.86261  -0.86212  -0.85324  -0.84635
 Alpha  occ. eigenvalues --   -0.82806  -0.82100  -0.80526  -0.80402  -0.78561
 Alpha  occ. eigenvalues --   -0.77564  -0.76985  -0.76305  -0.75988  -0.75565
 Alpha  occ. eigenvalues --   -0.74492  -0.74403  -0.73763  -0.72928  -0.71497
 Alpha  occ. eigenvalues --   -0.69667  -0.68474  -0.66533  -0.65466  -0.64331
 Alpha  occ. eigenvalues --   -0.63249  -0.62745  -0.62207  -0.61061  -0.59771
 Alpha  occ. eigenvalues --   -0.58972  -0.58764  -0.58022  -0.57601  -0.56677
 Alpha  occ. eigenvalues --   -0.56212  -0.54827  -0.54274  -0.53829  -0.53717
 Alpha  occ. eigenvalues --   -0.53420  -0.53008  -0.52439  -0.52316  -0.51562
 Alpha  occ. eigenvalues --   -0.51022  -0.50714  -0.50392  -0.49835  -0.49595
 Alpha  occ. eigenvalues --   -0.49224  -0.49160  -0.48690  -0.48600  -0.47850
 Alpha  occ. eigenvalues --   -0.47552  -0.47332  -0.46931  -0.46657  -0.46554
 Alpha  occ. eigenvalues --   -0.46154  -0.45792  -0.45245  -0.44926  -0.44704
 Alpha  occ. eigenvalues --   -0.44410  -0.44144  -0.43889  -0.43311  -0.43161
 Alpha  occ. eigenvalues --   -0.42954  -0.42727  -0.42173  -0.41913  -0.41239
 Alpha  occ. eigenvalues --   -0.41059  -0.40663  -0.40571  -0.40464  -0.40338
 Alpha  occ. eigenvalues --   -0.40038  -0.39951  -0.39733  -0.39393  -0.39274
 Alpha  occ. eigenvalues --   -0.39056  -0.38903  -0.38635  -0.38307  -0.38206
 Alpha  occ. eigenvalues --   -0.38013  -0.37142  -0.36836  -0.36148  -0.35789
 Alpha  occ. eigenvalues --   -0.35235  -0.34799  -0.33023  -0.32144  -0.31859
 Alpha  occ. eigenvalues --   -0.30106  -0.29833  -0.28952  -0.27320  -0.23053
 Alpha  occ. eigenvalues --   -0.18889
 Alpha virt. eigenvalues --   -0.06588  -0.01653   0.03023   0.05586   0.06916
 Alpha virt. eigenvalues --    0.09232   0.10580   0.11242   0.11963   0.12386
 Alpha virt. eigenvalues --    0.12654   0.13288   0.13454   0.13676   0.14028

 Mulliken charges:
               1
     1  O   -0.558115
     2  O   -0.516375
     3  C    0.022835
     4  C   -0.127767
     5  C   -0.168981
     6  C    0.160709
     7  C    0.096642
     8  C    0.010402
     9  C   -0.304115
    10  C   -0.287063
    11  C   -0.183645
    12  C   -0.167834
    13  C    0.207412
    14  C    0.049982
    15  C   -0.096105
    16  C   -0.208145
    17  C   -0.006894
    18  C   -0.297929
    19  C   -0.285413
    20  C   -0.341015
    21  C   -0.080868
    22  C   -0.112118
    23  C   -0.330923
    24  C    0.097251
    25  C   -0.091007
    26  C   -0.353482
    27  C    0.087884
    28  C   -0.127253
    29  C   -0.357598
    30  C   -0.105561
    31  C   -0.070191
    32  C   -0.080603
    33  C   -0.141184
    34  C    0.094715
    35  C   -0.138277
    36  C    0.129532
    37  C   -0.373488
    38  C   -0.116528
    39  C   -0.123082
    40  C   -0.376173
    41  C   -0.073234
    42  C   -0.075367
    43  H    0.086149
    44  H    0.060647
    45  H    0.100558
    46  H    0.100896
    47  H    0.095753
    48  H    0.103265
    49  H    0.102376
    50  H    0.118034
    51  H    0.111747
    52  H    0.055057
    53  H    0.079714
    54  H    0.051521
    55  H    0.067245
    56  H    0.027716
    57  H    0.096646
    58  H    0.084659
    59  H    0.124897
    60  H    0.108736
    61  H    0.101600
    62  H    0.067902
    63  H    0.082183
    64  H    0.112742
    65  H    0.091814
    66  H    0.121393
    67  H    0.104688
    68  H    0.120228
    69  H    0.299784
    70  H    0.093176
    71  H    0.069946
    72  H    0.127121
    73  H    0.108527
    74  H    0.111423
    75  H    0.307202
    76  H    0.079741
    77  H    0.109587
    78  H    0.108595
    79  H    0.131618
    80  H    0.075579
    81  H    0.109658
    82  H    0.142205
    83  H    0.073033
    84  H    0.077476
    85  H    0.092253
    86  H    0.071224
    87  H    0.072985
    88  H    0.081460
    89  H    0.124555
    90  H    0.143824
    91  H    0.103725
    92  H    0.069815
    93  H    0.072939
    94  H    0.137209
    95  H    0.090095
    96  H    0.112673
    97  H    0.072186
    98  H    0.071189
 Sum of Mulliken charges =  -0.00000

 Dipole moment (field-independent basis, Debye):
    X=              1.3877    Y=              0.1509    Z=             -0.1766  Tot=              1.4070
 Quadrupole moment (field-independent basis, Debye-Ang):
   XX=           -273.8061   YY=           -244.9360   ZZ=           -262.2610
   XY=              2.2457   XZ=             41.9152   YZ=              1.4940

 Normal termination of Gaussian 16 at Fri Jul 12 21:53:20 2019.
