 Gaussian 16, Revision A.03,
 Gaussian 16:  ES64L-G16RevA.03 25-Dec-2016

 -------------------------------------
 # td=(NStates=1) CAM-B3LYP/6-31G(d,p)
 -------------------------------------

 --
 TD
 --
 Symbolic Z-matrix:
 Charge =  0 Multiplicity = 1

                         Standard orientation:
 ---------------------------------------------------------------------
 Center     Atomic      Atomic             Coordinates (Angstroms)
 Number     Number       Type             X           Y           Z
 ---------------------------------------------------------------------
      1          8           0      -14.044789   -2.062283    0.558057
      2          8           0       14.802318    0.806045    0.258406
      3          6           0      -11.700613    0.083894    1.266314
      4          6           0      -10.973035    0.350189   -0.083679
      5          6           0      -11.919611   -1.500084    1.436325
      6          6           0      -12.678872   -2.117283    0.232986
      7          6           0      -11.573404   -0.431190   -1.211531
      8          6           0       10.997035    0.988380    1.042899
      9          6           0      -10.821252    0.589108    2.485481
     10          6           0      -13.075371    0.770695    1.329168
     11          6           0       12.509779    1.508096    0.820427
     12          6           0      -12.301634   -1.563434   -0.964524
     13          6           0       13.425037    0.408394    0.516478
     14          6           0       10.595918   -0.154096   -0.008937
     15          6           0       -9.524244   -0.026668   -0.066444
     16          6           0       13.002159   -0.158599   -0.864734
     17          6           0       11.505042   -0.520881   -0.917520
     18          6           0       10.104407    2.221184    1.028046
     19          6           0       10.946561    0.378145    2.425893
     20          6           0      -11.276125    0.052546   -2.591186
     21          6           0       -8.504937    0.816261   -0.243675
     22          6           0        9.248325   -0.424949    0.020117
     23          6           0       11.090261   -1.416063   -2.080233
     24          6           0       -7.085836    0.471824   -0.168830
     25          6           0        8.711269   -1.687833   -0.158704
     26          6           0       -6.644685   -0.828593    0.318745
     27          6           0        7.417249   -2.105910   -0.144788
     28          6           0       -6.191166    1.498406   -0.407681
     29          6           0        7.157701   -3.623447    0.121990
     30          6           0        6.332631   -1.285371   -0.172164
     31          6           0       -4.795592    1.518827   -0.372557
     32          6           0        4.951234   -1.529528   -0.161331
     33          6           0       -3.995741    2.673409   -0.670510
     34          6           0       -2.591482    2.753813   -0.687408
     35          6           0        3.946214   -0.607063   -0.217939
     36          6           0        2.548009   -0.858783   -0.146064
     37          6           0       -1.864936    3.959980   -1.023102
     38          6           0       -1.775709    1.641151   -0.502219
     39          6           0        1.731121    0.253376   -0.291186
     40          6           0        2.024803   -2.220371   -0.065445
     41          6           0       -0.370402    1.596034   -0.477371
     42          6           0        0.340630    0.317466   -0.397270
     43          1           0      -10.951635    1.489235   -0.215603
     44          1           0      -12.361572   -1.604555    2.543843
     45          1           0      -10.925818   -2.102651    1.572899
     46          1           0      -12.391232   -3.167268    0.572144
     47          1           0      -10.019856   -0.086671    2.777965
     48          1           0      -10.462218    1.615450    2.431068
     49          1           0      -11.389254    0.176839    3.378479
     50          1           0      -13.378901    0.504982    0.434375
     51          1           0      -13.626375    0.617508    2.289616
     52          1           0      -12.864792    1.937472    1.129481
     53          1           0       12.216130    2.232278    0.056194
     54          1           0       12.661419    2.015394    1.792759
     55          1           0      -12.711354   -2.036664   -1.762376
     56          1           0       13.621576   -0.277507    1.193273
     57          1           0       -9.020576   -1.106456    0.018271
     58          1           0       13.706589   -0.964337   -1.108450
     59          1           0       13.237521    0.606930   -1.665555
     60          1           0        9.154681    1.968993    1.419484
     61          1           0       10.168685    2.679896   -0.061104
     62          1           0       10.407214    3.002075    1.627333
     63          1           0       11.569589   -0.409942    2.468347
     64          1           0        9.938865   -0.103089    2.474709
     65          1           0       10.953551    0.958282    3.392526
     66          1           0      -10.052831   -0.052947   -2.632456
     67          1           0      -11.358399    1.234702   -2.539196
     68          1           0      -12.013013   -0.376319   -3.355537
     69          1           0      -14.350871   -2.709586   -0.340625
     70          1           0        8.547777    0.311256    0.303352
     71          1           0       -8.654128    1.907394   -0.638306
     72          1           0       11.252625   -2.567534   -1.829502
     73          1           0       10.024587   -1.178717   -2.399150
     74          1           0       11.710145   -1.291215   -2.910962
     75          1           0       15.336979    1.170481    1.168177
     76          1           0        9.322243   -2.640112   -0.216721
     77          1           0       -5.455032   -0.904040    0.323343
     78          1           0       -6.891813   -0.986412    1.342536
     79          1           0       -6.784970   -1.610444   -0.299023
     80          1           0       -6.684576    2.414440   -0.801872
     81          1           0        6.783704   -3.675963    1.077531
     82          1           0        6.422264   -3.906536   -0.698912
     83          1           0        7.978429   -4.500293    0.027587
     84          1           0        6.594812   -0.331062   -0.347512
     85          1           0       -4.246755    0.705915   -0.037185
     86          1           0        4.731025   -2.542085   -0.078752
     87          1           0       -4.437280    3.439705   -0.933212
     88          1           0        4.321458    0.426389   -0.587838
     89          1           0       -1.261884    3.941497   -1.768555
     90          1           0       -1.358482    4.301986   -0.174095
     91          1           0       -2.510808    4.787740   -1.268279
     92          1           0       -2.178620    0.564503   -0.370517
     93          1           0        2.232079    1.399504   -0.325184
     94          1           0        2.662270   -2.671147    0.792628
     95          1           0        0.939948   -2.267428    0.491238
     96          1           0        2.081070   -2.762830   -1.124634
     97          1           0        0.394809    2.479142   -0.665796
     98          1           0       -0.213644   -0.752450   -0.160977
 ---------------------------------------------------------------------

 SCF Done:  E(RCAM-B3LYP) =  -1706.88053733     A.U. after   16 cycles

 Excitation energies and oscillator strengths:

 Excited State   1:      Singlet-A      1.8761 eV  660.86 nm  f=3.1200  <S**2>=0.000
     155 ->158        -0.14490
     156 ->157         0.69660
     156 <-157        -0.10615
 This state for optimization and/or second-order correction.
 Total Energy, E(TD-HF/TD-DFT) =  -1706.81159175
 Copying the excited state density for this state as the 1-particle RhoCI density.

 The electronic state is 1-A.
 Alpha  occ. eigenvalues --  -19.22370 -19.20627 -10.29784 -10.28992 -10.28356
 Alpha  occ. eigenvalues --  -10.28346 -10.28280 -10.28132 -10.28031 -10.27478
 Alpha  occ. eigenvalues --  -10.27372 -10.27312 -10.27311 -10.27066 -10.26907
 Alpha  occ. eigenvalues --  -10.26904 -10.26885 -10.26868 -10.26618 -10.26505
 Alpha  occ. eigenvalues --  -10.26455 -10.26314 -10.26280 -10.26209 -10.26144
 Alpha  occ. eigenvalues --  -10.25985 -10.25801 -10.25449 -10.25260 -10.25253
 Alpha  occ. eigenvalues --  -10.25231 -10.25188 -10.25150 -10.25115 -10.24437
 Alpha  occ. eigenvalues --  -10.24389 -10.24247 -10.24128 -10.23914 -10.23485
 Alpha  occ. eigenvalues --  -10.23159 -10.23073  -1.08433  -1.05476  -0.93890
 Alpha  occ. eigenvalues --   -0.93567  -0.92421  -0.92014  -0.91010  -0.90569
 Alpha  occ. eigenvalues --   -0.87070  -0.86557  -0.86379  -0.85708  -0.84824
 Alpha  occ. eigenvalues --   -0.83643  -0.82646  -0.80927  -0.79793  -0.78534
 Alpha  occ. eigenvalues --   -0.77899  -0.76856  -0.76039  -0.75948  -0.75743
 Alpha  occ. eigenvalues --   -0.75515  -0.74934  -0.74796  -0.72627  -0.71070
 Alpha  occ. eigenvalues --   -0.69911  -0.67248  -0.66467  -0.66261  -0.63290
 Alpha  occ. eigenvalues --   -0.62811  -0.62551  -0.61960  -0.59942  -0.59376
 Alpha  occ. eigenvalues --   -0.59291  -0.58000  -0.57918  -0.56734  -0.55656
 Alpha  occ. eigenvalues --   -0.55515  -0.55127  -0.54664  -0.54291  -0.53473
 Alpha  occ. eigenvalues --   -0.53158  -0.53102  -0.52350  -0.52114  -0.51762
 Alpha  occ. eigenvalues --   -0.51480  -0.51192  -0.50318  -0.49887  -0.49768
 Alpha  occ. eigenvalues --   -0.49548  -0.49473  -0.49050  -0.48699  -0.48512
 Alpha  occ. eigenvalues --   -0.47964  -0.47867  -0.47389  -0.46777  -0.46264
 Alpha  occ. eigenvalues --   -0.46149  -0.45476  -0.45331  -0.44851  -0.44496
 Alpha  occ. eigenvalues --   -0.44439  -0.44230  -0.43866  -0.43252  -0.43109
 Alpha  occ. eigenvalues --   -0.42866  -0.42545  -0.42339  -0.42060  -0.41980
 Alpha  occ. eigenvalues --   -0.41742  -0.40558  -0.40414  -0.40283  -0.40223
 Alpha  occ. eigenvalues --   -0.39967  -0.39769  -0.39612  -0.39245  -0.39148
 Alpha  occ. eigenvalues --   -0.39094  -0.38946  -0.38573  -0.38466  -0.38047
 Alpha  occ. eigenvalues --   -0.37523  -0.36685  -0.36072  -0.35918  -0.34905
 Alpha  occ. eigenvalues --   -0.34519  -0.34356  -0.33548  -0.32111  -0.31672
 Alpha  occ. eigenvalues --   -0.31416  -0.29899  -0.28980  -0.26875  -0.23112
 Alpha  occ. eigenvalues --   -0.18649
 Alpha virt. eigenvalues --   -0.06785  -0.01682   0.02389   0.04420   0.07224
 Alpha virt. eigenvalues --    0.08792   0.09597   0.09834   0.10583   0.11704
 Alpha virt. eigenvalues --    0.12075   0.12405   0.12897   0.13392   0.13904

 Mulliken charges:
               1
     1  O   -0.518990
     2  O   -0.599847
     3  C    0.015724
     4  C   -0.155077
     5  C   -0.202180
     6  C    0.115650
     7  C    0.124182
     8  C   -0.058461
     9  C   -0.305747
    10  C   -0.250661
    11  C   -0.178798
    12  C   -0.082864
    13  C    0.212546
    14  C    0.107961
    15  C   -0.081464
    16  C   -0.237737
    17  C    0.037957
    18  C   -0.306018
    19  C   -0.300974
    20  C   -0.349335
    21  C   -0.082455
    22  C   -0.136161
    23  C   -0.356056
    24  C    0.115596
    25  C   -0.094435
    26  C   -0.392483
    27  C    0.075834
    28  C   -0.120622
    29  C   -0.376065
    30  C   -0.107602
    31  C   -0.058997
    32  C   -0.085061
    33  C   -0.078122
    34  C    0.087038
    35  C   -0.105747
    36  C    0.110342
    37  C   -0.377408
    38  C   -0.125555
    39  C   -0.104849
    40  C   -0.365790
    41  C   -0.095585
    42  C   -0.094579
    43  H    0.094535
    44  H    0.086476
    45  H    0.081830
    46  H    0.080255
    47  H    0.094682
    48  H    0.105256
    49  H    0.080364
    50  H    0.120600
    51  H    0.111882
    52  H    0.054546
    53  H    0.099853
    54  H    0.081186
    55  H    0.058321
    56  H    0.092063
    57  H    0.084563
    58  H    0.114146
    59  H    0.122931
    60  H    0.105796
    61  H    0.086641
    62  H    0.113837
    63  H    0.108964
    64  H    0.090522
    65  H    0.092243
    66  H    0.121491
    67  H    0.102166
    68  H    0.116877
    69  H    0.284068
    70  H    0.097073
    71  H    0.066715
    72  H    0.097562
    73  H    0.119184
    74  H    0.109403
    75  H    0.290830
    76  H    0.079688
    77  H    0.087528
    78  H    0.139510
    79  H    0.136130
    80  H    0.072536
    81  H    0.142268
    82  H    0.114890
    83  H    0.091674
    84  H    0.060304
    85  H    0.077365
    86  H    0.071427
    87  H    0.041621
    88  H    0.081929
    89  H    0.138293
    90  H    0.132796
    91  H    0.099257
    92  H    0.082154
    93  H    0.062721
    94  H    0.117722
    95  H    0.096643
    96  H    0.127763
    97  H    0.089094
    98  H    0.072720
 Sum of Mulliken charges =  -0.00000

 Dipole moment (field-independent basis, Debye):
    X=              0.2755    Y=             -0.8550    Z=             -0.3096  Tot=              0.9502
 Quadrupole moment (field-independent basis, Debye-Ang):
   XX=           -296.9867   YY=           -242.2917   ZZ=           -259.4978
   XY=              7.4161   XZ=             41.7076   YZ=              1.3070

 Normal termination of Gaussian 16 at Tue Jul 16 14:52:40 2019.
