 Gaussian 16, Revision A.03,
 Gaussian 16:  ES64L-G16RevA.03 25-Dec-2016

 -------------------------------------
 # td=(NStates=1) CAM-B3LYP/6-31G(d,p)
 -------------------------------------

 --
 TD
 --
 Symbolic Z-matrix:
 Charge =  0 Multiplicity = 1

                         Standard orientation:
 ---------------------------------------------------------------------
 Center     Atomic      Atomic             Coordinates (Angstroms)
 Number     Number       Type             X           Y           Z
 ---------------------------------------------------------------------
      1          8           0      -14.072141   -1.941141    0.523088
      2          8           0       14.802962    0.854284    0.225361
      3          6           0      -11.727928    0.072651    1.303044
      4          6           0      -10.956689    0.289718   -0.045921
      5          6           0      -12.007532   -1.500598    1.372893
      6          6           0      -12.667833   -2.120753    0.113105
      7          6           0      -11.648809   -0.390775   -1.146095
      8          6           0       11.133168    0.980225    1.110449
      9          6           0      -10.827380    0.516820    2.502882
     10          6           0      -13.079705    0.857079    1.208874
     11          6           0       12.496792    1.491703    0.872275
     12          6           0      -12.294121   -1.422743   -1.093526
     13          6           0       13.477028    0.396405    0.458898
     14          6           0       10.693934   -0.073020   -0.047145
     15          6           0       -9.500237   -0.119773    0.068586
     16          6           0       12.962929   -0.241515   -0.904172
     17          6           0       11.529653   -0.458603   -1.000986
     18          6           0       10.115523    2.113141    1.017401
     19          6           0       11.108022    0.302959    2.464511
     20          6           0      -11.418812    0.132843   -2.459191
     21          6           0       -8.512154    0.749319   -0.162668
     22          6           0        9.313062   -0.507938   -0.062662
     23          6           0       11.218174   -1.248524   -2.174679
     24          6           0       -7.098544    0.458652   -0.108631
     25          6           0        8.816278   -1.748360   -0.205331
     26          6           0       -6.714080   -0.956364    0.160219
     27          6           0        7.386929   -2.134698   -0.167630
     28          6           0       -6.286946    1.479400   -0.340976
     29          6           0        7.136667   -3.582087   -0.022278
     30          6           0        6.460646   -1.132512   -0.297609
     31          6           0       -4.868307    1.365229   -0.449001
     32          6           0        5.101205   -1.344596   -0.085241
     33          6           0       -4.076688    2.593411   -0.606134
     34          6           0       -2.643485    2.636391   -0.717162
     35          6           0        3.988480   -0.464422   -0.230734
     36          6           0        2.671266   -0.747379    0.139753
     37          6           0       -1.996837    3.909406   -1.174152
     38          6           0       -1.735670    1.416277   -0.553831
     39          6           0        1.787230    0.347321   -0.179128
     40          6           0        2.141179   -2.119956    0.392866
     41          6           0       -0.431971    1.437694   -0.384629
     42          6           0        0.358491    0.305414   -0.156143
     43          1           0      -10.848899    1.513979   -0.154643
     44          1           0      -12.655379   -1.562058    2.202593
     45          1           0      -11.038627   -1.934470    1.607868
     46          1           0      -12.333091   -3.277513    0.076226
     47          1           0      -10.047836   -0.280935    2.599223
     48          1           0      -10.449038    1.360801    2.373785
     49          1           0      -11.359785    0.446982    3.620919
     50          1           0      -13.733068    0.668413    0.439260
     51          1           0      -13.745702    0.727443    2.168513
     52          1           0      -13.080954    1.942859    0.932003
     53          1           0       12.403473    2.130269    0.000447
     54          1           0       12.677351    2.216100    1.667524
     55          1           0      -12.769107   -1.829079   -1.953791
     56          1           0       13.551715   -0.347571    1.137384
     57          1           0       -9.209350   -1.189088    0.226383
     58          1           0       13.359224   -1.272398   -1.033736
     59          1           0       13.299349    0.462901   -1.788788
     60          1           0        9.300409    1.486385    1.600248
     61          1           0        9.865655    2.300378    0.006087
     62          1           0       10.361307    2.969780    1.660274
     63          1           0       11.991096   -0.505951    2.652726
     64          1           0       10.188139   -0.259426    2.747045
     65          1           0       11.151320    1.354261    3.262079
     66          1           0      -10.286020    0.121959   -2.715813
     67          1           0      -11.582051    1.084760   -2.891532
     68          1           0      -12.134783   -0.429663   -3.134797
     69          1           0      -14.814112   -2.158907   -0.213876
     70          1           0        8.628238    0.268795   -0.036523
     71          1           0       -8.802967    1.688095   -0.172590
     72          1           0       11.549095   -2.226248   -2.173152
     73          1           0       10.118582   -1.239341   -2.253286
     74          1           0       11.762639   -0.966980   -3.156131
     75          1           0       15.103890    1.541304    0.997386
     76          1           0        9.593557   -2.475687   -0.584384
     77          1           0       -5.541108   -1.236549   -0.351346
     78          1           0       -6.736710   -1.284418    1.096690
     79          1           0       -7.501635   -1.667592   -0.478310
     80          1           0       -6.792017    2.455222   -0.286467
     81          1           0        6.724422   -3.878791    0.867668
     82          1           0        6.399499   -4.090244   -0.709600
     83          1           0        8.019586   -4.137906   -0.219062
     84          1           0        6.697263   -0.156867   -0.311852
     85          1           0       -4.223774    0.339291   -0.490764
     86          1           0        4.717173   -2.460860    0.060425
     87          1           0       -4.712972    3.373584   -0.686669
     88          1           0        4.288258    0.627343   -0.652860
     89          1           0       -1.207471    3.921938   -2.083363
     90          1           0       -1.437507    4.498629   -0.240660
     91          1           0       -2.812672    4.679490   -1.447955
     92          1           0       -2.440430    0.418721   -0.629231
     93          1           0        2.252241    1.212889   -0.109248
     94          1           0        3.070548   -2.798035    1.077279
     95          1           0        1.016621   -1.891244    0.868747
     96          1           0        1.831981   -2.711086   -0.775933
     97          1           0        0.223836    2.439601   -0.510312
     98          1           0       -0.113541   -0.513072   -0.150309
 ---------------------------------------------------------------------

 SCF Done:  E(RCAM-B3LYP) =  -1706.77691504     A.U. after   18 cycles

 Excitation energies and oscillator strengths:

 Excited State   1:      Singlet-A      1.6520 eV  750.52 nm  f=2.5638  <S**2>=0.000
     155 ->158        -0.11276
     156 ->157         0.71279
     156 <-157        -0.15766
 This state for optimization and/or second-order correction.
 Total Energy, E(TD-HF/TD-DFT) =  -1706.71620612
 Copying the excited state density for this state as the 1-particle RhoCI density.

 The electronic state is 1-A.
 Alpha  occ. eigenvalues --  -19.21788 -19.21054 -10.31474 -10.30996 -10.29494
 Alpha  occ. eigenvalues --  -10.29314 -10.28760 -10.28350 -10.27914 -10.27848
 Alpha  occ. eigenvalues --  -10.27717 -10.27566 -10.27543 -10.27457 -10.27407
 Alpha  occ. eigenvalues --  -10.27340 -10.27220 -10.27026 -10.27020 -10.26958
 Alpha  occ. eigenvalues --  -10.26570 -10.26411 -10.26258 -10.26100 -10.25544
 Alpha  occ. eigenvalues --  -10.25381 -10.25318 -10.25215 -10.25168 -10.25150
 Alpha  occ. eigenvalues --  -10.25021 -10.24832 -10.24744 -10.24720 -10.24693
 Alpha  occ. eigenvalues --  -10.24566 -10.24338 -10.24247 -10.24155 -10.24085
 Alpha  occ. eigenvalues --  -10.23553 -10.23237  -1.06914  -1.06211  -0.95087
 Alpha  occ. eigenvalues --   -0.94173  -0.92441  -0.91680  -0.90890  -0.89490
 Alpha  occ. eigenvalues --   -0.88715  -0.87982  -0.86910  -0.85291  -0.84736
 Alpha  occ. eigenvalues --   -0.82631  -0.81881  -0.80399  -0.80247  -0.78235
 Alpha  occ. eigenvalues --   -0.76772  -0.76608  -0.76303  -0.75723  -0.75630
 Alpha  occ. eigenvalues --   -0.75257  -0.75029  -0.74575  -0.72167  -0.70088
 Alpha  occ. eigenvalues --   -0.69267  -0.67987  -0.66736  -0.65211  -0.63558
 Alpha  occ. eigenvalues --   -0.63469  -0.62955  -0.62263  -0.60644  -0.60398
 Alpha  occ. eigenvalues --   -0.59610  -0.57989  -0.57625  -0.57499  -0.56865
 Alpha  occ. eigenvalues --   -0.55846  -0.54938  -0.54828  -0.54523  -0.53773
 Alpha  occ. eigenvalues --   -0.53361  -0.52821  -0.52286  -0.52058  -0.51510
 Alpha  occ. eigenvalues --   -0.50876  -0.50426  -0.50319  -0.49424  -0.49319
 Alpha  occ. eigenvalues --   -0.48838  -0.48518  -0.48332  -0.47649  -0.47625
 Alpha  occ. eigenvalues --   -0.47292  -0.47022  -0.46337  -0.45946  -0.45825
 Alpha  occ. eigenvalues --   -0.45612  -0.45382  -0.45128  -0.44840  -0.44333
 Alpha  occ. eigenvalues --   -0.44030  -0.43907  -0.43827  -0.43232  -0.43005
 Alpha  occ. eigenvalues --   -0.42724  -0.42585  -0.42377  -0.42104  -0.41723
 Alpha  occ. eigenvalues --   -0.41589  -0.41312  -0.41209  -0.41007  -0.40648
 Alpha  occ. eigenvalues --   -0.40210  -0.40129  -0.39719  -0.39338  -0.38999
 Alpha  occ. eigenvalues --   -0.38651  -0.38549  -0.38413  -0.37990  -0.37452
 Alpha  occ. eigenvalues --   -0.37033  -0.36771  -0.36099  -0.36071  -0.35441
 Alpha  occ. eigenvalues --   -0.35158  -0.33883  -0.33221  -0.32380  -0.31658
 Alpha  occ. eigenvalues --   -0.31204  -0.30780  -0.28841  -0.27216  -0.23938
 Alpha  occ. eigenvalues --   -0.17810
 Alpha virt. eigenvalues --   -0.07576  -0.00922   0.02799   0.05761   0.07145
 Alpha virt. eigenvalues --    0.08316   0.09405   0.09857   0.10551   0.10775
 Alpha virt. eigenvalues --    0.11065   0.11635   0.11974   0.12761   0.12913

 Mulliken charges:
               1
     1  O   -0.560290
     2  O   -0.583050
     3  C    0.019448
     4  C   -0.169802
     5  C   -0.181002
     6  C    0.132697
     7  C    0.228263
     8  C   -0.008926
     9  C   -0.274204
    10  C   -0.295511
    11  C   -0.196861
    12  C   -0.123590
    13  C    0.208461
    14  C    0.021934
    15  C   -0.082563
    16  C   -0.239728
    17  C    0.100818
    18  C   -0.301823
    19  C   -0.269496
    20  C   -0.380472
    21  C   -0.073767
    22  C   -0.117282
    23  C   -0.381206
    24  C    0.147967
    25  C   -0.130507
    26  C   -0.356497
    27  C    0.096891
    28  C   -0.138422
    29  C   -0.387307
    30  C   -0.079551
    31  C   -0.074478
    32  C   -0.116364
    33  C   -0.115039
    34  C    0.084747
    35  C   -0.103088
    36  C    0.101845
    37  C   -0.364616
    38  C   -0.109702
    39  C   -0.104886
    40  C   -0.323154
    41  C   -0.066482
    42  C   -0.063751
    43  H    0.070126
    44  H    0.125860
    45  H    0.083550
    46  H    0.064431
    47  H    0.095707
    48  H    0.109248
    49  H    0.070064
    50  H    0.118023
    51  H    0.085443
    52  H    0.074021
    53  H    0.098056
    54  H    0.081257
    55  H    0.074278
    56  H    0.083176
    57  H    0.080399
    58  H    0.107565
    59  H    0.105272
    60  H    0.097242
    61  H    0.120801
    62  H    0.101177
    63  H    0.092669
    64  H    0.114397
    65  H    0.045537
    66  H    0.106738
    67  H    0.117408
    68  H    0.091107
    69  H    0.296556
    70  H    0.088012
    71  H    0.062882
    72  H    0.124813
    73  H    0.117166
    74  H    0.097016
    75  H    0.304327
    76  H    0.083459
    77  H    0.071115
    78  H    0.148652
    79  H    0.092241
    80  H    0.092007
    81  H    0.137366
    82  H    0.114412
    83  H    0.117645
    84  H    0.079223
    85  H    0.082410
    86  H    0.059660
    87  H    0.083901
    88  H    0.070864
    89  H    0.117780
    90  H    0.096279
    91  H    0.104996
    92  H    0.067888
    93  H    0.080914
    94  H    0.091084
    95  H    0.103876
    96  H    0.087204
    97  H    0.083963
    98  H    0.059083
 Sum of Mulliken charges =  -0.00000

 Dipole moment (field-independent basis, Debye):
    X=             -1.5409    Y=              0.1101    Z=             -0.7718  Tot=              1.7269
 Quadrupole moment (field-independent basis, Debye-Ang):
   XX=           -268.0549   YY=           -242.8720   ZZ=           -264.8897
   XY=              5.5248   XZ=             35.0394   YZ=              2.3527

 Normal termination of Gaussian 16 at Sat Jul 13 01:19:25 2019.
