 Gaussian 16, Revision A.03,
 Gaussian 16:  ES64L-G16RevA.03 25-Dec-2016

 -------------------------------------
 # td=(NStates=1) CAM-B3LYP/6-31G(d,p)
 -------------------------------------

 --
 TD
 --
 Symbolic Z-matrix:
 Charge =  0 Multiplicity = 1

                         Standard orientation:
 ---------------------------------------------------------------------
 Center     Atomic      Atomic             Coordinates (Angstroms)
 Number     Number       Type             X           Y           Z
 ---------------------------------------------------------------------
      1          8           0      -14.208057   -1.859839    0.823581
      2          8           0       14.745057    1.234952    0.126687
      3          6           0      -11.651796    0.221453    1.330116
      4          6           0      -10.927297    0.237982   -0.149524
      5          6           0      -11.993642   -1.293215    1.666103
      6          6           0      -12.831949   -2.020668    0.593555
      7          6           0      -11.537798   -0.601797   -1.227735
      8          6           0       11.041635    0.937156    1.171060
      9          6           0      -10.774689    0.789609    2.415776
     10          6           0      -12.902695    1.134397    1.239378
     11          6           0       12.386842    1.570416    0.840130
     12          6           0      -12.444454   -1.554454   -0.837978
     13          6           0       13.472062    0.653007    0.353506
     14          6           0       10.599428   -0.093557    0.192694
     15          6           0       -9.428307   -0.136758    0.043608
     16          6           0       12.921804   -0.004090   -0.920051
     17          6           0       11.468559   -0.381585   -0.847379
     18          6           0        9.978934    2.061017    1.326962
     19          6           0       11.114703    0.132825    2.593834
     20          6           0      -11.140970   -0.178818   -2.544538
     21          6           0       -8.461286    0.736366   -0.274468
     22          6           0        9.241221   -0.528959    0.266194
     23          6           0       11.039492   -1.187185   -1.968901
     24          6           0       -7.044520    0.498027   -0.219373
     25          6           0        8.793388   -1.772048   -0.005805
     26          6           0       -6.678023   -0.964403    0.132894
     27          6           0        7.455423   -2.249565   -0.073144
     28          6           0       -6.146793    1.477752   -0.429835
     29          6           0        7.185619   -3.756829    0.088796
     30          6           0        6.341447   -1.300963   -0.214620
     31          6           0       -4.772035    1.359813   -0.455146
     32          6           0        4.982645   -1.659734   -0.299094
     33          6           0       -4.032868    2.485767   -0.767738
     34          6           0       -2.585334    2.623180   -0.800442
     35          6           0        3.959420   -0.615665   -0.219071
     36          6           0        2.628985   -0.897425   -0.318668
     37          6           0       -1.974768    3.939823   -1.052073
     38          6           0       -1.727764    1.387725   -0.732292
     39          6           0        1.817371    0.266575   -0.474858
     40          6           0        2.124703   -2.284460   -0.221663
     41          6           0       -0.360796    1.390570   -0.720373
     42          6           0        0.355374    0.324489   -0.555367
     43          1           0      -10.793557    1.321030   -0.551283
     44          1           0      -12.677365   -1.366601    2.668516
     45          1           0      -11.191542   -1.746241    1.988059
     46          1           0      -12.655665   -3.091775    0.748396
     47          1           0       -9.963322    0.109983    2.576963
     48          1           0      -10.460239    1.873942    1.971846
     49          1           0      -11.358543    0.910320    3.298317
     50          1           0      -13.637360    0.754541    0.527463
     51          1           0      -13.445872    1.195287    2.202207
     52          1           0      -12.666501    2.343420    1.011851
     53          1           0       12.357391    2.415491    0.185561
     54          1           0       12.836720    1.973748    1.823212
     55          1           0      -13.050223   -1.835590   -1.828176
     56          1           0       13.422817   -0.210622    1.163195
     57          1           0       -9.280375   -1.082972    0.242959
     58          1           0       13.408152   -0.790073   -1.446300
     59          1           0       12.924283    0.709417   -1.824974
     60          1           0        9.049420    1.737908    1.998438
     61          1           0        9.703068    2.380583    0.098922
     62          1           0       10.335586    2.993674    1.762654
     63          1           0       12.032866   -0.482591    2.689065
     64          1           0       10.222740   -0.521771    3.076997
     65          1           0       11.245103    0.944567    3.284062
     66          1           0      -10.254782    0.057863   -2.646204
     67          1           0      -11.420431    0.908263   -2.852578
     68          1           0      -11.295533   -0.874090   -3.192765
     69          1           0      -14.798072   -2.084944    0.140152
     70          1           0        8.588387    0.238702    0.747105
     71          1           0       -8.795429    1.686825   -0.324670
     72          1           0       11.393255   -2.408682   -2.028456
     73          1           0        9.794870   -1.449866   -1.977949
     74          1           0       11.539607   -0.763848   -2.972473
     75          1           0       15.229769    1.614338    0.943750
     76          1           0        9.588824   -2.353284   -0.264791
     77          1           0       -5.514204   -0.933329   -0.090545
     78          1           0       -6.767477   -1.130288    1.097972
     79          1           0       -7.517818   -1.832441   -0.489319
     80          1           0       -6.530955    2.463991   -0.778539
     81          1           0        6.717427   -4.003718    1.060493
     82          1           0        6.567413   -3.925539   -0.681478
     83          1           0        8.204489   -4.306029    0.097992
     84          1           0        6.617280   -0.280856   -0.236727
     85          1           0       -4.265564    0.470483   -0.368681
     86          1           0        4.654066   -2.851604   -0.423763
     87          1           0       -4.511065    3.457614   -1.060324
     88          1           0        4.591864    0.317241   -0.426768
     89          1           0       -1.294468    3.912314   -2.143793
     90          1           0       -1.375749    4.179729   -0.213704
     91          1           0       -2.721266    4.628774   -0.946008
     92          1           0       -2.256461    0.423438   -0.496842
     93          1           0        2.316969    1.253579   -0.299533
     94          1           0        2.376800   -2.873590    0.585874
     95          1           0        0.894538   -2.451923   -0.156481
     96          1           0        2.617547   -2.864849   -1.172798
     97          1           0        0.193495    2.316505   -0.773828
     98          1           0       -0.168538   -0.551987   -0.471246
 ---------------------------------------------------------------------

 SCF Done:  E(RCAM-B3LYP) =  -1706.84178509     A.U. after   16 cycles

 Excitation energies and oscillator strengths:

 Excited State   1:      Singlet-A      1.8777 eV  660.29 nm  f=3.0018  <S**2>=0.000
     155 ->158         0.15258
     156 ->157         0.69440
     156 <-157        -0.10300
 This state for optimization and/or second-order correction.
 Total Energy, E(TD-HF/TD-DFT) =  -1706.77277995
 Copying the excited state density for this state as the 1-particle RhoCI density.

 The electronic state is 1-A.
 Alpha  occ. eigenvalues --  -19.22585 -19.20386 -10.31955 -10.31939 -10.28359
 Alpha  occ. eigenvalues --  -10.27984 -10.27940 -10.27861 -10.27848 -10.27840
 Alpha  occ. eigenvalues --  -10.27828 -10.27757 -10.27226 -10.27103 -10.27019
 Alpha  occ. eigenvalues --  -10.26786 -10.26777 -10.26741 -10.26556 -10.26527
 Alpha  occ. eigenvalues --  -10.26521 -10.26471 -10.26435 -10.26173 -10.26091
 Alpha  occ. eigenvalues --  -10.25809 -10.25748 -10.25590 -10.25565 -10.25518
 Alpha  occ. eigenvalues --  -10.25443 -10.25368 -10.25334 -10.25303 -10.24765
 Alpha  occ. eigenvalues --  -10.24753 -10.24626 -10.24574 -10.24343 -10.24222
 Alpha  occ. eigenvalues --  -10.24084 -10.22650  -1.09936  -1.08824  -0.94180
 Alpha  occ. eigenvalues --   -0.92819  -0.92043  -0.91452  -0.90372  -0.89561
 Alpha  occ. eigenvalues --   -0.87866  -0.87454  -0.86821  -0.85712  -0.85183
 Alpha  occ. eigenvalues --   -0.82595  -0.82346  -0.80854  -0.80116  -0.78216
 Alpha  occ. eigenvalues --   -0.77514  -0.76050  -0.75848  -0.75440  -0.74945
 Alpha  occ. eigenvalues --   -0.74762  -0.74369  -0.74080  -0.72148  -0.70263
 Alpha  occ. eigenvalues --   -0.69114  -0.68298  -0.66292  -0.65053  -0.64360
 Alpha  occ. eigenvalues --   -0.63307  -0.62754  -0.62416  -0.61134  -0.60241
 Alpha  occ. eigenvalues --   -0.59479  -0.59084  -0.58656  -0.58260  -0.56279
 Alpha  occ. eigenvalues --   -0.55571  -0.55079  -0.54807  -0.54230  -0.53825
 Alpha  occ. eigenvalues --   -0.53172  -0.52502  -0.51902  -0.51844  -0.50737
 Alpha  occ. eigenvalues --   -0.50317  -0.50273  -0.49709  -0.49457  -0.49167
 Alpha  occ. eigenvalues --   -0.48913  -0.48612  -0.48228  -0.47858  -0.47740
 Alpha  occ. eigenvalues --   -0.47596  -0.47160  -0.47023  -0.46820  -0.46134
 Alpha  occ. eigenvalues --   -0.45782  -0.45512  -0.45330  -0.45098  -0.44779
 Alpha  occ. eigenvalues --   -0.44369  -0.44142  -0.43754  -0.43122  -0.42695
 Alpha  occ. eigenvalues --   -0.42452  -0.42370  -0.42080  -0.41976  -0.41740
 Alpha  occ. eigenvalues --   -0.41620  -0.41318  -0.41266  -0.40817  -0.40338
 Alpha  occ. eigenvalues --   -0.39955  -0.39562  -0.39403  -0.39146  -0.39081
 Alpha  occ. eigenvalues --   -0.39039  -0.38837  -0.38470  -0.38173  -0.37944
 Alpha  occ. eigenvalues --   -0.37329  -0.37055  -0.37001  -0.36153  -0.36113
 Alpha  occ. eigenvalues --   -0.35627  -0.34370  -0.33156  -0.32571  -0.32071
 Alpha  occ. eigenvalues --   -0.31226  -0.28551  -0.28072  -0.26319  -0.22681
 Alpha  occ. eigenvalues --   -0.18308
 Alpha virt. eigenvalues --   -0.06337  -0.01559   0.02990   0.05038   0.06436
 Alpha virt. eigenvalues --    0.08658   0.10605   0.10731   0.11612   0.11886
 Alpha virt. eigenvalues --    0.12181   0.12540   0.13019   0.13380   0.13695

 Mulliken charges:
               1
     1  O   -0.551271
     2  O   -0.573301
     3  C    0.026747
     4  C   -0.166989
     5  C   -0.186499
     6  C    0.178722
     7  C    0.146347
     8  C   -0.013740
     9  C   -0.277347
    10  C   -0.284553
    11  C   -0.193319
    12  C   -0.179941
    13  C    0.195517
    14  C    0.073353
    15  C   -0.063751
    16  C   -0.224626
    17  C    0.100814
    18  C   -0.302597
    19  C   -0.321135
    20  C   -0.333906
    21  C   -0.083006
    22  C   -0.077438
    23  C   -0.375730
    24  C    0.088103
    25  C   -0.136414
    26  C   -0.339586
    27  C    0.045818
    28  C   -0.113857
    29  C   -0.355293
    30  C   -0.109709
    31  C   -0.045161
    32  C   -0.099302
    33  C   -0.133456
    34  C    0.053396
    35  C   -0.129283
    36  C    0.136855
    37  C   -0.354345
    38  C   -0.132549
    39  C   -0.153130
    40  C   -0.367340
    41  C   -0.033118
    42  C   -0.071506
    43  H    0.073553
    44  H    0.091412
    45  H    0.105342
    46  H    0.086832
    47  H    0.098580
    48  H    0.078862
    49  H    0.106471
    50  H    0.113941
    51  H    0.096548
    52  H    0.056463
    53  H    0.112097
    54  H    0.069329
    55  H    0.053836
    56  H    0.062270
    57  H    0.066690
    58  H    0.123327
    59  H    0.104132
    60  H    0.101981
    61  H    0.073326
    62  H    0.110555
    63  H    0.104270
    64  H    0.100528
    65  H    0.100060
    66  H    0.134665
    67  H    0.100937
    68  H    0.108511
    69  H    0.305802
    70  H    0.082783
    71  H    0.066764
    72  H    0.073607
    73  H    0.108681
    74  H    0.087570
    75  H    0.317320
    76  H    0.093737
    77  H    0.083471
    78  H    0.145491
    79  H    0.076296
    80  H    0.082369
    81  H    0.127936
    82  H    0.135356
    83  H    0.101195
    84  H    0.086066
    85  H    0.087196
    86  H    0.072102
    87  H    0.077130
    88  H    0.098084
    89  H    0.104751
    90  H    0.133854
    91  H    0.111491
    92  H    0.075419
    93  H    0.086671
    94  H    0.144376
    95  H    0.092136
    96  H    0.103874
    97  H    0.076623
    98  H    0.064857
 Sum of Mulliken charges =  -0.00000

 Dipole moment (field-independent basis, Debye):
    X=              1.2367    Y=             -0.1506    Z=              0.7828  Tot=              1.4714
 Quadrupole moment (field-independent basis, Debye-Ang):
   XX=           -260.5782   YY=           -244.2069   ZZ=           -262.3371
   XY=             12.1106   XZ=             37.9469   YZ=              1.3089

 Normal termination of Gaussian 16 at Sun Jul 14 05:18:17 2019.
