 Gaussian 16, Revision A.03,
 Gaussian 16:  ES64L-G16RevA.03 25-Dec-2016

 -------------------------------------
 # td=(NStates=1) CAM-B3LYP/6-31G(d,p)
 -------------------------------------

 --
 TD
 --
 Symbolic Z-matrix:
 Charge =  0 Multiplicity = 1

                         Standard orientation:
 ---------------------------------------------------------------------
 Center     Atomic      Atomic             Coordinates (Angstroms)
 Number     Number       Type             X           Y           Z
 ---------------------------------------------------------------------
      1          8           0      -14.170306   -1.840650    0.412856
      2          8           0       14.770164    1.082822   -0.076455
      3          6           0      -11.774812    0.066063    1.262762
      4          6           0      -11.044610    0.268700   -0.076827
      5          6           0      -11.988228   -1.507024    1.371107
      6          6           0      -12.744082   -2.023986    0.154054
      7          6           0      -11.648430   -0.357893   -1.290449
      8          6           0       11.032400    1.019034    0.936328
      9          6           0      -10.956516    0.669852    2.488554
     10          6           0      -13.106072    0.779283    1.063442
     11          6           0       12.480627    1.631092    0.681547
     12          6           0      -12.251026   -1.522082   -1.106633
     13          6           0       13.472286    0.574589    0.320981
     14          6           0       10.739411   -0.058628   -0.072044
     15          6           0       -9.580905   -0.049118   -0.035478
     16          6           0       13.059642   -0.112918   -0.977525
     17          6           0       11.513563   -0.502792   -1.037307
     18          6           0       10.138823    2.291646    1.008587
     19          6           0       11.131836    0.463907    2.360245
     20          6           0      -11.288463    0.266875   -2.641841
     21          6           0       -8.530857    0.780887   -0.276381
     22          6           0        9.303434   -0.510980   -0.008021
     23          6           0       11.220796   -1.574644   -2.158280
     24          6           0       -7.055689    0.504118   -0.135294
     25          6           0        8.820047   -1.762278   -0.120462
     26          6           0       -6.639054   -0.912721    0.141700
     27          6           0        7.426167   -2.167111   -0.076136
     28          6           0       -6.235649    1.538902   -0.330147
     29          6           0        7.257518   -3.583098    0.233566
     30          6           0        6.391898   -1.308384   -0.252307
     31          6           0       -4.837813    1.463020   -0.305447
     32          6           0        5.019372   -1.558933    0.074956
     33          6           0       -3.992393    2.499527   -0.562641
     34          6           0       -2.600378    2.502814   -0.666655
     35          6           0        4.069101   -0.661033   -0.066697
     36          6           0        2.585984   -0.941710    0.074441
     37          6           0       -1.931508    3.895792   -0.870940
     38          6           0       -1.781898    1.381945   -0.385949
     39          6           0        1.746165    0.135466   -0.254960
     40          6           0        2.080729   -2.204086    0.554003
     41          6           0       -0.418761    1.375654   -0.388226
     42          6           0        0.370450    0.243502   -0.093366
     43          1           0      -10.995117    1.493105   -0.188459
     44          1           0      -12.647020   -1.655261    2.234118
     45          1           0      -10.976036   -2.209161    1.551307
     46          1           0      -12.588938   -3.081211    0.193858
     47          1           0      -10.055341    0.031851    2.520592
     48          1           0      -10.874930    1.732725    2.157124
     49          1           0      -11.505516    0.638855    3.516173
     50          1           0      -13.684808    0.826656    0.123673
     51          1           0      -13.850518    0.655291    1.862965
     52          1           0      -13.128044    1.835176    1.341191
     53          1           0       12.313602    2.195739   -0.152703
     54          1           0       12.805276    2.165055    1.407929
     55          1           0      -12.857635   -1.975503   -1.927660
     56          1           0       13.432489   -0.124378    1.126931
     57          1           0       -9.235084   -1.054921    0.231520
     58          1           0       13.667376   -1.019772   -1.176684
     59          1           0       13.290523    0.786855   -1.455969
     60          1           0        9.013937    1.924154    1.454846
     61          1           0        9.905543    2.657839    0.068500
     62          1           0       10.314487    3.197282    1.624829
     63          1           0       11.875357   -0.360725    2.580955
     64          1           0       10.097424   -0.048747    2.437596
     65          1           0       11.294157    1.076286    3.266703
     66          1           0      -10.131535    0.192543   -2.880518
     67          1           0      -11.642348    1.339386   -2.736224
     68          1           0      -11.800197   -0.361557   -3.541536
     69          1           0      -14.551410   -2.518595   -0.285529
     70          1           0        8.771570    0.254017    0.240899
     71          1           0       -8.801750    1.895469   -0.497134
     72          1           0       11.799731   -2.518840   -1.968347
     73          1           0       10.095889   -1.669596   -2.248798
     74          1           0       11.681079   -1.307598   -3.105372
     75          1           0       15.046262    1.731230    0.567911
     76          1           0        9.475476   -2.428106   -0.519132
     77          1           0       -5.459380   -0.842804    0.212539
     78          1           0       -6.993740   -1.562500    1.051349
     79          1           0       -7.109107   -1.634910   -0.638813
     80          1           0       -6.745272    2.458724   -0.221554
     81          1           0        7.020150   -3.839583    1.281285
     82          1           0        6.512739   -4.088180   -0.243561
     83          1           0        8.204683   -4.288110    0.056552
     84          1           0        6.787147   -0.362752   -0.436084
     85          1           0       -4.270261    0.680043   -0.198605
     86          1           0        4.703998   -2.627363    0.612102
     87          1           0       -4.463855    3.472601   -0.823850
     88          1           0        4.285815    0.330104   -0.265656
     89          1           0       -1.274602    3.577223   -1.736237
     90          1           0       -1.358286    4.159551   -0.024400
     91          1           0       -2.721642    4.557128   -1.337157
     92          1           0       -2.424144    0.478889   -0.311843
     93          1           0        2.283499    1.024815   -0.408181
     94          1           0        2.581295   -2.491884    1.470609
     95          1           0        1.107779   -2.048063    0.765977
     96          1           0        2.384727   -3.066395   -0.159446
     97          1           0        0.102863    2.438032   -0.496101
     98          1           0       -0.225854   -0.756992    0.116744
 ---------------------------------------------------------------------

 SCF Done:  E(RCAM-B3LYP) =  -1706.97342990     A.U. after   15 cycles

 Excitation energies and oscillator strengths:

 Excited State   1:      Singlet-A      2.2476 eV  551.62 nm  f=2.8347  <S**2>=0.000
     155 ->158        -0.13007
     156 ->157         0.69727
 This state for optimization and/or second-order correction.
 Total Energy, E(TD-HF/TD-DFT) =  -1706.89083108
 Copying the excited state density for this state as the 1-particle RhoCI density.

 The electronic state is 1-A.
 Alpha  occ. eigenvalues --  -19.21665 -19.21287 -10.29578 -10.29241 -10.28641
 Alpha  occ. eigenvalues --  -10.27839 -10.27734 -10.27571 -10.27537 -10.27520
 Alpha  occ. eigenvalues --  -10.27449 -10.27382 -10.27341 -10.27303 -10.27261
 Alpha  occ. eigenvalues --  -10.27043 -10.26996 -10.26625 -10.26562 -10.26421
 Alpha  occ. eigenvalues --  -10.26364 -10.26012 -10.25954 -10.25879 -10.25778
 Alpha  occ. eigenvalues --  -10.25777 -10.25645 -10.25547 -10.25391 -10.25372
 Alpha  occ. eigenvalues --  -10.25368 -10.25291 -10.24866 -10.24832 -10.24819
 Alpha  occ. eigenvalues --  -10.24744 -10.24730 -10.24726 -10.24573 -10.24223
 Alpha  occ. eigenvalues --  -10.23119 -10.22682  -1.09187  -1.07449  -0.93963
 Alpha  occ. eigenvalues --   -0.93712  -0.92375  -0.91888  -0.90810  -0.89980
 Alpha  occ. eigenvalues --   -0.87190  -0.86416  -0.86136  -0.85616  -0.84788
 Alpha  occ. eigenvalues --   -0.83693  -0.82301  -0.80504  -0.80208  -0.78931
 Alpha  occ. eigenvalues --   -0.76971  -0.76717  -0.76456  -0.76085  -0.75789
 Alpha  occ. eigenvalues --   -0.75323  -0.74915  -0.74711  -0.73068  -0.70597
 Alpha  occ. eigenvalues --   -0.69499  -0.67231  -0.66299  -0.65607  -0.65082
 Alpha  occ. eigenvalues --   -0.63681  -0.62706  -0.62112  -0.59943  -0.59738
 Alpha  occ. eigenvalues --   -0.59528  -0.59487  -0.57498  -0.57088  -0.56155
 Alpha  occ. eigenvalues --   -0.55955  -0.55649  -0.54967  -0.54458  -0.53788
 Alpha  occ. eigenvalues --   -0.53439  -0.53245  -0.51873  -0.51849  -0.51110
 Alpha  occ. eigenvalues --   -0.50678  -0.50601  -0.50109  -0.49584  -0.49513
 Alpha  occ. eigenvalues --   -0.49249  -0.48706  -0.48073  -0.47986  -0.47536
 Alpha  occ. eigenvalues --   -0.47434  -0.47237  -0.46436  -0.46330  -0.45968
 Alpha  occ. eigenvalues --   -0.45766  -0.45592  -0.45206  -0.45121  -0.44577
 Alpha  occ. eigenvalues --   -0.44210  -0.44121  -0.43946  -0.43821  -0.43311
 Alpha  occ. eigenvalues --   -0.43151  -0.42809  -0.42607  -0.42322  -0.42033
 Alpha  occ. eigenvalues --   -0.41581  -0.41288  -0.41082  -0.40909  -0.40760
 Alpha  occ. eigenvalues --   -0.40522  -0.40477  -0.40385  -0.39799  -0.39084
 Alpha  occ. eigenvalues --   -0.38787  -0.38541  -0.38454  -0.38170  -0.37728
 Alpha  occ. eigenvalues --   -0.37365  -0.37292  -0.36133  -0.35886  -0.34976
 Alpha  occ. eigenvalues --   -0.34722  -0.34232  -0.33932  -0.32379  -0.32158
 Alpha  occ. eigenvalues --   -0.31787  -0.30128  -0.29573  -0.27186  -0.24465
 Alpha  occ. eigenvalues --   -0.19398
 Alpha virt. eigenvalues --   -0.05513  -0.00298   0.02912   0.05141   0.07030
 Alpha virt. eigenvalues --    0.08991   0.10531   0.11520   0.12064   0.12395
 Alpha virt. eigenvalues --    0.12640   0.13132   0.13261   0.13626   0.13711

 Mulliken charges:
               1
     1  O   -0.540946
     2  O   -0.559538
     3  C    0.019483
     4  C   -0.140127
     5  C   -0.182023
     6  C    0.114144
     7  C    0.145766
     8  C   -0.041885
     9  C   -0.294779
    10  C   -0.306447
    11  C   -0.161033
    12  C   -0.099479
    13  C    0.133610
    14  C    0.057351
    15  C   -0.077019
    16  C   -0.215693
    17  C    0.040931
    18  C   -0.308551
    19  C   -0.299405
    20  C   -0.351193
    21  C   -0.105953
    22  C   -0.088124
    23  C   -0.366550
    24  C    0.136579
    25  C   -0.102857
    26  C   -0.375387
    27  C    0.099618
    28  C   -0.118999
    29  C   -0.389716
    30  C   -0.106630
    31  C   -0.030026
    32  C   -0.091985
    33  C   -0.132033
    34  C    0.049480
    35  C   -0.085777
    36  C    0.095807
    37  C   -0.367053
    38  C   -0.084697
    39  C   -0.109943
    40  C   -0.367587
    41  C   -0.099810
    42  C   -0.107739
    43  H    0.065353
    44  H    0.112903
    45  H    0.066136
    46  H    0.084805
    47  H    0.112740
    48  H    0.104678
    49  H    0.094255
    50  H    0.120905
    51  H    0.098257
    52  H    0.081874
    53  H    0.094715
    54  H    0.082248
    55  H    0.057434
    56  H    0.082050
    57  H    0.073313
    58  H    0.103760
    59  H    0.130484
    60  H    0.062634
    61  H    0.121000
    62  H    0.118862
    63  H    0.098371
    64  H    0.091531
    65  H    0.105312
    66  H    0.124228
    67  H    0.118142
    68  H    0.091263
    69  H    0.300682
    70  H    0.064630
    71  H    0.061332
    72  H    0.117047
    73  H    0.120379
    74  H    0.120693
    75  H    0.299830
    76  H    0.086486
    77  H    0.100911
    78  H    0.115769
    79  H    0.114496
    80  H    0.093699
    81  H    0.120779
    82  H    0.127305
    83  H    0.089896
    84  H    0.075314
    85  H    0.052482
    86  H    0.073769
    87  H    0.065119
    88  H    0.079921
    89  H    0.122184
    90  H    0.141085
    91  H    0.107638
    92  H    0.076441
    93  H    0.075044
    94  H    0.123906
    95  H    0.115253
    96  H    0.115719
    97  H    0.082961
    98  H    0.078193
 Sum of Mulliken charges =  -0.00000

 Dipole moment (field-independent basis, Debye):
    X=              0.4321    Y=             -0.2986    Z=              0.6121  Tot=              0.8066
 Quadrupole moment (field-independent basis, Debye-Ang):
   XX=           -271.1331   YY=           -238.7418   ZZ=           -262.3350
   XY=             18.3147   XZ=             31.6010   YZ=              2.6977

 Normal termination of Gaussian 16 at Fri Jul 12 17:47:07 2019.
