 Gaussian 16, Revision A.03,
 Gaussian 16:  ES64L-G16RevA.03 25-Dec-2016

 -------------------------------------
 # td=(NStates=1) CAM-B3LYP/6-31G(d,p)
 -------------------------------------

 --
 TD
 --
 Symbolic Z-matrix:
 Charge =  0 Multiplicity = 1

                         Standard orientation:
 ---------------------------------------------------------------------
 Center     Atomic      Atomic             Coordinates (Angstroms)
 Number     Number       Type             X           Y           Z
 ---------------------------------------------------------------------
      1          8           0      -14.166455   -1.977511    0.487102
      2          8           0       14.848038    0.993536   -0.152130
      3          6           0      -11.799331    0.100309    1.196676
      4          6           0      -10.976593    0.320234   -0.093954
      5          6           0      -12.104407   -1.453613    1.439656
      6          6           0      -12.798482   -2.088495    0.289253
      7          6           0      -11.523403   -0.497731   -1.212548
      8          6           0       11.164727    0.957182    1.018104
      9          6           0      -10.923708    0.678797    2.353776
     10          6           0      -13.112675    0.920286    1.171187
     11          6           0       12.573285    1.558376    0.584294
     12          6           0      -12.329013   -1.481524   -1.076952
     13          6           0       13.463198    0.476766    0.198866
     14          6           0       10.675396   -0.000085   -0.027762
     15          6           0       -9.515777   -0.122539   -0.079049
     16          6           0       13.019565   -0.231472   -1.049772
     17          6           0       11.494880   -0.615589   -0.942936
     18          6           0       10.223193    2.214980    0.976774
     19          6           0       11.199823    0.329320    2.383745
     20          6           0      -11.216783   -0.117345   -2.677785
     21          6           0       -8.526768    0.764184   -0.240425
     22          6           0        9.309801   -0.516699   -0.025602
     23          6           0       11.013455   -1.552944   -1.993177
     24          6           0       -7.107115    0.470540   -0.189924
     25          6           0        8.834079   -1.826402    0.005525
     26          6           0       -6.719017   -0.974146    0.004851
     27          6           0        7.420580   -2.216116   -0.021639
     28          6           0       -6.305363    1.587108   -0.460426
     29          6           0        7.160317   -3.643129    0.420039
     30          6           0        6.413134   -1.279493   -0.142886
     31          6           0       -4.879650    1.455812   -0.353913
     32          6           0        5.057784   -1.535747    0.025174
     33          6           0       -3.950950    2.549477   -0.620799
     34          6           0       -2.648874    2.662154   -0.456308
     35          6           0        4.069759   -0.533610   -0.265936
     36          6           0        2.665891   -0.720036    0.027281
     37          6           0       -1.971239    4.021611   -0.786232
     38          6           0       -1.808767    1.521574   -0.273456
     39          6           0        1.727354    0.309275   -0.243421
     40          6           0        2.110621   -2.017795    0.404009
     41          6           0       -0.409037    1.564572   -0.344423
     42          6           0        0.437465    0.354947   -0.082912
     43          1           0      -10.961974    1.327760   -0.395169
     44          1           0      -12.882749   -1.597807    2.237783
     45          1           0      -10.982618   -1.959348    1.677202
     46          1           0      -12.512808   -3.102614    0.419706
     47          1           0       -9.802525    0.176331    2.289277
     48          1           0      -10.819344    1.759873    2.270908
     49          1           0      -11.260437    0.310912    3.439626
     50          1           0      -13.885078    0.534473    0.431773
     51          1           0      -13.694027    0.649975    2.249977
     52          1           0      -12.759648    1.889369    0.995121
     53          1           0       12.358201    2.221871   -0.329945
     54          1           0       13.040361    2.166945    1.347366
     55          1           0      -12.715109   -1.899961   -2.064772
     56          1           0       13.464161   -0.498671    0.773077
     57          1           0       -9.184204   -1.351937    0.022743
     58          1           0       13.449945   -1.153504   -1.236864
     59          1           0       13.172228    0.474080   -2.014078
     60          1           0        9.313045    1.998851    1.483276
     61          1           0        9.948972    2.570349    0.115970
     62          1           0       10.764389    3.016776    1.605264
     63          1           0       11.827124   -0.623522    2.524086
     64          1           0       10.163975    0.132506    2.744301
     65          1           0       11.484893    1.175494    3.103470
     66          1           0      -10.071332   -0.158736   -2.764840
     67          1           0      -11.776863    0.848463   -3.071463
     68          1           0      -11.495054   -0.833492   -3.302851
     69          1           0      -14.580934   -1.864704   -0.463336
     70          1           0        8.566020    0.215963    0.220670
     71          1           0       -8.779754    1.734781   -0.720861
     72          1           0       11.252263   -2.590329   -1.626175
     73          1           0       10.091167   -1.409287   -2.277241
     74          1           0       11.597623   -1.198183   -2.935938
     75          1           0       15.118454    1.517245    0.542715
     76          1           0        9.478413   -2.628869    0.060136
     77          1           0       -5.637117   -1.241199   -0.258276
     78          1           0       -6.976129   -1.395581    1.024289
     79          1           0       -7.299981   -1.641887   -0.658730
     80          1           0       -6.618184    2.486997   -0.826648
     81          1           0        7.052205   -3.582193    1.578297
     82          1           0        6.239591   -4.284055   -0.044834
     83          1           0        8.017350   -4.257989    0.114706
     84          1           0        6.582907   -0.235870   -0.559084
     85          1           0       -4.563596    0.526911   -0.140400
     86          1           0        4.496801   -2.441580    0.114537
     87          1           0       -4.611396    3.388661   -0.728908
     88          1           0        4.342503    0.518988   -0.855259
     89          1           0       -1.105364    3.879607   -1.601684
     90          1           0       -1.643987    4.404141    0.251138
     91          1           0       -2.859807    4.766598   -0.805035
     92          1           0       -2.345909    0.576289   -0.145298
     93          1           0        2.350734    1.385773   -0.572117
     94          1           0        2.743523   -2.331243    1.272095
     95          1           0        1.009432   -2.078839    0.368900
     96          1           0        2.057015   -2.758406   -0.441593
     97          1           0        0.220685    2.503197   -0.586231
     98          1           0       -0.274838   -0.525567    0.447611
 ---------------------------------------------------------------------

 SCF Done:  E(RCAM-B3LYP) =  -1706.90836777     A.U. after   17 cycles

 Excitation energies and oscillator strengths:

 Excited State   1:      Singlet-A      1.5608 eV  794.34 nm  f=2.9123  <S**2>=0.000
     155 ->158         0.11270
     156 ->157         0.71835
     156 <-157        -0.17936
 This state for optimization and/or second-order correction.
 Total Energy, E(TD-HF/TD-DFT) =  -1706.85100763
 Copying the excited state density for this state as the 1-particle RhoCI density.

 The electronic state is 1-A.
 Alpha  occ. eigenvalues --  -19.21862 -19.20114 -10.30456 -10.29745 -10.28159
 Alpha  occ. eigenvalues --  -10.28101 -10.27958 -10.27934 -10.27790 -10.27598
 Alpha  occ. eigenvalues --  -10.27582 -10.27525 -10.27502 -10.27501 -10.27342
 Alpha  occ. eigenvalues --  -10.27088 -10.27084 -10.26719 -10.26682 -10.26413
 Alpha  occ. eigenvalues --  -10.26374 -10.26268 -10.26258 -10.26120 -10.26112
 Alpha  occ. eigenvalues --  -10.26083 -10.26051 -10.26043 -10.25997 -10.25931
 Alpha  occ. eigenvalues --  -10.25908 -10.25832 -10.25767 -10.25682 -10.25651
 Alpha  occ. eigenvalues --  -10.25591 -10.25543 -10.25478 -10.25202 -10.24782
 Alpha  occ. eigenvalues --  -10.24541 -10.24158  -1.09745  -1.07622  -0.94046
 Alpha  occ. eigenvalues --   -0.93833  -0.91909  -0.91509  -0.90425  -0.89991
 Alpha  occ. eigenvalues --   -0.87361  -0.86569  -0.86500  -0.85617  -0.84774
 Alpha  occ. eigenvalues --   -0.83035  -0.82004  -0.80250  -0.79957  -0.78633
 Alpha  occ. eigenvalues --   -0.77092  -0.76795  -0.76495  -0.75879  -0.75823
 Alpha  occ. eigenvalues --   -0.75675  -0.74721  -0.73549  -0.71874  -0.70258
 Alpha  occ. eigenvalues --   -0.68511  -0.67011  -0.66309  -0.64752  -0.64323
 Alpha  occ. eigenvalues --   -0.63154  -0.62298  -0.61587  -0.60083  -0.59763
 Alpha  occ. eigenvalues --   -0.58887  -0.57772  -0.57646  -0.57036  -0.55968
 Alpha  occ. eigenvalues --   -0.55671  -0.55101  -0.54536  -0.54082  -0.53703
 Alpha  occ. eigenvalues --   -0.53436  -0.52634  -0.52303  -0.52226  -0.51626
 Alpha  occ. eigenvalues --   -0.51569  -0.50088  -0.49634  -0.49465  -0.49052
 Alpha  occ. eigenvalues --   -0.48832  -0.48493  -0.48187  -0.48001  -0.47895
 Alpha  occ. eigenvalues --   -0.47579  -0.47358  -0.46994  -0.46462  -0.46157
 Alpha  occ. eigenvalues --   -0.45522  -0.45432  -0.45121  -0.44814  -0.44745
 Alpha  occ. eigenvalues --   -0.44467  -0.43967  -0.43633  -0.43417  -0.43309
 Alpha  occ. eigenvalues --   -0.43027  -0.42986  -0.42427  -0.42368  -0.41866
 Alpha  occ. eigenvalues --   -0.41729  -0.41576  -0.41398  -0.41354  -0.41201
 Alpha  occ. eigenvalues --   -0.40496  -0.39895  -0.39242  -0.39124  -0.38906
 Alpha  occ. eigenvalues --   -0.38312  -0.38134  -0.38023  -0.38005  -0.37622
 Alpha  occ. eigenvalues --   -0.37530  -0.37200  -0.36665  -0.36017  -0.35564
 Alpha  occ. eigenvalues --   -0.35282  -0.34502  -0.33653  -0.32516  -0.31895
 Alpha  occ. eigenvalues --   -0.31444  -0.30454  -0.28864  -0.26720  -0.23527
 Alpha  occ. eigenvalues --   -0.17156
 Alpha virt. eigenvalues --   -0.07896  -0.01153   0.02569   0.05888   0.07439
 Alpha virt. eigenvalues --    0.08712   0.09863   0.10730   0.11198   0.11704
 Alpha virt. eigenvalues --    0.12609   0.13081   0.13276   0.13669   0.13915

 Mulliken charges:
               1
     1  O   -0.553300
     2  O   -0.568661
     3  C    0.019405
     4  C   -0.119493
     5  C   -0.192478
     6  C    0.189628
     7  C    0.142242
     8  C   -0.031270
     9  C   -0.288764
    10  C   -0.271616
    11  C   -0.177261
    12  C   -0.198960
    13  C    0.154836
    14  C    0.091709
    15  C   -0.102253
    16  C   -0.198849
    17  C   -0.000447
    18  C   -0.310160
    19  C   -0.294048
    20  C   -0.350878
    21  C   -0.086507
    22  C   -0.140618
    23  C   -0.337432
    24  C    0.114810
    25  C   -0.079716
    26  C   -0.386821
    27  C    0.074932
    28  C   -0.114484
    29  C   -0.361362
    30  C   -0.118836
    31  C   -0.067403
    32  C   -0.094605
    33  C   -0.130167
    34  C    0.102286
    35  C   -0.125400
    36  C    0.110121
    37  C   -0.365473
    38  C   -0.108595
    39  C   -0.105078
    40  C   -0.380683
    41  C   -0.100850
    42  C   -0.096851
    43  H    0.095864
    44  H    0.115025
    45  H    0.064094
    46  H    0.086647
    47  H    0.081841
    48  H    0.099524
    49  H    0.083220
    50  H    0.102346
    51  H    0.080703
    52  H    0.096653
    53  H    0.106392
    54  H    0.087222
    55  H    0.064686
    56  H    0.088441
    57  H    0.074339
    58  H    0.116076
    59  H    0.095296
    60  H    0.104027
    61  H    0.121432
    62  H    0.087025
    63  H    0.107478
    64  H    0.111168
    65  H    0.090019
    66  H    0.106823
    67  H    0.098219
    68  H    0.119656
    69  H    0.314619
    70  H    0.078799
    71  H    0.085096
    72  H    0.113343
    73  H    0.136457
    74  H    0.089762
    75  H    0.292931
    76  H    0.070091
    77  H    0.110522
    78  H    0.126317
    79  H    0.127863
    80  H    0.085411
    81  H    0.126370
    82  H    0.099501
    83  H    0.112585
    84  H    0.090684
    85  H    0.061303
    86  H    0.099880
    87  H    0.067874
    88  H    0.072404
    89  H    0.126950
    90  H    0.118085
    91  H    0.103836
    92  H    0.083774
    93  H    0.054257
    94  H    0.124599
    95  H    0.110899
    96  H    0.118069
    97  H    0.090207
    98  H    0.082648
 Sum of Mulliken charges =  -0.00000

 Dipole moment (field-independent basis, Debye):
    X=             -0.1909    Y=             -0.4338    Z=             -0.5742  Tot=              0.7445
 Quadrupole moment (field-independent basis, Debye-Ang):
   XX=           -291.2765   YY=           -245.6943   ZZ=           -264.6424
   XY=             -1.3668   XZ=             45.6250   YZ=              1.5986

 Normal termination of Gaussian 16 at Tue Jul 16 07:10:04 2019.
