 Gaussian 16, Revision A.03,
 Gaussian 16:  ES64L-G16RevA.03 25-Dec-2016

 -------------------------------------
 # td=(NStates=1) CAM-B3LYP/6-31G(d,p)
 -------------------------------------

 --
 TD
 --
 Symbolic Z-matrix:
 Charge =  0 Multiplicity = 1

                         Standard orientation:
 ---------------------------------------------------------------------
 Center     Atomic      Atomic             Coordinates (Angstroms)
 Number     Number       Type             X           Y           Z
 ---------------------------------------------------------------------
      1          8           0      -14.242972   -1.800752    0.598243
      2          8           0       14.775940    1.173168    0.061644
      3          6           0      -11.775326    0.210114    1.218457
      4          6           0      -11.011276    0.295140   -0.105206
      5          6           0      -12.060492   -1.265287    1.412769
      6          6           0      -12.815351   -1.927313    0.258465
      7          6           0      -11.615707   -0.401802   -1.253915
      8          6           0       11.128945    0.998844    0.994791
      9          6           0      -11.099097    0.695988    2.412990
     10          6           0      -13.179022    0.969210    1.189642
     11          6           0       12.434445    1.726276    0.739892
     12          6           0      -12.459028   -1.459120   -1.096176
     13          6           0       13.464994    0.561740    0.261606
     14          6           0       10.735323   -0.067688   -0.042682
     15          6           0       -9.526218   -0.070433   -0.015374
     16          6           0       13.049509   -0.066941   -0.949195
     17          6           0       11.509372   -0.483273   -0.921312
     18          6           0       10.186990    2.307432    0.899160
     19          6           0       10.950736    0.502031    2.325016
     20          6           0      -11.278476    0.075215   -2.530060
     21          6           0       -8.449713    0.760085   -0.124721
     22          6           0        9.343554   -0.455450    0.170419
     23          6           0       11.181104   -1.482963   -1.985577
     24          6           0       -7.105311    0.407557   -0.168128
     25          6           0        8.872541   -1.772034    0.121442
     26          6           0       -6.751000   -0.987232    0.074318
     27          6           0        7.523947   -2.194530    0.153752
     28          6           0       -6.212468    1.472742   -0.379370
     29          6           0        7.194372   -3.676283    0.348973
     30          6           0        6.442101   -1.347089   -0.097749
     31          6           0       -4.766716    1.313410   -0.492003
     32          6           0        5.031998   -1.705538   -0.000413
     33          6           0       -3.999618    2.453890   -0.649804
     34          6           0       -2.561210    2.478772   -0.703651
     35          6           0        4.137945   -0.756333   -0.225934
     36          6           0        2.688606   -0.908413   -0.129777
     37          6           0       -1.897398    3.777671   -0.981444
     38          6           0       -1.728740    1.362651   -0.438229
     39          6           0        1.761279    0.174383   -0.328095
     40          6           0        2.174791   -2.240977    0.060829
     41          6           0       -0.314121    1.305213   -0.448443
     42          6           0        0.456685    0.175231   -0.289226
     43          1           0      -11.033594    1.435361   -0.481329
     44          1           0      -12.705261   -1.306101    2.448454
     45          1           0      -11.127790   -1.919994    1.666843
     46          1           0      -12.672746   -2.943213    0.325568
     47          1           0      -10.014806    0.238238    2.337903
     48          1           0      -10.918613    1.731283    2.327065
     49          1           0      -11.726041    0.494445    3.282019
     50          1           0      -13.624577    0.787172    0.382035
     51          1           0      -13.868404    0.597065    2.090792
     52          1           0      -12.880630    1.978150    1.524422
     53          1           0       12.476999    2.572951   -0.034476
     54          1           0       12.923046    2.410727    1.540715
     55          1           0      -12.872773   -1.753234   -2.001825
     56          1           0       13.517608   -0.152189    0.905173
     57          1           0       -9.175138   -1.024459    0.261155
     58          1           0       13.566831   -0.914899   -1.593066
     59          1           0       12.961525    0.795809   -1.837624
     60          1           0        9.288101    2.046613    1.079553
     61          1           0       10.069375    2.747398    0.007452
     62          1           0       10.535416    3.140618    1.505062
     63          1           0       11.795287   -0.192511    2.543461
     64          1           0        9.997085   -0.106700    2.399427
     65          1           0       11.019178    1.296649    3.071662
     66          1           0      -10.256658    0.141209   -2.513539
     67          1           0      -11.826018    1.122289   -2.896829
     68          1           0      -11.618333   -0.567099   -3.385325
     69          1           0      -14.526510   -1.924570   -0.286750
     70          1           0        8.670848    0.173050    0.563651
     71          1           0       -8.862118    1.866548   -0.070039
     72          1           0       11.461364   -2.483438   -1.566868
     73          1           0       10.084051   -1.536252   -2.301029
     74          1           0       11.689256   -1.316939   -2.921054
     75          1           0       15.059937    1.294918    0.840526
     76          1           0        9.580225   -2.493406   -0.106437
     77          1           0       -5.577176   -1.199677   -0.081636
     78          1           0       -7.111439   -1.197691    1.049572
     79          1           0       -7.118823   -1.769805   -0.608482
     80          1           0       -6.572869    2.392527   -0.203572
     81          1           0        6.818864   -3.716259    1.377056
     82          1           0        6.288632   -3.895511   -0.226776
     83          1           0        8.030353   -4.285189    0.172333
     84          1           0        6.721135   -0.378283   -0.416846
     85          1           0       -4.300019    0.305006   -0.340679
     86          1           0        4.758807   -2.691180    0.265699
     87          1           0       -4.602398    3.337394   -0.832954
     88          1           0        4.416804    0.299115   -0.521605
     89          1           0       -1.330032    3.728564   -1.795580
     90          1           0       -1.285531    3.947888   -0.009773
     91          1           0       -2.613913    4.429888   -1.116160
     92          1           0       -2.104599    0.426674    0.035113
     93          1           0        2.136893    1.144342   -0.489025
     94          1           0        2.580880   -2.706388    1.115155
     95          1           0        1.057745   -2.460596    0.255364
     96          1           0        2.351372   -2.929997   -0.697330
     97          1           0        0.224981    2.251279   -1.080651
     98          1           0        0.002764   -0.776304    0.048719
 ---------------------------------------------------------------------

 SCF Done:  E(RCAM-B3LYP) =  -1706.91403941     A.U. after   15 cycles

 Excitation energies and oscillator strengths:

 Excited State   1:      Singlet-A      2.0522 eV  604.14 nm  f=3.0439  <S**2>=0.000
     155 ->158        -0.14328
     156 ->157         0.69441
 This state for optimization and/or second-order correction.
 Total Energy, E(TD-HF/TD-DFT) =  -1706.83862142
 Copying the excited state density for this state as the 1-particle RhoCI density.

 The electronic state is 1-A.
 Alpha  occ. eigenvalues --  -19.19971 -19.19203 -10.29423 -10.29214 -10.27839
 Alpha  occ. eigenvalues --  -10.27789 -10.27779 -10.27757 -10.27613 -10.27234
 Alpha  occ. eigenvalues --  -10.27154 -10.26797 -10.26781 -10.26729 -10.26688
 Alpha  occ. eigenvalues --  -10.26618 -10.26590 -10.26499 -10.26449 -10.26300
 Alpha  occ. eigenvalues --  -10.26292 -10.26285 -10.26024 -10.25952 -10.25810
 Alpha  occ. eigenvalues --  -10.25788 -10.25743 -10.25683 -10.25591 -10.25483
 Alpha  occ. eigenvalues --  -10.25469 -10.25404 -10.25367 -10.25264 -10.24947
 Alpha  occ. eigenvalues --  -10.24847 -10.24499 -10.24149 -10.23755 -10.23678
 Alpha  occ. eigenvalues --  -10.23072 -10.21735  -1.10944  -1.08789  -0.94847
 Alpha  occ. eigenvalues --   -0.94808  -0.92616  -0.92277  -0.91118  -0.90312
 Alpha  occ. eigenvalues --   -0.88794  -0.88162  -0.87796  -0.85885  -0.85346
 Alpha  occ. eigenvalues --   -0.83573  -0.82974  -0.81303  -0.80697  -0.79465
 Alpha  occ. eigenvalues --   -0.77807  -0.77686  -0.76835  -0.76521  -0.75587
 Alpha  occ. eigenvalues --   -0.75448  -0.75277  -0.74932  -0.72940  -0.70982
 Alpha  occ. eigenvalues --   -0.69715  -0.67808  -0.66860  -0.66449  -0.64114
 Alpha  occ. eigenvalues --   -0.63421  -0.62994  -0.62197  -0.61212  -0.60441
 Alpha  occ. eigenvalues --   -0.60115  -0.59704  -0.58357  -0.57087  -0.56129
 Alpha  occ. eigenvalues --   -0.55927  -0.55793  -0.55270  -0.54604  -0.54510
 Alpha  occ. eigenvalues --   -0.53853  -0.53365  -0.52849  -0.52344  -0.51829
 Alpha  occ. eigenvalues --   -0.50888  -0.50648  -0.50589  -0.50479  -0.50232
 Alpha  occ. eigenvalues --   -0.49480  -0.49335  -0.49191  -0.49011  -0.48678
 Alpha  occ. eigenvalues --   -0.48446  -0.48026  -0.47478  -0.47203  -0.47045
 Alpha  occ. eigenvalues --   -0.46952  -0.46582  -0.46025  -0.45549  -0.45361
 Alpha  occ. eigenvalues --   -0.45056  -0.44731  -0.44460  -0.44154  -0.43863
 Alpha  occ. eigenvalues --   -0.43560  -0.43273  -0.42802  -0.42086  -0.41958
 Alpha  occ. eigenvalues --   -0.41592  -0.40902  -0.40874  -0.40830  -0.40667
 Alpha  occ. eigenvalues --   -0.40397  -0.40136  -0.40053  -0.39989  -0.39605
 Alpha  occ. eigenvalues --   -0.39162  -0.39111  -0.38614  -0.38208  -0.38124
 Alpha  occ. eigenvalues --   -0.38075  -0.37856  -0.37278  -0.36042  -0.35786
 Alpha  occ. eigenvalues --   -0.35184  -0.34817  -0.34681  -0.31883  -0.31667
 Alpha  occ. eigenvalues --   -0.30551  -0.29860  -0.29449  -0.26611  -0.23808
 Alpha  occ. eigenvalues --   -0.19257
 Alpha virt. eigenvalues --   -0.06399  -0.01252   0.01861   0.04723   0.06923
 Alpha virt. eigenvalues --    0.09719   0.11750   0.12097   0.12313   0.12717
 Alpha virt. eigenvalues --    0.12901   0.13088   0.13946   0.14267   0.14395

 Mulliken charges:
               1
     1  O   -0.542561
     2  O   -0.537683
     3  C    0.016262
     4  C   -0.143504
     5  C   -0.168964
     6  C    0.126918
     7  C    0.154872
     8  C   -0.033792
     9  C   -0.287322
    10  C   -0.263222
    11  C   -0.201542
    12  C   -0.151956
    13  C    0.143814
    14  C    0.125594
    15  C   -0.111443
    16  C   -0.196934
    17  C    0.024208
    18  C   -0.307999
    19  C   -0.282278
    20  C   -0.361860
    21  C   -0.089116
    22  C   -0.123739
    23  C   -0.379838
    24  C    0.120781
    25  C   -0.110350
    26  C   -0.386405
    27  C    0.069012
    28  C   -0.119339
    29  C   -0.369706
    30  C   -0.119244
    31  C   -0.057129
    32  C   -0.078022
    33  C   -0.127186
    34  C    0.055674
    35  C   -0.097980
    36  C    0.105433
    37  C   -0.346135
    38  C   -0.116278
    39  C   -0.110632
    40  C   -0.396316
    41  C   -0.105831
    42  C   -0.047817
    43  H    0.076369
    44  H    0.089600
    45  H    0.073937
    46  H    0.095795
    47  H    0.080350
    48  H    0.096596
    49  H    0.105032
    50  H    0.104627
    51  H    0.090860
    52  H    0.087352
    53  H    0.105764
    54  H    0.081701
    55  H    0.074758
    56  H    0.095881
    57  H    0.079375
    58  H    0.107251
    59  H    0.089606
    60  H    0.094592
    61  H    0.107816
    62  H    0.096662
    63  H    0.084455
    64  H    0.109100
    65  H    0.099901
    66  H    0.133124
    67  H    0.093782
    68  H    0.103621
    69  H    0.293402
    70  H    0.086134
    71  H    0.070769
    72  H    0.116811
    73  H    0.117985
    74  H    0.110915
    75  H    0.277823
    76  H    0.074889
    77  H    0.092717
    78  H    0.140274
    79  H    0.128030
    80  H    0.087595
    81  H    0.127418
    82  H    0.119985
    83  H    0.111663
    84  H    0.078367
    85  H    0.090555
    86  H    0.092458
    87  H    0.088922
    88  H    0.084359
    89  H    0.134533
    90  H    0.122385
    91  H    0.107724
    92  H    0.075679
    93  H    0.071070
    94  H    0.090416
    95  H    0.102355
    96  H    0.138144
    97  H    0.062474
    98  H    0.075797
 Sum of Mulliken charges =  -0.00000

 Dipole moment (field-independent basis, Debye):
    X=              0.5219    Y=             -0.7634    Z=             -0.6203  Tot=              1.1135
 Quadrupole moment (field-independent basis, Debye-Ang):
   XX=           -309.0154   YY=           -244.7464   ZZ=           -260.8030
   XY=            -11.4095   XZ=             40.2726   YZ=              3.2631

 Normal termination of Gaussian 16 at Sat Jul 13 09:16:31 2019.
