 Gaussian 16, Revision A.03,
 Gaussian 16:  ES64L-G16RevA.03 25-Dec-2016

 -------------------------------------
 # td=(NStates=1) CAM-B3LYP/6-31G(d,p)
 -------------------------------------

 --
 TD
 --
 Symbolic Z-matrix:
 Charge =  0 Multiplicity = 1

                         Standard orientation:
 ---------------------------------------------------------------------
 Center     Atomic      Atomic             Coordinates (Angstroms)
 Number     Number       Type             X           Y           Z
 ---------------------------------------------------------------------
      1          8           0       14.281601   -1.985325   -0.329199
      2          8           0      -14.838405    0.989324    0.265924
      3          6           0       11.881621    0.231365   -1.174681
      4          6           0       10.935858    0.370301    0.125027
      5          6           0       12.233243   -1.231392   -1.309067
      6          6           0       12.799927   -2.056445   -0.213529
      7          6           0       11.535098   -0.531257    1.225341
      8          6           0      -11.093521    1.170257   -0.765820
      9          6           0       11.223043    0.799292   -2.297806
     10          6           0       13.177672    0.987704   -0.951960
     11          6           0      -12.514083    1.661265   -0.398668
     12          6           0       12.183512   -1.629877    1.192519
     13          6           0      -13.605171    0.512420   -0.177133
     14          6           0      -10.709648   -0.073292    0.082879
     15          6           0        9.499469   -0.004337   -0.000152
     16          6           0      -12.931734   -0.309189    1.021391
     17          6           0      -11.415201   -0.738125    0.951626
     18          6           0      -10.213109    2.387207   -0.515127
     19          6           0      -11.006913    0.855813   -2.283632
     20          6           0       11.084156   -0.193315    2.622285
     21          6           0        8.515167    0.908003    0.097144
     22          6           0       -9.328463   -0.496875   -0.193656
     23          6           0      -11.150778   -1.736282    1.868266
     24          6           0        7.123025    0.537481    0.064406
     25          6           0       -8.895822   -1.787265   -0.124901
     26          6           0        6.723271   -0.914053   -0.291192
     27          6           0       -7.427445   -2.083758   -0.301137
     28          6           0        6.151372    1.520064    0.468219
     29          6           0       -7.229992   -3.560194   -0.607035
     30          6           0       -6.385832   -1.370396   -0.000841
     31          6           0        4.750171    1.407883    0.368547
     32          6           0       -4.994338   -1.566495   -0.016073
     33          6           0        3.956231    2.488940    0.633343
     34          6           0        2.474699    2.560803    0.605397
     35          6           0       -4.085531   -0.613428    0.175851
     36          6           0       -2.665488   -0.855948   -0.035799
     37          6           0        1.815297    3.843173    0.805152
     38          6           0        1.815086    1.410616    0.315832
     39          6           0       -1.716797    0.137816   -0.005997
     40          6           0       -2.079943   -2.239365   -0.463379
     41          6           0        0.362231    1.316582    0.236044
     42          6           0       -0.382902    0.179948    0.027228
     43          1           0       10.902825    1.456438    0.653748
     44          1           0       12.689345   -1.579245   -2.264150
     45          1           0       11.197286   -1.612563   -1.333501
     46          1           0       12.512559   -3.040336   -0.235967
     47          1           0       10.232122    0.270343   -2.502394
     48          1           0       10.863368    1.854237   -2.082196
     49          1           0       12.082320    0.990929   -3.081230
     50          1           0       13.661659    0.661464   -0.024836
     51          1           0       13.774051    0.737896   -1.849082
     52          1           0       13.015638    2.072228   -0.950102
     53          1           0      -12.440019    2.337181    0.420149
     54          1           0      -12.829503    2.114909   -1.274329
     55          1           0       12.426495   -2.178915    2.021384
     56          1           0      -13.750989   -0.093611   -1.033233
     57          1           0        9.230200   -0.980738   -0.290052
     58          1           0      -13.474515   -1.283680    1.291881
     59          1           0      -13.170178    0.126533    2.054839
     60          1           0       -9.176261    2.415875   -1.189344
     61          1           0       -9.923542    2.456172    0.654771
     62          1           0      -10.733609    3.362467   -0.839685
     63          1           0      -11.487832   -0.044888   -2.624846
     64          1           0       -9.802894    0.633383   -2.514257
     65          1           0      -10.992488    1.777597   -2.842148
     66          1           0       10.054544   -0.065940    2.649193
     67          1           0       11.573961    0.855576    2.831679
     68          1           0       11.449675   -0.817531    3.493709
     69          1           0       14.646870   -2.342079    0.509774
     70          1           0       -8.452491    0.159185   -0.487523
     71          1           0        8.706014    1.905016    0.558623
     72          1           0      -11.534112   -2.696294    1.717410
     73          1           0      -10.001657   -1.927740    2.037878
     74          1           0      -11.432663   -1.556945    2.761397
     75          1           0      -15.581765    1.144827   -0.570908
     76          1           0       -9.661202   -2.571172   -0.053402
     77          1           0        5.728885   -0.968848   -0.413692
     78          1           0        7.307347   -1.391097   -1.307947
     79          1           0        6.872911   -1.697362    0.469948
     80          1           0        6.575845    2.522619    0.937847
     81          1           0       -7.320776   -3.751604   -1.821724
     82          1           0       -6.218906   -3.957747   -0.382513
     83          1           0       -8.108243   -4.043850   -0.161745
     84          1           0       -6.438534   -0.309562    0.281095
     85          1           0        4.378851    0.321536    0.142672
     86          1           0       -4.521476   -2.553747   -0.313692
     87          1           0        4.486305    3.410250    0.793719
     88          1           0       -4.460924    0.416071    0.427787
     89          1           0        1.104109    3.558634    1.655360
     90          1           0        1.099217    4.037036   -0.051311
     91          1           0        2.606551    4.497351    0.894744
     92          1           0        2.564220    0.607424    0.231039
     93          1           0       -2.313661    1.245329   -0.005696
     94          1           0       -2.794954   -2.746989   -1.216049
     95          1           0       -1.087146   -2.035461   -0.927011
     96          1           0       -2.000314   -2.911506    0.547234
     97          1           0       -0.141163    2.230173    0.475856
     98          1           0        0.118451   -0.825101    0.083566
 ---------------------------------------------------------------------

 SCF Done:  E(RCAM-B3LYP) =  -1706.96274822     A.U. after   15 cycles

 Excitation energies and oscillator strengths:

 Excited State   1:      Singlet-A      2.3629 eV  524.72 nm  f=2.9156  <S**2>=0.000
     155 ->158         0.14545
     156 ->157         0.68937
 This state for optimization and/or second-order correction.
 Total Energy, E(TD-HF/TD-DFT) =  -1706.87591507
 Copying the excited state density for this state as the 1-particle RhoCI density.

 The electronic state is 1-A.
 Alpha  occ. eigenvalues --  -19.22661 -19.20332 -10.31222 -10.29529 -10.28439
 Alpha  occ. eigenvalues --  -10.27958 -10.27923 -10.27688 -10.27632 -10.27591
 Alpha  occ. eigenvalues --  -10.27577 -10.27420 -10.26945 -10.26895 -10.26750
 Alpha  occ. eigenvalues --  -10.26749 -10.26669 -10.26361 -10.26305 -10.26268
 Alpha  occ. eigenvalues --  -10.26220 -10.26184 -10.26167 -10.26084 -10.25999
 Alpha  occ. eigenvalues --  -10.25938 -10.25857 -10.25843 -10.25727 -10.25693
 Alpha  occ. eigenvalues --  -10.25643 -10.25602 -10.25502 -10.25286 -10.24806
 Alpha  occ. eigenvalues --  -10.24798 -10.24625 -10.24380 -10.23730 -10.23536
 Alpha  occ. eigenvalues --  -10.23393 -10.22953  -1.08008  -1.06369  -0.94187
 Alpha  occ. eigenvalues --   -0.93694  -0.92429  -0.91817  -0.90526  -0.89935
 Alpha  occ. eigenvalues --   -0.88533  -0.88309  -0.87286  -0.86128  -0.84057
 Alpha  occ. eigenvalues --   -0.83136  -0.82011  -0.81037  -0.80275  -0.78226
 Alpha  occ. eigenvalues --   -0.77076  -0.76714  -0.75695  -0.75341  -0.75156
 Alpha  occ. eigenvalues --   -0.74917  -0.74754  -0.73625  -0.72917  -0.70151
 Alpha  occ. eigenvalues --   -0.68595  -0.67748  -0.66914  -0.65229  -0.64020
 Alpha  occ. eigenvalues --   -0.62675  -0.62025  -0.61590  -0.60292  -0.60077
 Alpha  occ. eigenvalues --   -0.59245  -0.58397  -0.58009  -0.56897  -0.55764
 Alpha  occ. eigenvalues --   -0.55442  -0.55135  -0.55035  -0.54286  -0.54048
 Alpha  occ. eigenvalues --   -0.53224  -0.52667  -0.52051  -0.51886  -0.51345
 Alpha  occ. eigenvalues --   -0.50802  -0.50387  -0.50049  -0.50026  -0.49811
 Alpha  occ. eigenvalues --   -0.49338  -0.48623  -0.48449  -0.48069  -0.47678
 Alpha  occ. eigenvalues --   -0.47527  -0.46814  -0.46586  -0.46387  -0.46304
 Alpha  occ. eigenvalues --   -0.46028  -0.45874  -0.45243  -0.44895  -0.44659
 Alpha  occ. eigenvalues --   -0.44474  -0.44128  -0.43894  -0.43641  -0.43339
 Alpha  occ. eigenvalues --   -0.42879  -0.42756  -0.42603  -0.42109  -0.41938
 Alpha  occ. eigenvalues --   -0.41691  -0.41210  -0.40823  -0.40631  -0.40285
 Alpha  occ. eigenvalues --   -0.40159  -0.39969  -0.39660  -0.39364  -0.39033
 Alpha  occ. eigenvalues --   -0.38931  -0.38628  -0.38184  -0.37850  -0.37741
 Alpha  occ. eigenvalues --   -0.37448  -0.37099  -0.36985  -0.36305  -0.35327
 Alpha  occ. eigenvalues --   -0.35168  -0.34105  -0.33844  -0.32094  -0.31092
 Alpha  occ. eigenvalues --   -0.30841  -0.30186  -0.29687  -0.26641  -0.24037
 Alpha  occ. eigenvalues --   -0.20008
 Alpha virt. eigenvalues --   -0.05218  -0.00633   0.02642   0.06289   0.07807
 Alpha virt. eigenvalues --    0.08025   0.09536   0.10937   0.11584   0.12173
 Alpha virt. eigenvalues --    0.12595   0.12872   0.13406   0.13724   0.13868

 Mulliken charges:
               1
     1  O   -0.562788
     2  O   -0.559263
     3  C    0.045430
     4  C   -0.154976
     5  C   -0.182005
     6  C    0.146358
     7  C    0.148218
     8  C    0.007924
     9  C   -0.291973
    10  C   -0.286503
    11  C   -0.184018
    12  C   -0.175126
    13  C    0.182550
    14  C    0.060377
    15  C   -0.066916
    16  C   -0.255324
    17  C    0.109917
    18  C   -0.304026
    19  C   -0.305540
    20  C   -0.359113
    21  C   -0.091528
    22  C   -0.107248
    23  C   -0.395049
    24  C    0.089352
    25  C   -0.125749
    26  C   -0.359384
    27  C    0.080213
    28  C   -0.143309
    29  C   -0.361222
    30  C   -0.112296
    31  C   -0.054785
    32  C   -0.058730
    33  C   -0.141919
    34  C    0.087225
    35  C   -0.106515
    36  C    0.085661
    37  C   -0.364377
    38  C   -0.083130
    39  C   -0.112036
    40  C   -0.360508
    41  C   -0.116638
    42  C   -0.070741
    43  H    0.077949
    44  H    0.107796
    45  H    0.081971
    46  H    0.092780
    47  H    0.095552
    48  H    0.098052
    49  H    0.086230
    50  H    0.112919
    51  H    0.101190
    52  H    0.084532
    53  H    0.111136
    54  H    0.083480
    55  H    0.076209
    56  H    0.083432
    57  H    0.096453
    58  H    0.078941
    59  H    0.107254
    60  H    0.075355
    61  H    0.098099
    62  H    0.104837
    63  H    0.114994
    64  H    0.072068
    65  H    0.113332
    66  H    0.123552
    67  H    0.085895
    68  H    0.100085
    69  H    0.299699
    70  H    0.091419
    71  H    0.082178
    72  H    0.126284
    73  H    0.108520
    74  H    0.127335
    75  H    0.309283
    76  H    0.100129
    77  H    0.113745
    78  H    0.086700
    79  H    0.127720
    80  H    0.081252
    81  H    0.086590
    82  H    0.113649
    83  H    0.113588
    84  H    0.064074
    85  H    0.096777
    86  H    0.067390
    87  H    0.081995
    88  H    0.086036
    89  H    0.130487
    90  H    0.129167
    91  H    0.111363
    92  H    0.062226
    93  H    0.042770
    94  H    0.112906
    95  H    0.118822
    96  H    0.102895
    97  H    0.082173
    98  H    0.088242
 Sum of Mulliken charges =  -0.00000

 Dipole moment (field-independent basis, Debye):
    X=             -3.2772    Y=             -0.7273    Z=              0.3569  Tot=              3.3759
 Quadrupole moment (field-independent basis, Debye-Ang):
   XX=           -262.1870   YY=           -245.8774   ZZ=           -262.7400
   XY=             -1.0219   XZ=             42.4697   YZ=             -3.9098

 Normal termination of Gaussian 16 at Tue Jul 16 14:03:43 2019.
