 Gaussian 16, Revision A.03,
 Gaussian 16:  ES64L-G16RevA.03 25-Dec-2016

 -------------------------------------
 # td=(NStates=1) CAM-B3LYP/6-31G(d,p)
 -------------------------------------

 --
 TD
 --
 Symbolic Z-matrix:
 Charge =  0 Multiplicity = 1

                         Standard orientation:
 ---------------------------------------------------------------------
 Center     Atomic      Atomic             Coordinates (Angstroms)
 Number     Number       Type             X           Y           Z
 ---------------------------------------------------------------------
      1          8           0      -14.106232   -1.999441    0.658630
      2          8           0       14.830813    0.778618    0.402570
      3          6           0      -11.791153    0.091201    1.367573
      4          6           0      -11.057566    0.356747   -0.057895
      5          6           0      -12.046271   -1.416086    1.444719
      6          6           0      -12.821368   -2.040566    0.238743
      7          6           0      -11.658195   -0.398063   -1.238778
      8          6           0       11.122801    0.988906    1.051067
      9          6           0      -11.065925    0.621221    2.577436
     10          6           0      -13.121867    0.792572    1.139187
     11          6           0       12.595466    1.560256    0.903000
     12          6           0      -12.451738   -1.450709   -1.083938
     13          6           0       13.551095    0.345394    0.561651
     14          6           0       10.673976    0.058105   -0.027805
     15          6           0       -9.631939    0.024741    0.129724
     16          6           0       13.168159   -0.198305   -0.861955
     17          6           0       11.645540   -0.528802   -0.873479
     18          6           0       10.269960    2.270733    0.884901
     19          6           0       10.857334    0.439791    2.502408
     20          6           0      -11.262229    0.152686   -2.565219
     21          6           0       -8.589963    0.779950   -0.233861
     22          6           0        9.251300   -0.346791   -0.037918
     23          6           0       11.221257   -1.361962   -2.050093
     24          6           0       -7.211977    0.482853   -0.076826
     25          6           0        8.839118   -1.616634   -0.110350
     26          6           0       -6.836775   -0.974222    0.310984
     27          6           0        7.459040   -2.047333   -0.054445
     28          6           0       -6.206646    1.437329   -0.274701
     29          6           0        7.182147   -3.539946    0.254938
     30          6           0        6.394467   -1.170620   -0.307597
     31          6           0       -4.896241    1.332502   -0.251177
     32          6           0        5.075171   -1.551403   -0.205318
     33          6           0       -4.001486    2.332608   -0.450616
     34          6           0       -2.537183    2.500801   -0.683288
     35          6           0        4.057131   -0.609377   -0.390836
     36          6           0        2.726192   -0.795446   -0.308395
     37          6           0       -2.110968    3.900253   -1.090676
     38          6           0       -1.798637    1.409737   -0.499099
     39          6           0        1.826135    0.222105   -0.559198
     40          6           0        2.290602   -2.192950   -0.057730
     41          6           0       -0.367034    1.307503   -0.807929
     42          6           0        0.432508    0.201264   -0.478274
     43          1           0      -10.930215    1.395655   -0.270835
     44          1           0      -12.823242   -1.663196    2.285955
     45          1           0      -10.994538   -1.938477    1.573491
     46          1           0      -12.430737   -3.103078    0.334175
     47          1           0      -10.288308   -0.161604    2.526403
     48          1           0      -10.754827    1.867152    2.597245
     49          1           0      -11.813712    0.491024    3.474943
     50          1           0      -13.838665    0.704811    0.246682
     51          1           0      -13.673196    0.680193    2.033830
     52          1           0      -12.839949    1.932599    1.150516
     53          1           0       12.679988    2.512754    0.189773
     54          1           0       12.786511    1.966573    1.984281
     55          1           0      -12.671935   -1.979903   -2.050779
     56          1           0       13.716907   -0.202970    1.512382
     57          1           0       -9.268943   -1.057692    0.330682
     58          1           0       13.689623   -1.306887   -0.846396
     59          1           0       13.423011    0.456377   -1.630876
     60          1           0        9.208970    2.077554    1.104439
     61          1           0       10.600018    2.788509   -0.081041
     62          1           0       10.571549    3.034459    1.595277
     63          1           0       11.486385   -0.374548    2.689502
     64          1           0        9.953975   -0.110673    2.470505
     65          1           0       11.121617    1.145004    3.213240
     66          1           0      -10.166833    0.423398   -2.584530
     67          1           0      -11.706487    1.138376   -2.657671
     68          1           0      -11.824517   -0.217877   -3.473027
     69          1           0      -14.662072   -1.734379   -0.267861
     70          1           0        8.666076    0.526868    0.106341
     71          1           0       -8.646279    1.764466   -0.673791
     72          1           0       11.718095   -2.390818   -2.059133
     73          1           0       10.221682   -1.307800   -2.337169
     74          1           0       11.853381   -0.970103   -3.030600
     75          1           0       15.558652    0.998597    1.163337
     76          1           0        9.590971   -2.489651    0.016036
     77          1           0       -5.732676   -1.237159    0.770285
     78          1           0       -7.608248   -1.311348    1.196425
     79          1           0       -7.120115   -1.614453   -0.641025
     80          1           0       -6.490788    2.468117   -0.621053
     81          1           0        7.169082   -3.731962    1.476378
     82          1           0        6.216624   -3.848219   -0.240019
     83          1           0        8.019088   -4.147245   -0.110867
     84          1           0        6.694981   -0.179005   -0.532675
     85          1           0       -4.379050    0.389825    0.081227
     86          1           0        4.682917   -2.546222    0.137223
     87          1           0       -4.411631    3.366789   -0.591913
     88          1           0        4.155021    0.538241   -0.811880
     89          1           0       -1.305930    3.897951   -1.842249
     90          1           0       -1.435790    4.419237   -0.258513
     91          1           0       -2.831541    4.587591   -1.441826
     92          1           0       -2.276208    0.601713   -0.305958
     93          1           0        2.230526    1.209983   -0.846232
     94          1           0        2.633063   -2.749073    0.630270
     95          1           0        1.138239   -2.120291    0.412362
     96          1           0        2.358231   -2.866369   -0.991212
     97          1           0        0.063639    2.299189   -0.767833
     98          1           0       -0.124448   -0.775683   -0.199439
 ---------------------------------------------------------------------

 SCF Done:  E(RCAM-B3LYP) =  -1706.90886049     A.U. after   15 cycles

 Excitation energies and oscillator strengths:

 Excited State   1:      Singlet-A      2.1445 eV  578.15 nm  f=3.3252  <S**2>=0.000
     155 ->158         0.15291
     156 ->157         0.68975
 This state for optimization and/or second-order correction.
 Total Energy, E(TD-HF/TD-DFT) =  -1706.83005110
 Copying the excited state density for this state as the 1-particle RhoCI density.

 The electronic state is 1-A.
 Alpha  occ. eigenvalues --  -19.22491 -19.19939 -10.30974 -10.30405 -10.28519
 Alpha  occ. eigenvalues --  -10.27472 -10.27456 -10.27440 -10.27432 -10.27396
 Alpha  occ. eigenvalues --  -10.27394 -10.27078 -10.27000 -10.26911 -10.26803
 Alpha  occ. eigenvalues --  -10.26778 -10.26761 -10.26726 -10.26608 -10.26539
 Alpha  occ. eigenvalues --  -10.26426 -10.26424 -10.26284 -10.26253 -10.26237
 Alpha  occ. eigenvalues --  -10.26050 -10.26018 -10.26017 -10.25960 -10.25916
 Alpha  occ. eigenvalues --  -10.25677 -10.25657 -10.25534 -10.25485 -10.25484
 Alpha  occ. eigenvalues --  -10.25404 -10.25328 -10.25318 -10.24381 -10.24370
 Alpha  occ. eigenvalues --  -10.23732 -10.23092  -1.10422  -1.08410  -0.93664
 Alpha  occ. eigenvalues --   -0.92903  -0.92471  -0.91888  -0.90372  -0.89892
 Alpha  occ. eigenvalues --   -0.87437  -0.87194  -0.86131  -0.85631  -0.84271
 Alpha  occ. eigenvalues --   -0.82302  -0.81459  -0.79849  -0.79104  -0.78791
 Alpha  occ. eigenvalues --   -0.76863  -0.76733  -0.76004  -0.75478  -0.75078
 Alpha  occ. eigenvalues --   -0.74715  -0.74608  -0.73916  -0.73178  -0.70263
 Alpha  occ. eigenvalues --   -0.68764  -0.67328  -0.66503  -0.65022  -0.63350
 Alpha  occ. eigenvalues --   -0.63064  -0.62393  -0.62150  -0.60235  -0.59424
 Alpha  occ. eigenvalues --   -0.58794  -0.58494  -0.58032  -0.57446  -0.56951
 Alpha  occ. eigenvalues --   -0.55939  -0.55034  -0.54443  -0.53940  -0.53263
 Alpha  occ. eigenvalues --   -0.53028  -0.52729  -0.52566  -0.52149  -0.50840
 Alpha  occ. eigenvalues --   -0.50654  -0.50250  -0.49980  -0.49592  -0.49272
 Alpha  occ. eigenvalues --   -0.48793  -0.48477  -0.48008  -0.47834  -0.47373
 Alpha  occ. eigenvalues --   -0.47195  -0.46778  -0.46630  -0.46383  -0.46057
 Alpha  occ. eigenvalues --   -0.46013  -0.45549  -0.45371  -0.45111  -0.45065
 Alpha  occ. eigenvalues --   -0.44636  -0.44045  -0.43870  -0.42961  -0.42696
 Alpha  occ. eigenvalues --   -0.42512  -0.42205  -0.42018  -0.41803  -0.41607
 Alpha  occ. eigenvalues --   -0.41237  -0.41061  -0.40794  -0.40305  -0.40285
 Alpha  occ. eigenvalues --   -0.40055  -0.39958  -0.39540  -0.39176  -0.38885
 Alpha  occ. eigenvalues --   -0.38734  -0.38219  -0.38106  -0.37788  -0.37697
 Alpha  occ. eigenvalues --   -0.37506  -0.37399  -0.36350  -0.36101  -0.35352
 Alpha  occ. eigenvalues --   -0.35238  -0.34167  -0.33734  -0.32079  -0.31252
 Alpha  occ. eigenvalues --   -0.29497  -0.29463  -0.28804  -0.26396  -0.23090
 Alpha  occ. eigenvalues --   -0.19349
 Alpha virt. eigenvalues --   -0.05997  -0.01384   0.02604   0.05198   0.06857
 Alpha virt. eigenvalues --    0.08980   0.09411   0.10866   0.11643   0.12039
 Alpha virt. eigenvalues --    0.12240   0.12658   0.12971   0.13390   0.13561

 Mulliken charges:
               1
     1  O   -0.529397
     2  O   -0.600132
     3  C    0.013717
     4  C   -0.141436
     5  C   -0.188835
     6  C    0.179172
     7  C    0.182283
     8  C   -0.029372
     9  C   -0.269148
    10  C   -0.280453
    11  C   -0.190869
    12  C   -0.204871
    13  C    0.209558
    14  C    0.069091
    15  C   -0.099955
    16  C   -0.195158
    17  C    0.025888
    18  C   -0.306824
    19  C   -0.308346
    20  C   -0.382665
    21  C   -0.076724
    22  C   -0.111286
    23  C   -0.348484
    24  C    0.106104
    25  C   -0.107065
    26  C   -0.366374
    27  C    0.072542
    28  C   -0.131811
    29  C   -0.359618
    30  C   -0.081171
    31  C   -0.031362
    32  C   -0.113494
    33  C   -0.148336
    34  C    0.127622
    35  C   -0.113440
    36  C    0.151165
    37  C   -0.392911
    38  C   -0.093175
    39  C   -0.135595
    40  C   -0.368554
    41  C   -0.119469
    42  C   -0.071701
    43  H    0.094275
    44  H    0.109915
    45  H    0.067390
    46  H    0.073712
    47  H    0.111582
    48  H    0.081127
    49  H    0.096034
    50  H    0.090977
    51  H    0.098658
    52  H    0.062509
    53  H    0.084292
    54  H    0.064616
    55  H    0.080494
    56  H    0.079519
    57  H    0.082026
    58  H    0.093332
    59  H    0.141294
    60  H    0.095736
    61  H    0.097626
    62  H    0.094376
    63  H    0.102043
    64  H    0.113246
    65  H    0.108274
    66  H    0.128470
    67  H    0.122010
    68  H    0.109787
    69  H    0.305712
    70  H    0.098046
    71  H    0.072304
    72  H    0.103733
    73  H    0.131015
    74  H    0.067274
    75  H    0.314364
    76  H    0.092532
    77  H    0.101565
    78  H    0.097791
    79  H    0.117631
    80  H    0.072749
    81  H    0.098991
    82  H    0.116013
    83  H    0.115083
    84  H    0.088504
    85  H    0.072437
    86  H    0.098742
    87  H    0.054883
    88  H    0.059642
    89  H    0.125813
    90  H    0.110090
    91  H    0.128119
    92  H    0.062018
    93  H    0.082309
    94  H    0.134159
    95  H    0.067769
    96  H    0.118993
    97  H    0.082346
    98  H    0.086946
 Sum of Mulliken charges =  -0.00000

 Dipole moment (field-independent basis, Debye):
    X=              2.1614    Y=              0.2052    Z=             -0.2966  Tot=              2.1913
 Quadrupole moment (field-independent basis, Debye-Ang):
   XX=           -241.1023   YY=           -248.7662   ZZ=           -261.9706
   XY=            -12.2585   XZ=             48.2369   YZ=             -1.3669

 Normal termination of Gaussian 16 at Sat Jul 13 07:29:25 2019.
