 Gaussian 16, Revision A.03,
 Gaussian 16:  ES64L-G16RevA.03 25-Dec-2016

 -------------------------------------
 # td=(NStates=1) CAM-B3LYP/6-31G(d,p)
 -------------------------------------

 --
 TD
 --
 Symbolic Z-matrix:
 Charge =  0 Multiplicity = 1

                         Standard orientation:
 ---------------------------------------------------------------------
 Center     Atomic      Atomic             Coordinates (Angstroms)
 Number     Number       Type             X           Y           Z
 ---------------------------------------------------------------------
      1          8           0      -13.948926   -2.117818    0.424568
      2          8           0       14.787008    0.812663    0.090508
      3          6           0      -11.762519    0.115217    1.255046
      4          6           0      -10.959252    0.285511   -0.123322
      5          6           0      -11.906718   -1.428659    1.405132
      6          6           0      -12.579385   -2.127117    0.180837
      7          6           0      -11.453039   -0.424144   -1.276740
      8          6           0       11.041860    0.895873    1.097730
      9          6           0      -11.162799    0.509544    2.490601
     10          6           0      -13.153525    0.753988    1.163888
     11          6           0       12.492298    1.444318    0.928158
     12          6           0      -12.293206   -1.512332   -1.143289
     13          6           0       13.475083    0.416936    0.232306
     14          6           0       10.583758    0.047900   -0.132631
     15          6           0       -9.519535   -0.032461    0.057569
     16          6           0       12.905490   -0.034517   -1.119397
     17          6           0       11.479899   -0.338581   -1.035743
     18          6           0       10.125596    2.067595    1.195251
     19          6           0       10.965685    0.004505    2.402731
     20          6           0      -11.270017    0.218695   -2.630167
     21          6           0       -8.453304    0.805132   -0.091678
     22          6           0        9.173370   -0.478561   -0.043853
     23          6           0       11.030296   -1.200144   -2.223880
     24          6           0       -6.999666    0.435392   -0.079761
     25          6           0        8.764705   -1.689559   -0.245368
     26          6           0       -6.583657   -0.981592    0.192558
     27          6           0        7.389732   -2.132096   -0.043374
     28          6           0       -6.202703    1.589553   -0.379424
     29          6           0        7.100124   -3.604341    0.098213
     30          6           0        6.333647   -1.290703   -0.075376
     31          6           0       -4.824233    1.486236   -0.522283
     32          6           0        5.054497   -1.595343    0.014160
     33          6           0       -4.027397    2.579258   -0.640056
     34          6           0       -2.536429    2.642132   -0.627363
     35          6           0        3.997399   -0.626083   -0.041634
     36          6           0        2.639522   -0.661140   -0.070131
     37          6           0       -1.920879    3.987919   -0.842917
     38          6           0       -1.802574    1.529721   -0.418052
     39          6           0        1.838806    0.416667   -0.087888
     40          6           0        2.162504   -2.028669    0.189175
     41          6           0       -0.431545    1.512249   -0.425069
     42          6           0        0.415446    0.343816   -0.167929
     43          1           0      -11.098694    1.372789   -0.415172
     44          1           0      -12.614299   -1.730165    2.237510
     45          1           0      -11.005865   -1.751341    1.591818
     46          1           0      -12.120817   -3.200503    0.288430
     47          1           0      -10.212936   -0.033949    2.777814
     48          1           0      -10.642208    1.445468    2.733133
     49          1           0      -12.010494    0.533789    3.422251
     50          1           0      -13.587390    0.655305    0.004599
     51          1           0      -13.825197    0.442951    1.907975
     52          1           0      -12.776747    1.800540    1.342178
     53          1           0       12.755226    2.506954    0.247005
     54          1           0       12.823164    1.609371    2.016322
     55          1           0      -12.517384   -2.090255   -2.033322
     56          1           0       13.359623   -0.338214    0.627213
     57          1           0       -9.312473   -1.038910    0.259263
     58          1           0       13.512271   -0.837734   -1.449458
     59          1           0       13.300960    0.579457   -1.890651
     60          1           0        9.092654    2.072703    1.625904
     61          1           0       10.140052    2.557586    0.435779
     62          1           0       10.678720    2.703643    1.908808
     63          1           0       11.582559   -0.971619    2.190907
     64          1           0        9.785774   -0.383976    2.551922
     65          1           0       11.392229    0.564252    3.217119
     66          1           0      -10.132230    0.472539   -2.847445
     67          1           0      -11.874946    1.039113   -2.963678
     68          1           0      -11.490701   -0.883078   -3.288981
     69          1           0      -14.390384   -2.370386   -0.351642
     70          1           0        8.603330    0.244422    0.734455
     71          1           0       -8.715817    1.781874   -0.477051
     72          1           0       11.269762   -2.199409   -2.039670
     73          1           0        9.894864   -0.997139   -2.253756
     74          1           0       11.448323   -1.018843   -3.085707
     75          1           0       15.167653    0.995705    0.992800
     76          1           0        9.556938   -2.312408   -0.488443
     77          1           0       -5.513265   -1.109877    0.024155
     78          1           0       -6.857571   -1.203586    1.159732
     79          1           0       -7.168066   -1.652734   -0.424588
     80          1           0       -6.671829    2.440318   -0.633622
     81          1           0        6.718852   -4.003830    0.950341
     82          1           0        6.608887   -3.999037   -0.861797
     83          1           0        7.814289   -4.106242   -0.181308
     84          1           0        6.421711   -0.194694   -0.142938
     85          1           0       -4.440434    0.478354   -0.470119
     86          1           0        4.835684   -2.548148    0.166663
     87          1           0       -4.420764    3.635260   -0.513576
     88          1           0        4.265847    0.432203   -0.036595
     89          1           0       -1.161544    4.021123   -1.875627
     90          1           0       -1.172330    4.165811   -0.054245
     91          1           0       -2.710278    4.660821   -0.970821
     92          1           0       -2.295931    0.557870   -0.280779
     93          1           0        2.229958    1.328516   -0.078018
     94          1           0        2.505387   -2.537229    1.026312
     95          1           0        1.072943   -1.854435    0.358415
     96          1           0        2.210909   -2.630585   -0.807230
     97          1           0        0.209694    2.447596   -0.493535
     98          1           0        0.013673   -0.519455   -0.005847
 ---------------------------------------------------------------------

 SCF Done:  E(RCAM-B3LYP) =  -1706.81385249     A.U. after   15 cycles

 Excitation energies and oscillator strengths:

 Excited State   1:      Singlet-A      2.0778 eV  596.71 nm  f=3.1083  <S**2>=0.000
     155 ->158         0.14045
     156 ->157         0.69486
 This state for optimization and/or second-order correction.
 Total Energy, E(TD-HF/TD-DFT) =  -1706.73749475
 Copying the excited state density for this state as the 1-particle RhoCI density.

 The electronic state is 1-A.
 Alpha  occ. eigenvalues --  -19.21848 -19.20799 -10.30699 -10.28633 -10.27980
 Alpha  occ. eigenvalues --  -10.27692 -10.27539 -10.27428 -10.27353 -10.27095
 Alpha  occ. eigenvalues --  -10.27093 -10.26929 -10.26897 -10.26772 -10.26726
 Alpha  occ. eigenvalues --  -10.26697 -10.26299 -10.26292 -10.26116 -10.25942
 Alpha  occ. eigenvalues --  -10.25927 -10.25746 -10.25722 -10.25722 -10.25624
 Alpha  occ. eigenvalues --  -10.25472 -10.25455 -10.25318 -10.25271 -10.25270
 Alpha  occ. eigenvalues --  -10.25206 -10.24976 -10.24861 -10.24574 -10.24453
 Alpha  occ. eigenvalues --  -10.24361 -10.23927 -10.23761 -10.23106 -10.23058
 Alpha  occ. eigenvalues --  -10.22764 -10.22281  -1.11120  -1.10331  -0.94202
 Alpha  occ. eigenvalues --   -0.93565  -0.92968  -0.91968  -0.91263  -0.90234
 Alpha  occ. eigenvalues --   -0.87850  -0.87597  -0.87037  -0.86210  -0.84684
 Alpha  occ. eigenvalues --   -0.83444  -0.82651  -0.81308  -0.80807  -0.79185
 Alpha  occ. eigenvalues --   -0.77693  -0.77406  -0.76651  -0.76081  -0.75725
 Alpha  occ. eigenvalues --   -0.75339  -0.74599  -0.74357  -0.73490  -0.70761
 Alpha  occ. eigenvalues --   -0.69153  -0.67974  -0.67280  -0.65578  -0.64467
 Alpha  occ. eigenvalues --   -0.63383  -0.63085  -0.63013  -0.61479  -0.61215
 Alpha  occ. eigenvalues --   -0.60518  -0.60263  -0.59128  -0.58141  -0.57160
 Alpha  occ. eigenvalues --   -0.56224  -0.55735  -0.55226  -0.54507  -0.54099
 Alpha  occ. eigenvalues --   -0.53954  -0.53390  -0.52910  -0.52398  -0.51363
 Alpha  occ. eigenvalues --   -0.51210  -0.50298  -0.50187  -0.49915  -0.49706
 Alpha  occ. eigenvalues --   -0.49214  -0.49046  -0.48870  -0.48820  -0.48525
 Alpha  occ. eigenvalues --   -0.48283  -0.47946  -0.47503  -0.47229  -0.46996
 Alpha  occ. eigenvalues --   -0.46255  -0.45924  -0.45750  -0.45563  -0.45037
 Alpha  occ. eigenvalues --   -0.44647  -0.44495  -0.44355  -0.43729  -0.43663
 Alpha  occ. eigenvalues --   -0.43105  -0.42828  -0.42501  -0.42394  -0.41980
 Alpha  occ. eigenvalues --   -0.41384  -0.41308  -0.41172  -0.40889  -0.40682
 Alpha  occ. eigenvalues --   -0.40190  -0.39901  -0.39771  -0.39353  -0.39078
 Alpha  occ. eigenvalues --   -0.38920  -0.38646  -0.38337  -0.38225  -0.37902
 Alpha  occ. eigenvalues --   -0.37375  -0.36935  -0.36530  -0.36395  -0.35515
 Alpha  occ. eigenvalues --   -0.34843  -0.34214  -0.32973  -0.32290  -0.32164
 Alpha  occ. eigenvalues --   -0.31187  -0.29171  -0.28848  -0.26813  -0.23594
 Alpha  occ. eigenvalues --   -0.18966
 Alpha virt. eigenvalues --   -0.06094  -0.01003   0.02791   0.04893   0.06749
 Alpha virt. eigenvalues --    0.10172   0.11193   0.11429   0.12046   0.12487
 Alpha virt. eigenvalues --    0.12848   0.13426   0.13813   0.14166   0.14526

 Mulliken charges:
               1
     1  O   -0.525324
     2  O   -0.565510
     3  C    0.047535
     4  C   -0.161663
     5  C   -0.170548
     6  C    0.140994
     7  C    0.119847
     8  C   -0.032885
     9  C   -0.305856
    10  C   -0.275667
    11  C   -0.206966
    12  C   -0.136216
    13  C    0.233359
    14  C    0.066547
    15  C   -0.085941
    16  C   -0.254639
    17  C    0.033013
    18  C   -0.276022
    19  C   -0.287404
    20  C   -0.335890
    21  C   -0.097585
    22  C   -0.110614
    23  C   -0.369299
    24  C    0.072997
    25  C   -0.088824
    26  C   -0.370695
    27  C    0.038915
    28  C   -0.095451
    29  C   -0.356115
    30  C   -0.070010
    31  C   -0.055724
    32  C   -0.050447
    33  C   -0.140816
    34  C    0.095430
    35  C   -0.147270
    36  C    0.135451
    37  C   -0.356190
    38  C   -0.092988
    39  C   -0.105039
    40  C   -0.369197
    41  C   -0.103921
    42  C   -0.079265
    43  H    0.084968
    44  H    0.105686
    45  H    0.090845
    46  H    0.057265
    47  H    0.090057
    48  H    0.098403
    49  H    0.077446
    50  H    0.078026
    51  H    0.117778
    52  H    0.084735
    53  H    0.072644
    54  H    0.068252
    55  H    0.079642
    56  H    0.070783
    57  H    0.080473
    58  H    0.107719
    59  H    0.119954
    60  H    0.098286
    61  H    0.115966
    62  H    0.083606
    63  H    0.093852
    64  H    0.091500
    65  H    0.107333
    66  H    0.105600
    67  H    0.137536
    68  H    0.067331
    69  H    0.298956
    70  H    0.074022
    71  H    0.078286
    72  H    0.113602
    73  H    0.114713
    74  H    0.107604
    75  H    0.308789
    76  H    0.096883
    77  H    0.113418
    78  H    0.142578
    79  H    0.131093
    80  H    0.082733
    81  H    0.130998
    82  H    0.099042
    83  H    0.107962
    84  H    0.075315
    85  H    0.082270
    86  H    0.068983
    87  H    0.076265
    88  H    0.054418
    89  H    0.088624
    90  H    0.131393
    91  H    0.112477
    92  H    0.079480
    93  H    0.068930
    94  H    0.132094
    95  H    0.086776
    96  H    0.109739
    97  H    0.076816
    98  H    0.065951
 Sum of Mulliken charges =  -0.00000

 Dipole moment (field-independent basis, Debye):
    X=              0.4461    Y=             -1.1536    Z=              0.4183  Tot=              1.3057
 Quadrupole moment (field-independent basis, Debye-Ang):
   XX=           -268.0006   YY=           -244.7488   ZZ=           -260.9864
   XY=             -5.9737   XZ=             38.2460   YZ=              3.4724

 Normal termination of Gaussian 16 at Sun Jul 14 09:51:53 2019.
