 Gaussian 16, Revision A.03,
 Gaussian 16:  ES64L-G16RevA.03 25-Dec-2016

 -------------------------------------
 # td=(NStates=1) CAM-B3LYP/6-31G(d,p)
 -------------------------------------

 --
 TD
 --
 Symbolic Z-matrix:
 Charge =  0 Multiplicity = 1

                         Standard orientation:
 ---------------------------------------------------------------------
 Center     Atomic      Atomic             Coordinates (Angstroms)
 Number     Number       Type             X           Y           Z
 ---------------------------------------------------------------------
      1          8           0       14.120909   -2.064172   -0.655335
      2          8           0      -14.874900    0.827987    0.280925
      3          6           0       11.778389    0.220201   -1.049087
      4          6           0       10.962437    0.201336    0.329879
      5          6           0       11.975957   -1.211510   -1.490891
      6          6           0       12.708136   -2.128453   -0.430321
      7          6           0       11.669681   -0.701515    1.405551
      8          6           0      -11.184877    1.010056   -0.897943
      9          6           0       11.055408    0.979430   -2.223050
     10          6           0       13.065288    0.963998   -0.844406
     11          6           0      -12.654395    1.530072   -0.512724
     12          6           0       12.303294   -1.793608    0.939890
     13          6           0      -13.527956    0.348509   -0.152233
     14          6           0      -10.662097   -0.022499    0.133984
     15          6           0        9.582910   -0.077884    0.072966
     16          6           0      -13.000215   -0.402014    1.045654
     17          6           0      -11.516406   -0.683737    0.981436
     18          6           0      -10.420818    2.291030   -0.808928
     19          6           0      -11.173715    0.515785   -2.385105
     20          6           0       11.325579   -0.300109    2.717427
     21          6           0        8.475808    0.782553    0.296067
     22          6           0       -9.270719   -0.361016   -0.044391
     23          6           0      -11.124771   -1.643286    2.068524
     24          6           0        7.128357    0.579905    0.037613
     25          6           0       -8.757631   -1.597006    0.030397
     26          6           0        6.725959   -0.815243   -0.231116
     27          6           0       -7.397494   -2.005704   -0.216823
     28          6           0        6.188593    1.613867    0.303551
     29          6           0       -7.126476   -3.440094   -0.506638
     30          6           0       -6.299349   -1.098684   -0.098534
     31          6           0        4.795342    1.587287    0.180249
     32          6           0       -4.989639   -1.448854   -0.217536
     33          6           0        3.974515    2.707926    0.468339
     34          6           0        2.599718    2.622498    0.507402
     35          6           0       -3.934955   -0.554851    0.034605
     36          6           0       -2.598041   -0.849303   -0.034288
     37          6           0        1.937282    3.903995    0.857012
     38          6           0        1.825629    1.479443    0.265714
     39          6           0       -1.755057    0.106225    0.304731
     40          6           0       -2.046853   -2.274766   -0.337296
     41          6           0        0.433871    1.339482    0.437638
     42          6           0       -0.268835    0.166061    0.310083
     43          1           0       10.870642    1.183451    0.727797
     44          1           0       12.655545   -1.213970   -2.400664
     45          1           0       11.021930   -1.737297   -1.882729
     46          1           0       12.586591   -3.164746   -0.637991
     47          1           0       10.094804    0.562280   -2.503239
     48          1           0       10.826769    2.044128   -1.923561
     49          1           0       11.638647    0.944982   -3.095148
     50          1           0       13.649596    0.498904   -0.071765
     51          1           0       13.698888    0.881669   -1.608754
     52          1           0       12.665055    2.051512   -0.483235
     53          1           0      -12.475144    2.198355    0.346910
     54          1           0      -13.098604    2.113298   -1.295422
     55          1           0       13.032646   -2.361394    1.758673
     56          1           0      -13.608891   -0.217683   -0.939093
     57          1           0        9.293763   -1.126948   -0.180366
     58          1           0      -13.401441   -1.424784    1.240359
     59          1           0      -13.395817    0.191001    1.803645
     60          1           0       -9.374532    2.231916   -1.110826
     61          1           0      -10.345707    2.740700    0.156558
     62          1           0      -10.744038    3.240778   -1.451214
     63          1           0      -11.860735   -0.369420   -2.527944
     64          1           0      -10.065478    0.083311   -2.656248
     65          1           0      -11.513397    1.342173   -3.104546
     66          1           0       10.226384   -0.395283    2.734284
     67          1           0       11.447900    0.955098    2.908087
     68          1           0       11.793292   -0.713861    3.606408
     69          1           0       14.487580   -2.329192    0.279776
     70          1           0       -8.668017    0.383645   -0.106225
     71          1           0        8.782732    1.679417    0.793439
     72          1           0      -11.266588   -2.563341    1.596275
     73          1           0      -10.078991   -1.687552    2.409474
     74          1           0      -11.602732   -1.656481    2.968042
     75          1           0      -15.115179    1.248556   -0.668735
     76          1           0       -9.255296   -2.535055   -0.065326
     77          1           0        5.668837   -1.140232   -0.032432
     78          1           0        7.113533   -0.949213   -1.256657
     79          1           0        7.306670   -1.686506    0.423653
     80          1           0        6.523102    2.610468    0.705485
     81          1           0       -6.916059   -3.608915   -1.614107
     82          1           0       -6.088074   -3.849421    0.059137
     83          1           0       -8.084600   -4.108036   -0.485422
     84          1           0       -6.486258    0.027373    0.123059
     85          1           0        4.216040    0.680490    0.047840
     86          1           0       -4.810971   -2.482040   -0.207749
     87          1           0        4.621358    3.731596    0.751985
     88          1           0       -4.197064    0.558915    0.274698
     89          1           0        1.198687    3.924907    1.762659
     90          1           0        1.094144    4.180262    0.079171
     91          1           0        2.657160    4.585352    0.814199
     92          1           0        2.235603    0.580037   -0.336105
     93          1           0       -2.241587    1.135165    0.496719
     94          1           0       -2.427029   -2.445720   -1.477361
     95          1           0       -0.926728   -2.497938   -0.444535
     96          1           0       -2.325191   -3.100774    0.369765
     97          1           0       -0.220134    2.184312    0.884629
     98          1           0        0.407200   -0.755913   -0.044465
 ---------------------------------------------------------------------

 SCF Done:  E(RCAM-B3LYP) =  -1706.97247401     A.U. after   15 cycles

 Excitation energies and oscillator strengths:

 Excited State   1:      Singlet-A      1.9261 eV  643.71 nm  f=3.0796  <S**2>=0.000
     155 ->158        -0.15478
     156 ->157         0.68896
 This state for optimization and/or second-order correction.
 Total Energy, E(TD-HF/TD-DFT) =  -1706.90169109
 Copying the excited state density for this state as the 1-particle RhoCI density.

 The electronic state is 1-A.
 Alpha  occ. eigenvalues --  -19.21435 -19.21419 -10.30372 -10.28681 -10.28277
 Alpha  occ. eigenvalues --  -10.28097 -10.28008 -10.27975 -10.27937 -10.27814
 Alpha  occ. eigenvalues --  -10.27755 -10.27578 -10.27452 -10.27247 -10.27219
 Alpha  occ. eigenvalues --  -10.27157 -10.27107 -10.27103 -10.27025 -10.27025
 Alpha  occ. eigenvalues --  -10.26871 -10.26863 -10.26855 -10.26818 -10.26805
 Alpha  occ. eigenvalues --  -10.26743 -10.26717 -10.26349 -10.26079 -10.26008
 Alpha  occ. eigenvalues --  -10.25955 -10.25952 -10.25634 -10.25322 -10.25160
 Alpha  occ. eigenvalues --  -10.24923 -10.24739 -10.24511 -10.24464 -10.23856
 Alpha  occ. eigenvalues --  -10.23548 -10.23251  -1.08427  -1.06170  -0.94140
 Alpha  occ. eigenvalues --   -0.93358  -0.92501  -0.92092  -0.90867  -0.90247
 Alpha  occ. eigenvalues --   -0.87931  -0.87250  -0.87046  -0.85868  -0.84890
 Alpha  occ. eigenvalues --   -0.83206  -0.82647  -0.81007  -0.80535  -0.77504
 Alpha  occ. eigenvalues --   -0.76571  -0.76345  -0.76208  -0.75740  -0.75607
 Alpha  occ. eigenvalues --   -0.75511  -0.75251  -0.75109  -0.72604  -0.70264
 Alpha  occ. eigenvalues --   -0.69751  -0.68090  -0.66453  -0.65861  -0.64140
 Alpha  occ. eigenvalues --   -0.63368  -0.62930  -0.61513  -0.60263  -0.59879
 Alpha  occ. eigenvalues --   -0.59523  -0.59211  -0.58166  -0.57104  -0.56135
 Alpha  occ. eigenvalues --   -0.55501  -0.55286  -0.55015  -0.54597  -0.53771
 Alpha  occ. eigenvalues --   -0.53306  -0.53059  -0.51968  -0.51652  -0.50825
 Alpha  occ. eigenvalues --   -0.50504  -0.50407  -0.50062  -0.49720  -0.49376
 Alpha  occ. eigenvalues --   -0.48890  -0.48711  -0.48669  -0.48014  -0.47671
 Alpha  occ. eigenvalues --   -0.47235  -0.47082  -0.46724  -0.46549  -0.46313
 Alpha  occ. eigenvalues --   -0.45686  -0.45540  -0.45429  -0.45019  -0.44769
 Alpha  occ. eigenvalues --   -0.44165  -0.44098  -0.43745  -0.43708  -0.43402
 Alpha  occ. eigenvalues --   -0.43025  -0.42837  -0.42468  -0.42203  -0.42178
 Alpha  occ. eigenvalues --   -0.41791  -0.41532  -0.41155  -0.40850  -0.40774
 Alpha  occ. eigenvalues --   -0.40338  -0.40330  -0.39860  -0.39671  -0.39618
 Alpha  occ. eigenvalues --   -0.39288  -0.39235  -0.39018  -0.38488  -0.38033
 Alpha  occ. eigenvalues --   -0.37809  -0.37519  -0.37316  -0.36820  -0.36186
 Alpha  occ. eigenvalues --   -0.35907  -0.35140  -0.33661  -0.32092  -0.31955
 Alpha  occ. eigenvalues --   -0.31664  -0.29940  -0.28830  -0.27177  -0.22620
 Alpha  occ. eigenvalues --   -0.18955
 Alpha virt. eigenvalues --   -0.06644  -0.02364   0.02749   0.04609   0.05903
 Alpha virt. eigenvalues --    0.08714   0.10557   0.11010   0.11393   0.11531
 Alpha virt. eigenvalues --    0.12282   0.12603   0.12821   0.13058   0.13504

 Mulliken charges:
               1
     1  O   -0.559382
     2  O   -0.567469
     3  C    0.016520
     4  C   -0.148977
     5  C   -0.193937
     6  C    0.168698
     7  C    0.167727
     8  C   -0.017840
     9  C   -0.301017
    10  C   -0.263877
    11  C   -0.182004
    12  C   -0.158565
    13  C    0.142153
    14  C    0.053143
    15  C   -0.065873
    16  C   -0.216951
    17  C    0.029320
    18  C   -0.316883
    19  C   -0.292412
    20  C   -0.368488
    21  C   -0.115046
    22  C   -0.077029
    23  C   -0.369916
    24  C    0.124471
    25  C   -0.075436
    26  C   -0.370982
    27  C    0.064624
    28  C   -0.140702
    29  C   -0.383256
    30  C   -0.100468
    31  C   -0.049949
    32  C   -0.077898
    33  C   -0.145068
    34  C    0.124635
    35  C   -0.140375
    36  C    0.175763
    37  C   -0.364458
    38  C   -0.140611
    39  C   -0.157520
    40  C   -0.366798
    41  C   -0.062526
    42  C   -0.098720
    43  H    0.081436
    44  H    0.106236
    45  H    0.089642
    46  H    0.092969
    47  H    0.099938
    48  H    0.089558
    49  H    0.108086
    50  H    0.103751
    51  H    0.111699
    52  H    0.070148
    53  H    0.105848
    54  H    0.082094
    55  H    0.034158
    56  H    0.093485
    57  H    0.077301
    58  H    0.099368
    59  H    0.139021
    60  H    0.096018
    61  H    0.113309
    62  H    0.081893
    63  H    0.096840
    64  H    0.091873
    65  H    0.099045
    66  H    0.140923
    67  H    0.084665
    68  H    0.121469
    69  H    0.299075
    70  H    0.078940
    71  H    0.075599
    72  H    0.127183
    73  H    0.117602
    74  H    0.119446
    75  H    0.296139
    76  H    0.066772
    77  H    0.114962
    78  H    0.130566
    79  H    0.097962
    80  H    0.080758
    81  H    0.126238
    82  H    0.104758
    83  H    0.102000
    84  H    0.073347
    85  H    0.087934
    86  H    0.075211
    87  H    0.081476
    88  H    0.081904
    89  H    0.116253
    90  H    0.106122
    91  H    0.114424
    92  H    0.083801
    93  H    0.072323
    94  H    0.100579
    95  H    0.110732
    96  H    0.121363
    97  H    0.077467
    98  H    0.071671
 Sum of Mulliken charges =  -0.00000

 Dipole moment (field-independent basis, Debye):
    X=              0.7231    Y=             -0.6634    Z=              0.2753  Tot=              1.0192
 Quadrupole moment (field-independent basis, Debye-Ang):
   XX=           -297.5460   YY=           -245.3137   ZZ=           -261.2045
   XY=              0.5778   XZ=             42.9530   YZ=             -0.7594

 Normal termination of Gaussian 16 at Mon Jul 15 00:02:25 2019.
