 Gaussian 16, Revision A.03,
 Gaussian 16:  ES64L-G16RevA.03 25-Dec-2016

 -------------------------------------
 # td=(NStates=1) CAM-B3LYP/6-31G(d,p)
 -------------------------------------

 --
 TD
 --
 Symbolic Z-matrix:
 Charge =  0 Multiplicity = 1

                         Standard orientation:
 ---------------------------------------------------------------------
 Center     Atomic      Atomic             Coordinates (Angstroms)
 Number     Number       Type             X           Y           Z
 ---------------------------------------------------------------------
      1          8           0      -14.109034   -2.044195    0.344576
      2          8           0       14.749600    0.693792    0.257706
      3          6           0      -11.806216   -0.008028    1.287754
      4          6           0      -10.993980    0.389778   -0.023488
      5          6           0      -12.026387   -1.536518    1.314758
      6          6           0      -12.701518   -2.133920    0.135851
      7          6           0      -11.534576   -0.379769   -1.179948
      8          6           0       11.137275    1.048277    1.037337
      9          6           0      -10.915141    0.469417    2.504502
     10          6           0      -13.106761    0.764791    1.366724
     11          6           0       12.664932    1.472798    0.733653
     12          6           0      -12.207104   -1.457127   -1.122908
     13          6           0       13.497873    0.249958    0.394581
     14          6           0       10.801076    0.066252   -0.063934
     15          6           0       -9.568478   -0.058041    0.046807
     16          6           0       13.031010   -0.360159   -0.935902
     17          6           0       11.505666   -0.586393   -0.927505
     18          6           0       10.191453    2.397849    0.658996
     19          6           0       10.978727    0.639510    2.470351
     20          6           0      -11.218486    0.320486   -2.425382
     21          6           0       -8.476051    0.764884   -0.122916
     22          6           0        9.281643   -0.327488   -0.049943
     23          6           0       11.189109   -1.543482   -2.124534
     24          6           0       -7.064298    0.602145   -0.171108
     25          6           0        8.782599   -1.659085   -0.024314
     26          6           0       -6.646048   -0.889757    0.122519
     27          6           0        7.449969   -2.066080    0.074790
     28          6           0       -6.164557    1.534295   -0.448808
     29          6           0        7.189333   -3.468353    0.348450
     30          6           0        6.377543   -1.192248   -0.223504
     31          6           0       -4.747504    1.440821   -0.316227
     32          6           0        4.971549   -1.487565   -0.064468
     33          6           0       -4.025826    2.517078   -0.654017
     34          6           0       -2.599308    2.573841   -0.632332
     35          6           0        3.986970   -0.599363   -0.203561
     36          6           0        2.595372   -0.893594   -0.158709
     37          6           0       -1.963888    3.958983   -0.828187
     38          6           0       -1.835850    1.436897   -0.472358
     39          6           0        1.698725    0.232993   -0.298286
     40          6           0        2.050723   -2.256979    0.096350
     41          6           0       -0.402495    1.413576   -0.489521
     42          6           0        0.264192    0.293411   -0.212803
     43          1           0      -11.189844    1.456447   -0.164856
     44          1           0      -12.689341   -1.862715    2.107574
     45          1           0      -10.944778   -2.062394    1.384461
     46          1           0      -12.474012   -3.325699    0.050287
     47          1           0       -9.951572   -0.246197    2.507881
     48          1           0      -10.347575    1.396975    2.371314
     49          1           0      -11.450020    0.185988    3.264111
     50          1           0      -13.823914    0.488641    0.501301
     51          1           0      -13.669931    0.837628    2.435718
     52          1           0      -12.921025    1.763340    1.264515
     53          1           0       12.674340    2.249565   -0.043582
     54          1           0       12.732415    1.945539    1.571763
     55          1           0      -12.755690   -1.717642   -1.958592
     56          1           0       13.253436   -0.566572    1.110531
     57          1           0       -9.557178   -1.123938    0.069508
     58          1           0       13.677304   -1.186746   -1.130246
     59          1           0       13.123980    0.373746   -1.772806
     60          1           0        9.238462    2.150317    0.905687
     61          1           0       10.399867    2.851548   -0.432584
     62          1           0       10.491444    3.075672    1.528461
     63          1           0       11.656665   -0.177446    2.654252
     64          1           0        9.925618    0.041902    2.487201
     65          1           0       11.041143    1.580248    3.277953
     66          1           0      -10.117187    0.174350   -2.672862
     67          1           0      -11.561409    1.345849   -2.492959
     68          1           0      -11.723718    0.131363   -3.451375
     69          1           0      -14.621166   -2.379458   -0.496342
     70          1           0        8.591559    0.410069    0.223579
     71          1           0       -8.837257    1.835506   -0.352776
     72          1           0       11.226066   -2.544673   -1.872565
     73          1           0       10.072763   -1.352126   -2.070834
     74          1           0       11.594005   -1.251610   -3.041929
     75          1           0       14.993054    1.127201    1.099638
     76          1           0        9.454824   -2.469633   -0.220580
     77          1           0       -5.691040   -0.883868    0.029000
     78          1           0       -7.037673   -1.087583    1.206705
     79          1           0       -7.206997   -1.528630   -0.546755
     80          1           0       -6.712353    2.348155   -0.654884
     81          1           0        6.911882   -3.810918    1.251161
     82          1           0        6.435067   -4.026449   -0.289506
     83          1           0        8.105115   -4.070408   -0.067851
     84          1           0        6.582162   -0.135366   -0.638391
     85          1           0       -4.429038    0.538458   -0.013685
     86          1           0        4.886557   -2.651377    0.058253
     87          1           0       -4.534573    3.494608   -0.819967
     88          1           0        4.228032    0.504682   -0.268139
     89          1           0       -1.437603    4.094674   -1.935445
     90          1           0       -1.391852    4.295453   -0.007521
     91          1           0       -2.752583    4.562603   -0.817416
     92          1           0       -2.185672    0.528015   -0.338994
     93          1           0        2.076597    1.194218   -0.601017
     94          1           0        2.317420   -2.545669    1.237888
     95          1           0        0.902327   -2.158575    0.184412
     96          1           0        2.439099   -2.881551   -0.519132
     97          1           0        0.243712    2.392590   -0.625629
     98          1           0       -0.232042   -0.629423    0.205244
 ---------------------------------------------------------------------

 SCF Done:  E(RCAM-B3LYP) =  -1706.92045423     A.U. after   14 cycles

 Excitation energies and oscillator strengths:

 Excited State   1:      Singlet-A      2.3638 eV  524.51 nm  f=3.1008  <S**2>=0.000
     155 ->158         0.17150
     156 ->157         0.68359
 This state for optimization and/or second-order correction.
 Total Energy, E(TD-HF/TD-DFT) =  -1706.83358511
 Copying the excited state density for this state as the 1-particle RhoCI density.

 The electronic state is 1-A.
 Alpha  occ. eigenvalues --  -19.21906 -19.21199 -10.31218 -10.29623 -10.27990
 Alpha  occ. eigenvalues --  -10.27608 -10.27292 -10.27059 -10.26910 -10.26813
 Alpha  occ. eigenvalues --  -10.26705 -10.26517 -10.26497 -10.26415 -10.26408
 Alpha  occ. eigenvalues --  -10.26332 -10.26299 -10.26246 -10.26200 -10.26180
 Alpha  occ. eigenvalues --  -10.26100 -10.26043 -10.25958 -10.25903 -10.25816
 Alpha  occ. eigenvalues --  -10.25796 -10.25684 -10.25659 -10.25633 -10.25472
 Alpha  occ. eigenvalues --  -10.25378 -10.25329 -10.25279 -10.24902 -10.24343
 Alpha  occ. eigenvalues --  -10.24319 -10.24196 -10.24126 -10.23909 -10.23599
 Alpha  occ. eigenvalues --  -10.23403 -10.22773  -1.12242  -1.08358  -0.94446
 Alpha  occ. eigenvalues --   -0.92854  -0.92595  -0.91538  -0.90760  -0.89842
 Alpha  occ. eigenvalues --   -0.87603  -0.87232  -0.86347  -0.85385  -0.83912
 Alpha  occ. eigenvalues --   -0.83094  -0.82378  -0.80567  -0.79328  -0.78835
 Alpha  occ. eigenvalues --   -0.77172  -0.76789  -0.76149  -0.75998  -0.75715
 Alpha  occ. eigenvalues --   -0.75519  -0.75299  -0.75166  -0.73009  -0.70491
 Alpha  occ. eigenvalues --   -0.69270  -0.67296  -0.66408  -0.65542  -0.64540
 Alpha  occ. eigenvalues --   -0.63928  -0.62949  -0.61944  -0.61452  -0.59467
 Alpha  occ. eigenvalues --   -0.59400  -0.58884  -0.58242  -0.57658  -0.57089
 Alpha  occ. eigenvalues --   -0.55872  -0.55277  -0.54940  -0.54480  -0.54286
 Alpha  occ. eigenvalues --   -0.53667  -0.52701  -0.52301  -0.52113  -0.51375
 Alpha  occ. eigenvalues --   -0.50706  -0.50268  -0.50031  -0.49713  -0.49605
 Alpha  occ. eigenvalues --   -0.49314  -0.49012  -0.48582  -0.48524  -0.48072
 Alpha  occ. eigenvalues --   -0.48027  -0.47298  -0.47201  -0.47147  -0.46549
 Alpha  occ. eigenvalues --   -0.46330  -0.46157  -0.45934  -0.45818  -0.44837
 Alpha  occ. eigenvalues --   -0.44690  -0.44410  -0.43918  -0.43614  -0.43482
 Alpha  occ. eigenvalues --   -0.42855  -0.42670  -0.42658  -0.42236  -0.41961
 Alpha  occ. eigenvalues --   -0.41563  -0.41523  -0.40987  -0.40940  -0.40659
 Alpha  occ. eigenvalues --   -0.40625  -0.40384  -0.39917  -0.39426  -0.38925
 Alpha  occ. eigenvalues --   -0.38646  -0.38534  -0.38168  -0.38143  -0.37896
 Alpha  occ. eigenvalues --   -0.37721  -0.36775  -0.36276  -0.35601  -0.35228
 Alpha  occ. eigenvalues --   -0.34783  -0.33498  -0.32567  -0.32057  -0.30958
 Alpha  occ. eigenvalues --   -0.30651  -0.30480  -0.29392  -0.26894  -0.23635
 Alpha  occ. eigenvalues --   -0.19870
 Alpha virt. eigenvalues --   -0.05033  -0.01049   0.02858   0.06123   0.07759
 Alpha virt. eigenvalues --    0.09555   0.11028   0.11454   0.12049   0.12668
 Alpha virt. eigenvalues --    0.12980   0.13258   0.13818   0.13962   0.14467

 Mulliken charges:
               1
     1  O   -0.553129
     2  O   -0.534960
     3  C    0.024885
     4  C   -0.144703
     5  C   -0.184700
     6  C    0.158974
     7  C    0.136439
     8  C   -0.048120
     9  C   -0.288428
    10  C   -0.295835
    11  C   -0.186587
    12  C   -0.130679
    13  C    0.180056
    14  C    0.108213
    15  C   -0.075024
    16  C   -0.218211
    17  C    0.004095
    18  C   -0.308942
    19  C   -0.300155
    20  C   -0.365848
    21  C   -0.109807
    22  C   -0.149649
    23  C   -0.356690
    24  C    0.071843
    25  C   -0.105355
    26  C   -0.340731
    27  C    0.112783
    28  C   -0.090297
    29  C   -0.397396
    30  C   -0.123322
    31  C   -0.045751
    32  C   -0.086945
    33  C   -0.118046
    34  C    0.062354
    35  C   -0.103142
    36  C    0.092597
    37  C   -0.356576
    38  C   -0.089149
    39  C   -0.140833
    40  C   -0.342283
    41  C   -0.087906
    42  C   -0.075241
    43  H    0.094532
    44  H    0.114866
    45  H    0.078390
    46  H    0.052494
    47  H    0.071768
    48  H    0.112568
    49  H    0.106664
    50  H    0.108352
    51  H    0.079726
    52  H    0.102649
    53  H    0.097371
    54  H    0.080143
    55  H    0.063121
    56  H    0.064102
    57  H    0.093007
    58  H    0.105964
    59  H    0.105680
    60  H    0.120184
    61  H    0.105682
    62  H    0.083314
    63  H    0.118719
    64  H    0.097910
    65  H    0.092160
    66  H    0.124682
    67  H    0.113847
    68  H    0.087603
    69  H    0.308117
    70  H    0.077004
    71  H    0.058974
    72  H    0.127628
    73  H    0.112835
    74  H    0.120907
    75  H    0.305171
    76  H    0.077485
    77  H    0.098427
    78  H    0.105104
    79  H    0.121197
    80  H    0.058152
    81  H    0.141412
    82  H    0.111891
    83  H    0.093803
    84  H    0.078780
    85  H    0.090440
    86  H    0.075762
    87  H    0.087696
    88  H    0.088259
    89  H    0.102026
    90  H    0.129486
    91  H    0.113674
    92  H    0.067210
    93  H    0.073307
    94  H    0.100076
    95  H    0.100345
    96  H    0.133479
    97  H    0.086710
    98  H    0.081347
 Sum of Mulliken charges =  -0.00000

 Dipole moment (field-independent basis, Debye):
    X=             -0.3999    Y=              0.1148    Z=             -0.0400  Tot=              0.4180
 Quadrupole moment (field-independent basis, Debye-Ang):
   XX=           -271.7348   YY=           -242.1019   ZZ=           -260.9934
   XY=              0.6843   XZ=             39.8903   YZ=              2.4632

 Normal termination of Gaussian 16 at Sat Jul 13 21:15:04 2019.
