 Gaussian 16, Revision A.03,
 Gaussian 16:  ES64L-G16RevA.03 25-Dec-2016

 -------------------------------------
 # td=(NStates=1) CAM-B3LYP/6-31G(d,p)
 -------------------------------------

 --
 TD
 --
 Symbolic Z-matrix:
 Charge =  0 Multiplicity = 1

                         Standard orientation:
 ---------------------------------------------------------------------
 Center     Atomic      Atomic             Coordinates (Angstroms)
 Number     Number       Type             X           Y           Z
 ---------------------------------------------------------------------
      1          8           0      -14.107753   -1.969550    0.737466
      2          8           0       14.780463    1.022095   -0.026305
      3          6           0      -11.785105    0.034217    1.347607
      4          6           0      -10.967873    0.319172   -0.036986
      5          6           0      -11.882015   -1.449107    1.557647
      6          6           0      -12.687904   -2.138162    0.459997
      7          6           0      -11.561061   -0.421444   -1.264558
      8          6           0       11.114117    0.911094    1.150500
      9          6           0      -10.912378    0.751785    2.552720
     10          6           0      -13.160235    0.775451    1.353425
     11          6           0       12.466858    1.554770    0.718154
     12          6           0      -12.329804   -1.548309   -0.945038
     13          6           0       13.565662    0.392201    0.413705
     14          6           0       10.669466   -0.048747    0.078681
     15          6           0       -9.543422   -0.006529    0.038597
     16          6           0       13.042418   -0.301204   -0.873164
     17          6           0       11.561134   -0.623152   -0.848061
     18          6           0       10.146742    2.181755    1.294226
     19          6           0       11.221576    0.234231    2.569339
     20          6           0      -11.426944   -0.002698   -2.632988
     21          6           0       -8.504798    0.791875   -0.324539
     22          6           0        9.321832   -0.506823    0.234959
     23          6           0       11.203416   -1.605779   -1.960341
     24          6           0       -7.158666    0.555994   -0.179117
     25          6           0        8.846130   -1.712957   -0.127667
     26          6           0       -6.755366   -0.896505    0.050042
     27          6           0        7.414729   -2.046370   -0.066482
     28          6           0       -6.203721    1.476493   -0.490816
     29          6           0        7.071097   -3.507148    0.093729
     30          6           0        6.404570   -1.138549   -0.208826
     31          6           0       -4.796639    1.390623   -0.461066
     32          6           0        4.980718   -1.479326   -0.205128
     33          6           0       -3.978691    2.429678   -0.727398
     34          6           0       -2.600004    2.658793   -0.709625
     35          6           0        4.018064   -0.514499   -0.258598
     36          6           0        2.573194   -0.704609   -0.226384
     37          6           0       -2.006523    3.948787   -0.978352
     38          6           0       -1.796229    1.411487   -0.668123
     39          6           0        1.738501    0.435703   -0.492546
     40          6           0        2.183378   -2.059101   -0.123721
     41          6           0       -0.425226    1.545716   -0.739550
     42          6           0        0.357977    0.399181   -0.480141
     43          1           0      -11.204771    1.443220   -0.312461
     44          1           0      -12.386790   -1.768953    2.506008
     45          1           0      -10.878595   -2.111973    1.668154
     46          1           0      -12.515784   -3.216946    0.492890
     47          1           0       -9.921631    0.312227    2.428913
     48          1           0      -10.874609    1.936037    2.319331
     49          1           0      -11.372460    0.479310    3.423665
     50          1           0      -13.883852    0.398300    0.635368
     51          1           0      -13.634883    0.665302    2.184715
     52          1           0      -12.802768    1.782047    1.178115
     53          1           0       12.364857    2.278684   -0.214484
     54          1           0       12.701228    2.302853    1.730216
     55          1           0      -12.808686   -1.968255   -1.793430
     56          1           0       13.647666   -0.301288    1.249610
     57          1           0       -9.353114   -0.894108    0.717689
     58          1           0       13.581990   -1.062833   -1.024106
     59          1           0       13.294274    0.443877   -1.540698
     60          1           0        9.196059    1.759020    1.712751
     61          1           0        9.772912    2.602741    0.231825
     62          1           0       10.440289    2.992615    1.869760
     63          1           0       12.057285   -0.350464    2.809499
     64          1           0       10.296594   -0.228025    2.814172
     65          1           0       11.462109    0.896197    3.413726
     66          1           0      -10.337679   -0.003338   -2.832574
     67          1           0      -12.024360    1.091373   -2.825514
     68          1           0      -11.789394   -0.878219   -3.356698
     69          1           0      -14.635576   -2.508822   -0.036200
     70          1           0        8.492111    0.064454    0.692568
     71          1           0       -8.702332    1.625659   -0.845048
     72          1           0       11.393654   -2.636230   -1.734545
     73          1           0       10.124003   -1.325892   -2.187533
     74          1           0       11.900389   -1.230432   -2.653290
     75          1           0       15.248828    1.402707    0.731822
     76          1           0        9.514963   -2.587723   -0.375295
     77          1           0       -5.761971   -1.137773    0.341385
     78          1           0       -7.255308   -1.259543    1.102216
     79          1           0       -7.103579   -1.709150   -0.784514
     80          1           0       -6.333755    2.581818   -0.688255
     81          1           0        6.849570   -3.613792    1.213379
     82          1           0        6.102856   -3.915010   -0.441115
     83          1           0        8.109034   -4.101356   -0.289709
     84          1           0        6.488715   -0.063891   -0.232737
     85          1           0       -4.323626    0.392407   -0.044159
     86          1           0        4.693459   -2.556001   -0.102879
     87          1           0       -4.630940    3.298418   -0.795608
     88          1           0        4.287703    0.595297   -0.258056
     89          1           0       -1.216397    3.739402   -1.798171
     90          1           0       -1.465627    4.252448   -0.134468
     91          1           0       -2.775507    4.625692   -1.027075
     92          1           0       -2.345468    0.408402   -0.337977
     93          1           0        2.303795    1.300400   -0.695552
     94          1           0        2.466304   -2.583484    0.797935
     95          1           0        1.011289   -2.198723    0.223957
     96          1           0        2.660799   -2.667537   -1.011697
     97          1           0        0.070824    2.494441   -0.921877
     98          1           0       -0.089670   -0.633873   -0.187895
 ---------------------------------------------------------------------

 SCF Done:  E(RCAM-B3LYP) =  -1706.95005440     A.U. after   15 cycles

 Excitation energies and oscillator strengths:

 Excited State   1:      Singlet-A      1.9368 eV  640.14 nm  f=2.8890  <S**2>=0.000
     155 ->158         0.12471
     156 ->157         0.70106
     156 <-157        -0.11366
 This state for optimization and/or second-order correction.
 Total Energy, E(TD-HF/TD-DFT) =  -1706.87887771
 Copying the excited state density for this state as the 1-particle RhoCI density.

 The electronic state is 1-A.
 Alpha  occ. eigenvalues --  -19.21723 -19.21333 -10.31073 -10.30911 -10.28113
 Alpha  occ. eigenvalues --  -10.27926 -10.27530 -10.27522 -10.27498 -10.27297
 Alpha  occ. eigenvalues --  -10.27279 -10.27234 -10.27090 -10.27052 -10.27041
 Alpha  occ. eigenvalues --  -10.27032 -10.27007 -10.26840 -10.26804 -10.26588
 Alpha  occ. eigenvalues --  -10.26515 -10.26424 -10.26337 -10.26139 -10.26095
 Alpha  occ. eigenvalues --  -10.26089 -10.26052 -10.26031 -10.26002 -10.25868
 Alpha  occ. eigenvalues --  -10.25520 -10.25514 -10.25414 -10.25277 -10.25183
 Alpha  occ. eigenvalues --  -10.24976 -10.24694 -10.24535 -10.24142 -10.24105
 Alpha  occ. eigenvalues --  -10.23251 -10.21612  -1.08840  -1.06553  -0.92975
 Alpha  occ. eigenvalues --   -0.92663  -0.92154  -0.91566  -0.90464  -0.89866
 Alpha  occ. eigenvalues --   -0.87362  -0.86821  -0.86217  -0.85550  -0.84667
 Alpha  occ. eigenvalues --   -0.82396  -0.81977  -0.80176  -0.79980  -0.79066
 Alpha  occ. eigenvalues --   -0.76600  -0.76192  -0.75647  -0.75593  -0.75160
 Alpha  occ. eigenvalues --   -0.74760  -0.74299  -0.73786  -0.72045  -0.70017
 Alpha  occ. eigenvalues --   -0.68251  -0.66809  -0.65655  -0.65212  -0.63707
 Alpha  occ. eigenvalues --   -0.62942  -0.61890  -0.61749  -0.59970  -0.59666
 Alpha  occ. eigenvalues --   -0.59446  -0.59327  -0.57667  -0.57098  -0.56461
 Alpha  occ. eigenvalues --   -0.55767  -0.54767  -0.54337  -0.54004  -0.53318
 Alpha  occ. eigenvalues --   -0.52768  -0.52332  -0.52069  -0.51702  -0.50658
 Alpha  occ. eigenvalues --   -0.50373  -0.50233  -0.49950  -0.49202  -0.49115
 Alpha  occ. eigenvalues --   -0.48767  -0.48535  -0.48454  -0.48014  -0.47738
 Alpha  occ. eigenvalues --   -0.47288  -0.46998  -0.46695  -0.46645  -0.46110
 Alpha  occ. eigenvalues --   -0.46006  -0.45522  -0.45492  -0.44754  -0.44589
 Alpha  occ. eigenvalues --   -0.44220  -0.44116  -0.43660  -0.43347  -0.43125
 Alpha  occ. eigenvalues --   -0.43001  -0.42752  -0.42415  -0.41924  -0.41719
 Alpha  occ. eigenvalues --   -0.41550  -0.41182  -0.40963  -0.40874  -0.40371
 Alpha  occ. eigenvalues --   -0.40045  -0.39900  -0.39635  -0.39542  -0.39190
 Alpha  occ. eigenvalues --   -0.38750  -0.38593  -0.38323  -0.37849  -0.37690
 Alpha  occ. eigenvalues --   -0.37119  -0.36987  -0.36910  -0.36163  -0.35605
 Alpha  occ. eigenvalues --   -0.34907  -0.34103  -0.33339  -0.32083  -0.31554
 Alpha  occ. eigenvalues --   -0.31133  -0.28889  -0.28020  -0.26117  -0.23441
 Alpha  occ. eigenvalues --   -0.18445
 Alpha virt. eigenvalues --   -0.06295  -0.00644   0.02309   0.05369   0.06684
 Alpha virt. eigenvalues --    0.08759   0.10686   0.11152   0.11553   0.12291
 Alpha virt. eigenvalues --    0.12608   0.12818   0.13109   0.13426   0.13472

 Mulliken charges:
               1
     1  O   -0.553925
     2  O   -0.561829
     3  C   -0.005151
     4  C   -0.143305
     5  C   -0.185177
     6  C    0.148260
     7  C    0.134738
     8  C   -0.017781
     9  C   -0.292501
    10  C   -0.277079
    11  C   -0.171463
    12  C   -0.134766
    13  C    0.134945
    14  C    0.100012
    15  C   -0.081894
    16  C   -0.201294
    17  C    0.004637
    18  C   -0.303659
    19  C   -0.310236
    20  C   -0.353885
    21  C   -0.070217
    22  C   -0.117273
    23  C   -0.360331
    24  C    0.108538
    25  C   -0.110943
    26  C   -0.353155
    27  C    0.064253
    28  C   -0.137004
    29  C   -0.356044
    30  C   -0.103401
    31  C   -0.039696
    32  C   -0.087858
    33  C   -0.127862
    34  C    0.069358
    35  C   -0.130207
    36  C    0.130209
    37  C   -0.369507
    38  C   -0.100003
    39  C   -0.101057
    40  C   -0.396811
    41  C   -0.089854
    42  C   -0.086043
    43  H    0.073436
    44  H    0.105940
    45  H    0.078719
    46  H    0.084431
    47  H    0.102943
    48  H    0.083025
    49  H    0.111254
    50  H    0.120942
    51  H    0.109474
    52  H    0.085749
    53  H    0.094985
    54  H    0.035982
    55  H    0.054457
    56  H    0.089880
    57  H    0.087510
    58  H    0.112429
    59  H    0.141230
    60  H    0.091059
    61  H    0.083587
    62  H    0.114729
    63  H    0.103795
    64  H    0.115490
    65  H    0.093384
    66  H    0.126240
    67  H    0.096809
    68  H    0.101102
    69  H    0.304266
    70  H    0.092320
    71  H    0.073887
    72  H    0.125018
    73  H    0.130000
    74  H    0.115002
    75  H    0.306056
    76  H    0.087613
    77  H    0.112706
    78  H    0.080372
    79  H    0.106996
    80  H    0.071473
    81  H    0.127690
    82  H    0.110116
    83  H    0.081102
    84  H    0.080369
    85  H    0.061620
    86  H    0.077525
    87  H    0.057988
    88  H    0.073064
    89  H    0.127921
    90  H    0.136604
    91  H    0.116861
    92  H    0.091791
    93  H    0.077860
    94  H    0.128169
    95  H    0.078414
    96  H    0.127344
    97  H    0.093768
    98  H    0.083767
 Sum of Mulliken charges =  -0.00000

 Dipole moment (field-independent basis, Debye):
    X=              1.6489    Y=             -1.1423    Z=              0.8969  Tot=              2.1973
 Quadrupole moment (field-independent basis, Debye-Ang):
   XX=           -259.0563   YY=           -242.3371   ZZ=           -263.2381
   XY=              6.8220   XZ=             35.2114   YZ=              1.0714

 Normal termination of Gaussian 16 at Sat Jul 13 07:53:35 2019.
