 Gaussian 16, Revision A.03,
 Gaussian 16:  ES64L-G16RevA.03 25-Dec-2016

 -------------------------------------
 # td=(NStates=1) CAM-B3LYP/6-31G(d,p)
 -------------------------------------

 --
 TD
 --
 Symbolic Z-matrix:
 Charge =  0 Multiplicity = 1

                         Standard orientation:
 ---------------------------------------------------------------------
 Center     Atomic      Atomic             Coordinates (Angstroms)
 Number     Number       Type             X           Y           Z
 ---------------------------------------------------------------------
      1          8           0      -14.011431   -2.158189    0.261596
      2          8           0       14.825608    0.647030    0.088388
      3          6           0      -11.652056   -0.027381    1.294629
      4          6           0      -10.936390    0.333902    0.047457
      5          6           0      -11.876057   -1.589331    1.251238
      6          6           0      -12.648997   -2.178494    0.078501
      7          6           0      -11.600782   -0.322000   -1.261448
      8          6           0       11.157627    0.989125    0.959223
      9          6           0      -10.945583    0.423497    2.479025
     10          6           0      -13.049982    0.561632    1.233286
     11          6           0       12.558872    1.424524    0.805649
     12          6           0      -12.203339   -1.464035   -1.178168
     13          6           0       13.480426    0.293481    0.279070
     14          6           0       10.648320   -0.018384   -0.076149
     15          6           0       -9.491727   -0.069089   -0.006343
     16          6           0       12.918647   -0.286453   -1.081813
     17          6           0       11.425589   -0.555625   -0.973771
     18          6           0       10.301584    2.385841    0.888967
     19          6           0       10.931797    0.459857    2.486101
     20          6           0      -11.386634    0.522141   -2.552774
     21          6           0       -8.545457    0.860700   -0.049941
     22          6           0        9.168849   -0.387989    0.171127
     23          6           0       10.987525   -1.365265   -2.188954
     24          6           0       -7.147981    0.574276   -0.011552
     25          6           0        8.734656   -1.629778    0.023326
     26          6           0       -6.577448   -0.836587    0.138826
     27          6           0        7.360045   -2.066638    0.005400
     28          6           0       -6.201499    1.592702   -0.147963
     29          6           0        7.136576   -3.538196    0.302731
     30          6           0        6.292279   -1.262274   -0.112721
     31          6           0       -4.790008    1.598293   -0.218708
     32          6           0        4.953241   -1.603451   -0.019546
     33          6           0       -3.977548    2.658801   -0.421276
     34          6           0       -2.518641    2.620737   -0.554561
     35          6           0        3.987132   -0.643826   -0.260227
     36          6           0        2.615613   -0.871638   -0.225274
     37          6           0       -1.898030    4.061998   -0.778253
     38          6           0       -1.790393    1.559341   -0.360074
     39          6           0        1.761707    0.219551   -0.466611
     40          6           0        2.094181   -2.235664    0.154572
     41          6           0       -0.378028    1.539681   -0.448909
     42          6           0        0.326673    0.315063   -0.412846
     43          1           0      -11.146213    1.436677   -0.137429
     44          1           0      -12.331172   -1.745033    2.194403
     45          1           0      -10.848817   -2.238521    1.087438
     46          1           0      -12.364928   -3.272231    0.052132
     47          1           0       -9.791281    0.038264    2.319995
     48          1           0      -10.989213    1.570383    2.241494
     49          1           0      -11.302476    0.060519    3.289025
     50          1           0      -13.650814    0.268385    0.473180
     51          1           0      -13.678374    0.291572    1.938315
     52          1           0      -13.224890    1.744010    1.169402
     53          1           0       12.709906    2.229044   -0.061501
     54          1           0       12.923049    1.877053    1.609947
     55          1           0      -12.606170   -1.727476   -2.072695
     56          1           0       13.419429   -0.638438    0.806517
     57          1           0       -9.318624   -1.099493    0.128526
     58          1           0       13.527220   -1.083274   -1.257344
     59          1           0       13.147520    0.404161   -1.872953
     60          1           0        9.219679    2.040943    1.029146
     61          1           0       10.276339    2.678903   -0.270436
     62          1           0       10.590843    3.092430    1.517208
     63          1           0       11.729091   -0.426524    2.637504
     64          1           0        9.932538   -0.090536    2.698361
     65          1           0       11.100664    1.363097    3.214119
     66          1           0      -10.185912    0.557066   -2.417205
     67          1           0      -11.826954    1.447579   -2.568460
     68          1           0      -11.670552   -0.149307   -3.364519
     69          1           0      -14.630545   -2.709818   -0.347323
     70          1           0        8.488667    0.383756    0.223009
     71          1           0       -8.966900    1.979592   -0.373820
     72          1           0       11.410747   -2.297055   -1.920465
     73          1           0        9.956868   -1.301366   -2.315639
     74          1           0       11.232543   -0.913071   -3.133375
     75          1           0       15.329973    1.049051    0.908130
     76          1           0        9.432651   -2.440390   -0.107350
     77          1           0       -5.587972   -0.998910    0.125169
     78          1           0       -7.185691   -1.262995    1.195103
     79          1           0       -6.891726   -1.468639   -0.681624
     80          1           0       -6.710394    2.469802   -0.084146
     81          1           0        6.662844   -3.701509    1.203587
     82          1           0        6.459513   -4.073237   -0.545830
     83          1           0        8.097187   -3.962785    0.158264
     84          1           0        6.563929   -0.170307   -0.186507
     85          1           0       -4.422844    0.688810    0.173355
     86          1           0        4.567868   -2.575158    0.265611
     87          1           0       -4.546765    3.515131   -0.690102
     88          1           0        4.267042    0.327964   -0.436312
     89          1           0       -0.993878    3.781354   -1.600583
     90          1           0       -1.368304    4.270910    0.040253
     91          1           0       -2.654062    4.868075   -1.279357
     92          1           0       -1.903779    0.534355   -0.048213
     93          1           0        2.305598    1.287219   -0.368675
     94          1           0        2.395622   -2.555427    1.310451
     95          1           0        1.005135   -2.417197    0.023005
     96          1           0        2.443325   -2.943325   -0.424345
     97          1           0        0.104998    2.452636   -0.555303
     98          1           0       -0.363510   -0.615722   -0.458483
 ---------------------------------------------------------------------

 SCF Done:  E(RCAM-B3LYP) =  -1706.91140480     A.U. after   15 cycles

 Excitation energies and oscillator strengths:

 Excited State   1:      Singlet-A      2.3753 eV  521.97 nm  f=3.0729  <S**2>=0.000
     155 ->158        -0.15445
     156 ->157         0.68842
 This state for optimization and/or second-order correction.
 Total Energy, E(TD-HF/TD-DFT) =  -1706.82411393
 Copying the excited state density for this state as the 1-particle RhoCI density.

 The electronic state is 1-A.
 Alpha  occ. eigenvalues --  -19.21322 -19.21113 -10.31019 -10.29426 -10.27836
 Alpha  occ. eigenvalues --  -10.27793 -10.27703 -10.27547 -10.27536 -10.27512
 Alpha  occ. eigenvalues --  -10.27467 -10.27045 -10.26866 -10.26333 -10.26048
 Alpha  occ. eigenvalues --  -10.26000 -10.25991 -10.25872 -10.25871 -10.25808
 Alpha  occ. eigenvalues --  -10.25751 -10.25709 -10.25704 -10.25645 -10.25627
 Alpha  occ. eigenvalues --  -10.25549 -10.25489 -10.25389 -10.25328 -10.25219
 Alpha  occ. eigenvalues --  -10.25140 -10.25065 -10.25049 -10.25023 -10.24818
 Alpha  occ. eigenvalues --  -10.24727 -10.24159 -10.23831 -10.23761 -10.23474
 Alpha  occ. eigenvalues --  -10.22645 -10.21729  -1.09417  -1.07637  -0.94152
 Alpha  occ. eigenvalues --   -0.93001  -0.92326  -0.91874  -0.90690  -0.90081
 Alpha  occ. eigenvalues --   -0.87326  -0.87062  -0.86429  -0.85502  -0.84383
 Alpha  occ. eigenvalues --   -0.82809  -0.81894  -0.80696  -0.79777  -0.78248
 Alpha  occ. eigenvalues --   -0.76858  -0.76613  -0.76531  -0.76491  -0.75546
 Alpha  occ. eigenvalues --   -0.75299  -0.75266  -0.73639  -0.73350  -0.70597
 Alpha  occ. eigenvalues --   -0.68984  -0.67889  -0.66983  -0.65761  -0.63936
 Alpha  occ. eigenvalues --   -0.63551  -0.62721  -0.62048  -0.61784  -0.60567
 Alpha  occ. eigenvalues --   -0.59965  -0.59194  -0.57672  -0.57601  -0.56294
 Alpha  occ. eigenvalues --   -0.55702  -0.55146  -0.54981  -0.54464  -0.54210
 Alpha  occ. eigenvalues --   -0.53767  -0.53273  -0.52919  -0.52353  -0.51400
 Alpha  occ. eigenvalues --   -0.50582  -0.50248  -0.49707  -0.49281  -0.49137
 Alpha  occ. eigenvalues --   -0.48899  -0.48607  -0.48497  -0.48252  -0.47988
 Alpha  occ. eigenvalues --   -0.47712  -0.47318  -0.47216  -0.46756  -0.46234
 Alpha  occ. eigenvalues --   -0.45875  -0.45359  -0.45103  -0.44731  -0.44504
 Alpha  occ. eigenvalues --   -0.44349  -0.44305  -0.44094  -0.43719  -0.43248
 Alpha  occ. eigenvalues --   -0.43037  -0.42948  -0.42791  -0.42428  -0.41823
 Alpha  occ. eigenvalues --   -0.41527  -0.41234  -0.41022  -0.40601  -0.40385
 Alpha  occ. eigenvalues --   -0.40019  -0.39806  -0.39681  -0.39324  -0.38918
 Alpha  occ. eigenvalues --   -0.38649  -0.38455  -0.38126  -0.37522  -0.37237
 Alpha  occ. eigenvalues --   -0.37060  -0.36748  -0.36423  -0.36332  -0.35304
 Alpha  occ. eigenvalues --   -0.34707  -0.33587  -0.33104  -0.32134  -0.31510
 Alpha  occ. eigenvalues --   -0.31155  -0.29780  -0.29131  -0.27254  -0.23956
 Alpha  occ. eigenvalues --   -0.20050
 Alpha virt. eigenvalues --   -0.05352  -0.00789   0.03134   0.06827   0.08339
 Alpha virt. eigenvalues --    0.09460   0.10827   0.11259   0.11510   0.12120
 Alpha virt. eigenvalues --    0.12461   0.12564   0.12982   0.13362   0.14045

 Mulliken charges:
               1
     1  O   -0.560730
     2  O   -0.583587
     3  C    0.011804
     4  C   -0.119073
     5  C   -0.182657
     6  C    0.172759
     7  C    0.070012
     8  C   -0.009612
     9  C   -0.248304
    10  C   -0.304709
    11  C   -0.167613
    12  C   -0.112473
    13  C    0.173820
    14  C    0.070102
    15  C   -0.076417
    16  C   -0.220020
    17  C   -0.007991
    18  C   -0.299495
    19  C   -0.300387
    20  C   -0.337086
    21  C   -0.090112
    22  C   -0.108816
    23  C   -0.343662
    24  C    0.101778
    25  C   -0.088117
    26  C   -0.349143
    27  C    0.068449
    28  C   -0.131041
    29  C   -0.362292
    30  C   -0.105534
    31  C   -0.049153
    32  C   -0.087481
    33  C   -0.116130
    34  C    0.050381
    35  C   -0.089980
    36  C    0.123602
    37  C   -0.354871
    38  C   -0.063992
    39  C   -0.153138
    40  C   -0.370182
    41  C   -0.076454
    42  C   -0.113546
    43  H    0.072138
    44  H    0.101026
    45  H    0.069462
    46  H    0.064095
    47  H    0.074417
    48  H    0.089894
    49  H    0.101134
    50  H    0.130863
    51  H    0.106555
    52  H    0.059094
    53  H    0.080514
    54  H    0.085052
    55  H    0.050575
    56  H    0.074165
    57  H    0.098309
    58  H    0.114895
    59  H    0.114164
    60  H    0.088130
    61  H    0.086604
    62  H    0.112614
    63  H    0.082062
    64  H    0.108227
    65  H    0.087939
    66  H    0.104306
    67  H    0.130298
    68  H    0.107643
    69  H    0.317087
    70  H    0.090118
    71  H    0.083688
    72  H    0.120834
    73  H    0.118779
    74  H    0.113316
    75  H    0.310683
    76  H    0.080872
    77  H    0.118917
    78  H    0.076759
    79  H    0.120102
    80  H    0.064316
    81  H    0.136421
    82  H    0.090078
    83  H    0.106071
    84  H    0.069530
    85  H    0.081150
    86  H    0.088899
    87  H    0.076697
    88  H    0.074648
    89  H    0.088563
    90  H    0.150916
    91  H    0.110773
    92  H    0.082704
    93  H    0.076481
    94  H    0.099446
    95  H    0.104755
    96  H    0.136145
    97  H    0.073261
    98  H    0.084909
 Sum of Mulliken charges =  -0.00000

 Dipole moment (field-independent basis, Debye):
    X=             -1.4400    Y=             -1.0348    Z=              0.0911  Tot=              1.7756
 Quadrupole moment (field-independent basis, Debye-Ang):
   XX=           -249.5810   YY=           -241.7180   ZZ=           -263.5748
   XY=             15.7884   XZ=             33.2244   YZ=              2.2192

 Normal termination of Gaussian 16 at Mon Jul 15 23:21:49 2019.
