 Gaussian 16, Revision A.03,
 Gaussian 16:  ES64L-G16RevA.03 25-Dec-2016

 -------------------------------------
 # td=(NStates=1) CAM-B3LYP/6-31G(d,p)
 -------------------------------------

 --
 TD
 --
 Symbolic Z-matrix:
 Charge =  0 Multiplicity = 1

                         Standard orientation:
 ---------------------------------------------------------------------
 Center     Atomic      Atomic             Coordinates (Angstroms)
 Number     Number       Type             X           Y           Z
 ---------------------------------------------------------------------
      1          8           0      -14.072276   -2.082004    0.251106
      2          8           0       14.807213    0.985226    0.021160
      3          6           0      -11.716726   -0.249894    1.446433
      4          6           0      -10.944501    0.303820    0.159122
      5          6           0      -11.870623   -1.841795    1.134582
      6          6           0      -12.703156   -2.093052   -0.110515
      7          6           0      -11.609502   -0.032512   -1.245055
      8          6           0       11.145289    0.845148    1.204922
      9          6           0      -10.876741    0.067813    2.659011
     10          6           0      -13.085525    0.443835    1.569753
     11          6           0       12.604925    1.428767    0.983249
     12          6           0      -12.392956   -1.136713   -1.332933
     13          6           0       13.550803    0.491696    0.384240
     14          6           0       10.815347   -0.162611   -0.010586
     15          6           0       -9.551747   -0.012565    0.098693
     16          6           0       12.957829   -0.010338   -0.995699
     17          6           0       11.523939   -0.428208   -1.013048
     18          6           0       10.170366    2.070858    1.313830
     19          6           0       11.109604    0.008191    2.455358
     20          6           0      -11.260046    0.861040   -2.421324
     21          6           0       -8.655211    0.825742    0.034542
     22          6           0        9.301865   -0.444943   -0.082102
     23          6           0       11.071583   -1.138286   -2.333950
     24          6           0       -7.190704    0.611985   -0.066714
     25          6           0        8.713377   -1.591559   -0.134541
     26          6           0       -6.687533   -0.914079   -0.094317
     27          6           0        7.330082   -2.101446   -0.112246
     28          6           0       -6.183888    1.624440   -0.276050
     29          6           0        7.135630   -3.572875    0.250607
     30          6           0        6.337063   -1.157276   -0.143600
     31          6           0       -4.790510    1.494501   -0.415797
     32          6           0        4.954594   -1.548541   -0.096636
     33          6           0       -3.960542    2.722002   -0.431973
     34          6           0       -2.641774    2.685030   -0.554065
     35          6           0        3.919221   -0.689853   -0.298560
     36          6           0        2.531157   -0.836794   -0.307855
     37          6           0       -2.014568    3.957639   -0.608469
     38          6           0       -1.785177    1.497430   -0.435547
     39          6           0        1.729208    0.213811   -0.506418
     40          6           0        1.988724   -2.311217   -0.142530
     41          6           0       -0.354325    1.477816   -0.463144
     42          6           0        0.324293    0.319841   -0.433896
     43          1           0      -10.951258    1.528168    0.258510
     44          1           0      -12.227168   -2.228336    2.240245
     45          1           0      -10.839278   -2.250907    0.969125
     46          1           0      -12.380018   -3.122723   -0.361624
     47          1           0       -9.958407   -0.393277    2.685499
     48          1           0      -10.601437    1.143972    2.597547
     49          1           0      -11.376440   -0.102602    3.554439
     50          1           0      -13.586296    0.378659    0.698744
     51          1           0      -13.775651   -0.153245    2.332149
     52          1           0      -13.017212    1.570749    1.902781
     53          1           0       12.735018    2.522438    0.357899
     54          1           0       12.948238    1.664595    2.042659
     55          1           0      -12.847753   -1.391178   -2.246741
     56          1           0       13.532446   -0.284757    1.174613
     57          1           0       -9.323441   -1.034058    0.185968
     58          1           0       13.561178   -1.037487   -1.354351
     59          1           0       12.956610    0.880651   -1.689605
     60          1           0        9.311329    1.771847    1.781285
     61          1           0        9.976841    2.513163    0.279075
     62          1           0       10.545027    2.615118    2.072123
     63          1           0       11.813421   -0.880293    2.279007
     64          1           0       10.121361   -0.496384    2.665434
     65          1           0       11.307360    0.509910    3.350840
     66          1           0      -10.117715    0.707016   -2.752995
     67          1           0      -11.626746    1.867378   -2.254931
     68          1           0      -11.802541    0.436566   -3.376332
     69          1           0      -14.461748   -2.096156   -0.732941
     70          1           0        8.594509    0.285469    0.293831
     71          1           0       -8.859879    1.933075   -0.164491
     72          1           0       11.399688   -2.111325   -2.022005
     73          1           0        9.994915   -1.129689   -2.604014
     74          1           0       11.887222   -0.769204   -3.049632
     75          1           0       15.364587    0.886187    0.903458
     76          1           0        9.361350   -2.349295   -0.611090
     77          1           0       -5.541910   -0.743049   -0.099643
     78          1           0       -6.798145   -1.570685    0.827741
     79          1           0       -6.827925   -1.534437   -0.979656
     80          1           0       -6.653394    2.434883   -0.269291
     81          1           0        7.292204   -3.976774    1.409513
     82          1           0        5.919683   -3.868198   -0.362938
     83          1           0        8.072628   -4.028021   -0.401609
     84          1           0        6.493774   -0.191298   -0.441029
     85          1           0       -4.287157    0.548257   -0.670180
     86          1           0        4.802249   -2.536638   -0.029764
     87          1           0       -4.522272    3.782951   -0.229675
     88          1           0        4.253734    0.319170   -0.445090
     89          1           0       -1.107348    4.113755   -1.278411
     90          1           0       -1.482774    4.174651    0.246083
     91          1           0       -2.526237    4.841252   -0.873437
     92          1           0       -2.222850    0.484357   -0.532339
     93          1           0        2.220241    1.171793   -0.425602
     94          1           0        2.022473   -2.447720    1.000766
     95          1           0        0.876805   -2.436723   -0.561650
     96          1           0        2.834511   -2.956008   -0.738141
     97          1           0        0.216964    2.475576   -0.267120
     98          1           0       -0.207717   -0.727987   -0.221750
 ---------------------------------------------------------------------

 SCF Done:  E(RCAM-B3LYP) =  -1706.86806855     A.U. after   15 cycles

 Excitation energies and oscillator strengths:

 Excited State   1:      Singlet-A      1.9908 eV  622.77 nm  f=2.4802  <S**2>=0.000
     155 ->158        -0.11636
     156 ->157         0.70574
     156 <-157        -0.12563
 This state for optimization and/or second-order correction.
 Total Energy, E(TD-HF/TD-DFT) =  -1706.79490635
 Copying the excited state density for this state as the 1-particle RhoCI density.

 The electronic state is 1-A.
 Alpha  occ. eigenvalues --  -19.22672 -19.22336 -10.31439 -10.30847 -10.30477
 Alpha  occ. eigenvalues --  -10.28660 -10.28397 -10.28361 -10.28113 -10.27820
 Alpha  occ. eigenvalues --  -10.27699 -10.27593 -10.27470 -10.27150 -10.27141
 Alpha  occ. eigenvalues --  -10.27034 -10.27010 -10.26935 -10.26913 -10.26831
 Alpha  occ. eigenvalues --  -10.26690 -10.26630 -10.26298 -10.26016 -10.26011
 Alpha  occ. eigenvalues --  -10.25789 -10.25451 -10.25292 -10.25284 -10.25205
 Alpha  occ. eigenvalues --  -10.25182 -10.25152 -10.24869 -10.24850 -10.24662
 Alpha  occ. eigenvalues --  -10.24611 -10.24445 -10.23953 -10.23910 -10.23863
 Alpha  occ. eigenvalues --  -10.23832 -10.22602  -1.09699  -1.08993  -0.93357
 Alpha  occ. eigenvalues --   -0.93254  -0.92496  -0.91872  -0.90284  -0.89404
 Alpha  occ. eigenvalues --   -0.87662  -0.87182  -0.86248  -0.86123  -0.84775
 Alpha  occ. eigenvalues --   -0.82488  -0.81413  -0.80289  -0.80080  -0.77686
 Alpha  occ. eigenvalues --   -0.77082  -0.76322  -0.75989  -0.75728  -0.75233
 Alpha  occ. eigenvalues --   -0.75024  -0.74749  -0.74334  -0.72757  -0.70673
 Alpha  occ. eigenvalues --   -0.68201  -0.66519  -0.65925  -0.64790  -0.63817
 Alpha  occ. eigenvalues --   -0.62820  -0.62394  -0.61964  -0.60408  -0.60183
 Alpha  occ. eigenvalues --   -0.59729  -0.59350  -0.57820  -0.57404  -0.55744
 Alpha  occ. eigenvalues --   -0.55172  -0.54451  -0.54083  -0.53936  -0.53677
 Alpha  occ. eigenvalues --   -0.52814  -0.52554  -0.52306  -0.51623  -0.51173
 Alpha  occ. eigenvalues --   -0.50656  -0.50330  -0.49893  -0.49097  -0.48714
 Alpha  occ. eigenvalues --   -0.48616  -0.48497  -0.48143  -0.47786  -0.47618
 Alpha  occ. eigenvalues --   -0.47032  -0.46764  -0.46708  -0.46657  -0.46274
 Alpha  occ. eigenvalues --   -0.45973  -0.45813  -0.45577  -0.44997  -0.44892
 Alpha  occ. eigenvalues --   -0.44457  -0.44413  -0.44240  -0.43437  -0.43251
 Alpha  occ. eigenvalues --   -0.42840  -0.42442  -0.42248  -0.41689  -0.41588
 Alpha  occ. eigenvalues --   -0.41526  -0.41430  -0.41190  -0.40829  -0.40558
 Alpha  occ. eigenvalues --   -0.40077  -0.39848  -0.39679  -0.39371  -0.39239
 Alpha  occ. eigenvalues --   -0.38979  -0.38727  -0.38150  -0.37814  -0.37691
 Alpha  occ. eigenvalues --   -0.37501  -0.36977  -0.36585  -0.36053  -0.34943
 Alpha  occ. eigenvalues --   -0.34584  -0.34096  -0.33489  -0.32393  -0.32188
 Alpha  occ. eigenvalues --   -0.31453  -0.30271  -0.29653  -0.28010  -0.24173
 Alpha  occ. eigenvalues --   -0.19032
 Alpha virt. eigenvalues --   -0.06442  -0.00731   0.04022   0.05544   0.07626
 Alpha virt. eigenvalues --    0.09367   0.09614   0.10312   0.11272   0.11654
 Alpha virt. eigenvalues --    0.11997   0.12580   0.12781   0.12880   0.13061

 Mulliken charges:
               1
     1  O   -0.528144
     2  O   -0.540482
     3  C    0.028964
     4  C   -0.167798
     5  C   -0.192283
     6  C    0.152453
     7  C    0.123050
     8  C   -0.015091
     9  C   -0.305709
    10  C   -0.276491
    11  C   -0.172953
    12  C   -0.168812
    13  C    0.160774
    14  C    0.041375
    15  C   -0.020795
    16  C   -0.212978
    17  C    0.040733
    18  C   -0.290731
    19  C   -0.308700
    20  C   -0.355977
    21  C   -0.071326
    22  C   -0.144358
    23  C   -0.340664
    24  C    0.042404
    25  C   -0.077608
    26  C   -0.379608
    27  C    0.066096
    28  C   -0.059374
    29  C   -0.310125
    30  C   -0.081076
    31  C   -0.089202
    32  C   -0.066719
    33  C   -0.144439
    34  C    0.145726
    35  C   -0.120434
    36  C    0.122835
    37  C   -0.413441
    38  C   -0.133717
    39  C   -0.134628
    40  C   -0.352053
    41  C   -0.074616
    42  C   -0.079682
    43  H    0.059340
    44  H    0.092492
    45  H    0.091437
    46  H    0.083353
    47  H    0.106353
    48  H    0.096616
    49  H    0.105151
    50  H    0.118597
    51  H    0.088050
    52  H    0.074862
    53  H    0.069033
    54  H    0.070956
    55  H    0.078416
    56  H    0.074428
    57  H    0.090384
    58  H    0.076679
    59  H    0.120048
    60  H    0.106572
    61  H    0.110326
    62  H    0.106934
    63  H    0.097510
    64  H    0.109285
    65  H    0.103099
    66  H    0.121039
    67  H    0.130025
    68  H    0.095770
    69  H    0.304606
    70  H    0.068542
    71  H    0.066601
    72  H    0.131750
    73  H    0.129863
    74  H    0.105846
    75  H    0.309500
    76  H    0.049482
    77  H    0.084530
    78  H    0.109476
    79  H    0.122485
    80  H    0.051021
    81  H    0.122467
    82  H    0.068236
    83  H    0.095261
    84  H    0.084385
    85  H    0.108684
    86  H    0.050713
    87  H    0.091370
    88  H    0.067410
    89  H    0.105138
    90  H    0.138240
    91  H    0.116989
    92  H    0.078548
    93  H    0.073329
    94  H    0.127492
    95  H    0.103620
    96  H    0.101026
    97  H    0.087181
    98  H    0.075056
 Sum of Mulliken charges =  -0.00000

 Dipole moment (field-independent basis, Debye):
    X=              0.9310    Y=              0.0327    Z=              0.2065  Tot=              0.9541
 Quadrupole moment (field-independent basis, Debye-Ang):
   XX=           -266.1449   YY=           -249.8496   ZZ=           -259.6604
   XY=             -8.5510   XZ=             50.5762   YZ=              3.4281

 Normal termination of Gaussian 16 at Mon Jul 15 01:24:55 2019.
