 Gaussian 16, Revision A.03,
 Gaussian 16:  ES64L-G16RevA.03 25-Dec-2016

 -------------------------------------
 # td=(NStates=1) CAM-B3LYP/6-31G(d,p)
 -------------------------------------

 --
 TD
 --
 Symbolic Z-matrix:
 Charge =  0 Multiplicity = 1

                         Standard orientation:
 ---------------------------------------------------------------------
 Center     Atomic      Atomic             Coordinates (Angstroms)
 Number     Number       Type             X           Y           Z
 ---------------------------------------------------------------------
      1          8           0      -13.927693   -2.080603    0.759207
      2          8           0       14.764799    0.769094    0.220461
      3          6           0      -11.677857   -0.026755    1.296250
      4          6           0      -11.019435    0.316658    0.026106
      5          6           0      -11.761966   -1.520360    1.550814
      6          6           0      -12.630932   -2.230442    0.447296
      7          6           0      -11.762708   -0.372158   -1.146386
      8          6           0       11.187499    0.901448    1.015335
      9          6           0      -10.889750    0.580617    2.450681
     10          6           0      -13.113466    0.753938    1.290546
     11          6           0       12.657094    1.429557    0.817070
     12          6           0      -12.336078   -1.520247   -0.968282
     13          6           0       13.468922    0.254019    0.445563
     14          6           0       10.710916   -0.155604    0.079596
     15          6           0       -9.528679    0.024501    0.006410
     16          6           0       13.012575   -0.224973   -0.872998
     17          6           0       11.488709   -0.497478   -0.868642
     18          6           0       10.282829    2.229285    1.175656
     19          6           0       11.144710    0.391479    2.532352
     20          6           0      -11.474287    0.146617   -2.559818
     21          6           0       -8.522445    0.844012   -0.221623
     22          6           0        9.305317   -0.457936    0.128814
     23          6           0       11.121198   -1.405791   -2.021866
     24          6           0       -7.066673    0.548049   -0.238479
     25          6           0        8.678677   -1.711045   -0.092087
     26          6           0       -6.766845   -0.957506   -0.092059
     27          6           0        7.336590   -2.116567   -0.079859
     28          6           0       -6.144746    1.495445   -0.234675
     29          6           0        6.991487   -3.585646   -0.012354
     30          6           0        6.327774   -1.136587   -0.203991
     31          6           0       -4.794920    1.422845   -0.360720
     32          6           0        4.918449   -1.461594   -0.186024
     33          6           0       -4.015598    2.579924   -0.702325
     34          6           0       -2.640813    2.650330   -0.818322
     35          6           0        3.980073   -0.478409   -0.258525
     36          6           0        2.721474   -0.670713   -0.229165
     37          6           0       -2.108168    4.036997   -1.038912
     38          6           0       -1.813504    1.486817   -0.534306
     39          6           0        1.837325    0.460010   -0.479341
     40          6           0        2.129177   -2.110825   -0.187630
     41          6           0       -0.441798    1.493051   -0.479626
     42          6           0        0.420019    0.396088   -0.367474
     43          1           0      -11.168732    1.455278   -0.346084
     44          1           0      -12.161125   -1.910456    2.371141
     45          1           0      -10.704577   -1.929959    1.652790
     46          1           0      -12.209633   -3.160936    0.381109
     47          1           0       -9.926358   -0.062493    2.699000
     48          1           0      -10.449891    1.371795    2.115052
     49          1           0      -11.765762    0.815622    3.245961
     50          1           0      -13.933295    0.377021    0.668344
     51          1           0      -13.753552    0.681275    2.208439
     52          1           0      -12.969043    1.729664    1.147111
     53          1           0       12.800596    2.163557    0.082426
     54          1           0       12.999695    1.776615    1.862742
     55          1           0      -12.644507   -2.069456   -1.939388
     56          1           0       13.472278   -0.459068    1.325076
     57          1           0       -9.205581   -1.001030    0.048507
     58          1           0       13.474087   -1.061504   -1.596507
     59          1           0       13.252403    0.510830   -1.518919
     60          1           0        9.148630    2.167420    1.457920
     61          1           0       10.253388    2.810637    0.312269
     62          1           0       10.746928    2.832538    1.991130
     63          1           0       11.800627   -0.259026    3.128367
     64          1           0        9.875556    0.026376    2.785762
     65          1           0       11.390844    1.133367    3.209110
     66          1           0      -10.454997    0.409892   -2.550037
     67          1           0      -11.867383    1.166354   -2.558432
     68          1           0      -11.707882   -0.496954   -3.230328
     69          1           0      -14.626426   -2.794044    0.263702
     70          1           0        8.639896    0.347427    0.378889
     71          1           0       -8.808727    1.894617   -0.383357
     72          1           0       11.493139   -2.504287   -1.739525
     73          1           0       10.074889   -1.507917   -2.197511
     74          1           0       11.527514   -1.153687   -3.074211
     75          1           0       15.259975    1.088109    1.042398
     76          1           0        9.461272   -2.601119   -0.112344
     77          1           0       -5.663189   -1.245065   -0.224932
     78          1           0       -6.934813   -1.312265    0.889187
     79          1           0       -7.410142   -1.451645   -0.805484
     80          1           0       -6.694545    2.565778   -0.471827
     81          1           0        6.455607   -3.934160    0.822544
     82          1           0        6.279808   -3.602015   -0.894885
     83          1           0        8.104893   -4.064475   -0.188835
     84          1           0        6.657712   -0.097422   -0.683660
     85          1           0       -4.289669    0.393409   -0.251172
     86          1           0        4.539068   -2.616214   -0.096859
     87          1           0       -4.694893    3.483490   -0.795814
     88          1           0        4.339535    0.432340   -0.336497
     89          1           0       -1.425809    3.804082   -1.823500
     90          1           0       -1.541920    4.391196   -0.155024
     91          1           0       -2.957649    4.500049   -1.470717
     92          1           0       -2.412067    0.684555   -0.286441
     93          1           0        2.437206    1.375207   -0.565028
     94          1           0        2.251698   -2.656466    0.824241
     95          1           0        1.086397   -2.108405   -0.517719
     96          1           0        2.539322   -2.624400   -0.928799
     97          1           0        0.226401    2.524492   -0.770270
     98          1           0       -0.164936   -0.542763   -0.278455
 ---------------------------------------------------------------------

 SCF Done:  E(RCAM-B3LYP) =  -1706.85875455     A.U. after   16 cycles

 Excitation energies and oscillator strengths:

 Excited State   1:      Singlet-A      1.7165 eV  722.29 nm  f=3.0386  <S**2>=0.000
     155 ->158         0.12964
     156 ->157         0.70657
     156 <-157        -0.14180
 This state for optimization and/or second-order correction.
 Total Energy, E(TD-HF/TD-DFT) =  -1706.79567274
 Copying the excited state density for this state as the 1-particle RhoCI density.

 The electronic state is 1-A.
 Alpha  occ. eigenvalues --  -19.22783 -19.20587 -10.30231 -10.30003 -10.28674
 Alpha  occ. eigenvalues --  -10.27558 -10.27194 -10.27187 -10.27160 -10.27157
 Alpha  occ. eigenvalues --  -10.27097 -10.26980 -10.26975 -10.26811 -10.26809
 Alpha  occ. eigenvalues --  -10.26803 -10.26778 -10.26708 -10.26373 -10.26227
 Alpha  occ. eigenvalues --  -10.26221 -10.26196 -10.26111 -10.25739 -10.25738
 Alpha  occ. eigenvalues --  -10.25735 -10.25699 -10.25541 -10.25339 -10.25326
 Alpha  occ. eigenvalues --  -10.25133 -10.25088 -10.24982 -10.24894 -10.24804
 Alpha  occ. eigenvalues --  -10.24633 -10.23920 -10.23668 -10.23462 -10.23261
 Alpha  occ. eigenvalues --  -10.22807 -10.22430  -1.10162  -1.08751  -0.94399
 Alpha  occ. eigenvalues --   -0.93352  -0.92924  -0.91987  -0.90428  -0.89971
 Alpha  occ. eigenvalues --   -0.87049  -0.86424  -0.86177  -0.85437  -0.85112
 Alpha  occ. eigenvalues --   -0.82423  -0.81711  -0.80119  -0.79683  -0.78719
 Alpha  occ. eigenvalues --   -0.77006  -0.76647  -0.76593  -0.76532  -0.75482
 Alpha  occ. eigenvalues --   -0.75179  -0.74896  -0.74240  -0.72711  -0.70863
 Alpha  occ. eigenvalues --   -0.69438  -0.67979  -0.66355  -0.65858  -0.64737
 Alpha  occ. eigenvalues --   -0.63069  -0.62100  -0.61432  -0.60786  -0.59877
 Alpha  occ. eigenvalues --   -0.59623  -0.58898  -0.58575  -0.57094  -0.56188
 Alpha  occ. eigenvalues --   -0.55230  -0.55189  -0.54707  -0.54120  -0.53847
 Alpha  occ. eigenvalues --   -0.52889  -0.52680  -0.52082  -0.51758  -0.50656
 Alpha  occ. eigenvalues --   -0.50467  -0.50207  -0.49867  -0.49626  -0.49443
 Alpha  occ. eigenvalues --   -0.49359  -0.48935  -0.48798  -0.48361  -0.48171
 Alpha  occ. eigenvalues --   -0.47390  -0.47174  -0.47074  -0.46639  -0.46273
 Alpha  occ. eigenvalues --   -0.45609  -0.45073  -0.44997  -0.44726  -0.44362
 Alpha  occ. eigenvalues --   -0.44177  -0.44114  -0.43307  -0.43257  -0.43009
 Alpha  occ. eigenvalues --   -0.42565  -0.42337  -0.42106  -0.41842  -0.41729
 Alpha  occ. eigenvalues --   -0.41313  -0.41092  -0.40907  -0.40391  -0.40310
 Alpha  occ. eigenvalues --   -0.39961  -0.39761  -0.39398  -0.39099  -0.38641
 Alpha  occ. eigenvalues --   -0.38565  -0.38295  -0.38101  -0.38000  -0.37980
 Alpha  occ. eigenvalues --   -0.37476  -0.37361  -0.37039  -0.36599  -0.35794
 Alpha  occ. eigenvalues --   -0.35540  -0.34558  -0.33084  -0.32034  -0.31204
 Alpha  occ. eigenvalues --   -0.30998  -0.29876  -0.29040  -0.27255  -0.23456
 Alpha  occ. eigenvalues --   -0.17726
 Alpha virt. eigenvalues --   -0.07198  -0.01363   0.03245   0.06505   0.07878
 Alpha virt. eigenvalues --    0.09030   0.10330   0.10989   0.11555   0.11883
 Alpha virt. eigenvalues --    0.12172   0.12767   0.13512   0.13592   0.14018

 Mulliken charges:
               1
     1  O   -0.529927
     2  O   -0.579473
     3  C    0.033274
     4  C   -0.131581
     5  C   -0.169353
     6  C    0.150701
     7  C    0.119129
     8  C   -0.061789
     9  C   -0.284031
    10  C   -0.326943
    11  C   -0.167065
    12  C   -0.165034
    13  C    0.164851
    14  C    0.138879
    15  C   -0.077861
    16  C   -0.204173
    17  C    0.053407
    18  C   -0.301915
    19  C   -0.292050
    20  C   -0.335579
    21  C   -0.090246
    22  C   -0.125554
    23  C   -0.373055
    24  C    0.104861
    25  C   -0.125238
    26  C   -0.380647
    27  C    0.091456
    28  C   -0.123740
    29  C   -0.352516
    30  C   -0.138537
    31  C   -0.068341
    32  C   -0.118598
    33  C   -0.144233
    34  C    0.060908
    35  C   -0.056151
    36  C    0.113126
    37  C   -0.355700
    38  C   -0.082915
    39  C   -0.145598
    40  C   -0.373942
    41  C   -0.086555
    42  C   -0.088142
    43  H    0.068682
    44  H    0.111930
    45  H    0.079128
    46  H    0.082249
    47  H    0.077932
    48  H    0.110107
    49  H    0.090887
    50  H    0.123935
    51  H    0.085613
    52  H    0.103279
    53  H    0.111388
    54  H    0.075152
    55  H    0.047591
    56  H    0.082908
    57  H    0.079875
    58  H    0.098824
    59  H    0.133205
    60  H    0.090838
    61  H    0.108317
    62  H    0.101616
    63  H    0.091794
    64  H    0.056813
    65  H    0.101338
    66  H    0.118748
    67  H    0.106152
    68  H    0.106137
    69  H    0.315810
    70  H    0.089370
    71  H    0.066938
    72  H    0.100628
    73  H    0.125250
    74  H    0.096737
    75  H    0.303490
    76  H    0.066635
    77  H    0.094371
    78  H    0.133713
    79  H    0.126466
    80  H    0.061438
    81  H    0.137827
    82  H    0.125254
    83  H    0.093297
    84  H    0.090274
    85  H    0.088492
    86  H    0.081432
    87  H    0.087823
    88  H    0.065023
    89  H    0.127772
    90  H    0.136187
    91  H    0.114426
    92  H    0.070687
    93  H    0.085199
    94  H    0.111220
    95  H    0.104707
    96  H    0.133593
    97  H    0.059710
    98  H    0.087686
 Sum of Mulliken charges =  -0.00000

 Dipole moment (field-independent basis, Debye):
    X=              0.1301    Y=             -1.4729    Z=             -0.1834  Tot=              1.4900
 Quadrupole moment (field-independent basis, Debye-Ang):
   XX=           -241.9878   YY=           -242.0450   ZZ=           -263.4363
   XY=             28.0441   XZ=             28.0755   YZ=              0.6409

 Normal termination of Gaussian 16 at Mon Jul 15 08:20:48 2019.
