 Gaussian 16, Revision A.03,
 Gaussian 16:  ES64L-G16RevA.03 25-Dec-2016

 -------------------------------------
 # td=(NStates=1) CAM-B3LYP/6-31G(d,p)
 -------------------------------------

 --
 TD
 --
 Symbolic Z-matrix:
 Charge =  0 Multiplicity = 1

                         Standard orientation:
 ---------------------------------------------------------------------
 Center     Atomic      Atomic             Coordinates (Angstroms)
 Number     Number       Type             X           Y           Z
 ---------------------------------------------------------------------
      1          8           0      -14.147765   -2.137050    0.473365
      2          8           0       14.767606    1.047987    0.001260
      3          6           0      -11.841728   -0.039330    1.318807
      4          6           0      -10.948103    0.247339    0.002118
      5          6           0      -12.024446   -1.502388    1.437679
      6          6           0      -12.708453   -2.127455    0.217858
      7          6           0      -11.689149   -0.416733   -1.242837
      8          6           0       11.131612    1.028821    1.034633
      9          6           0      -10.880239    0.526705    2.572915
     10          6           0      -13.098876    0.918416    1.316187
     11          6           0       12.498274    1.498712    0.833220
     12          6           0      -12.415603   -1.486425   -1.066436
     13          6           0       13.506486    0.396415    0.312971
     14          6           0       10.606405   -0.027714    0.032376
     15          6           0       -9.471868   -0.196736    0.101410
     16          6           0       12.978996   -0.267044   -0.855922
     17          6           0       11.539704   -0.628509   -0.863863
     18          6           0       10.137589    2.173211    1.070681
     19          6           0       11.211241    0.299572    2.459910
     20          6           0      -11.190983    0.216700   -2.528783
     21          6           0       -8.417133    0.659426   -0.080259
     22          6           0        9.228081   -0.588621    0.212752
     23          6           0       11.243229   -1.609161   -1.810054
     24          6           0       -6.988942    0.425496   -0.062872
     25          6           0        8.718973   -1.825123    0.040248
     26          6           0       -6.557615   -0.869224    0.190430
     27          6           0        7.315895   -2.176668   -0.048037
     28          6           0       -6.137390    1.534367   -0.248591
     29          6           0        7.145377   -3.631080    0.093695
     30          6           0        6.332861   -1.161491   -0.197897
     31          6           0       -4.748660    1.587402   -0.283769
     32          6           0        4.920287   -1.496821   -0.188931
     33          6           0       -4.018308    2.696811   -0.599384
     34          6           0       -2.644448    2.653468   -0.658637
     35          6           0        3.973181   -0.546226   -0.514383
     36          6           0        2.509499   -0.735211   -0.333351
     37          6           0       -2.001863    4.002947   -0.904825
     38          6           0       -1.772512    1.575559   -0.500858
     39          6           0        1.767449    0.363228   -0.645152
     40          6           0        1.995557   -2.134044    0.043058
     41          6           0       -0.349614    1.602814   -0.760062
     42          6           0        0.422688    0.474511   -0.520718
     43          1           0      -11.112462    1.356116    0.006051
     44          1           0      -12.722884   -1.726896    2.303566
     45          1           0      -11.017148   -1.838032    1.828559
     46          1           0      -12.548005   -3.145035   -0.030769
     47          1           0      -10.084565   -0.197975    2.513824
     48          1           0      -10.295196    1.486546    1.995806
     49          1           0      -11.333217    0.913842    3.449927
     50          1           0      -13.800710    0.649398    0.497681
     51          1           0      -13.901697    0.810836    2.146158
     52          1           0      -12.922075    1.873858    1.038083
     53          1           0       12.454098    2.326490    0.107077
     54          1           0       13.081991    1.854338    1.604103
     55          1           0      -12.819466   -2.096268   -1.936059
     56          1           0       13.668234   -0.348328    1.123941
     57          1           0       -9.415247   -1.325577    0.135305
     58          1           0       13.881909   -0.851416   -1.183526
     59          1           0       12.997245    0.587611   -1.552178
     60          1           0        9.245420    1.724056    1.387283
     61          1           0       10.051450    2.602465    0.105395
     62          1           0       10.555322    2.963149    1.783140
     63          1           0       11.850836   -0.478539    2.686546
     64          1           0       10.238627    0.068468    2.960625
     65          1           0       11.665619    1.023082    3.280466
     66          1           0      -10.052730    0.390134   -2.645343
     67          1           0      -11.677963    1.176735   -2.761681
     68          1           0      -11.610746   -0.325789   -3.426965
     69          1           0      -14.643081   -2.660670   -0.342014
     70          1           0        8.457785    0.305033    0.338174
     71          1           0       -8.860265    1.762663   -0.165928
     72          1           0       11.553413   -2.576792   -1.463369
     73          1           0       10.050385   -1.679619   -1.949162
     74          1           0       11.630762   -1.423702   -2.887288
     75          1           0       15.061327    1.219315    1.003507
     76          1           0        9.477470   -2.564678   -0.241561
     77          1           0       -5.465471   -1.332907    0.121601
     78          1           0       -6.656406   -1.161253    1.293079
     79          1           0       -7.262936   -1.568520   -0.530485
     80          1           0       -6.631368    2.558908   -0.516865
     81          1           0        6.403726   -3.757474    0.847243
     82          1           0        6.455067   -4.103784   -0.706495
     83          1           0        7.990932   -4.233646    0.326626
     84          1           0        6.715490   -0.225716   -0.419632
     85          1           0       -4.275923    0.640932   -0.110716
     86          1           0        4.764174   -2.609071    0.302461
     87          1           0       -4.500445    3.716223   -0.752101
     88          1           0        4.424531    0.320721   -0.647688
     89          1           0       -1.316726    3.975446   -1.664915
     90          1           0       -1.355825    4.265549   -0.110520
     91          1           0       -2.563268    4.944514   -1.229946
     92          1           0       -2.342555    0.704403   -0.402782
     93          1           0        2.177694    1.399876   -1.084210
     94          1           0        1.949760   -2.141574    1.337138
     95          1           0        0.978043   -2.334343   -0.618638
     96          1           0        2.739673   -2.893404   -0.287866
     97          1           0        0.214682    2.614129   -0.838220
     98          1           0       -0.170723   -0.416813   -0.065395
 ---------------------------------------------------------------------

 SCF Done:  E(RCAM-B3LYP) =  -1706.93090577     A.U. after   15 cycles

 Excitation energies and oscillator strengths:

 Excited State   1:      Singlet-A      2.1089 eV  587.91 nm  f=3.0178  <S**2>=0.000
     155 ->158         0.15797
     156 ->157         0.68935
 This state for optimization and/or second-order correction.
 Total Energy, E(TD-HF/TD-DFT) =  -1706.85340531
 Copying the excited state density for this state as the 1-particle RhoCI density.

 The electronic state is 1-A.
 Alpha  occ. eigenvalues --  -19.22490 -19.21226 -10.30193 -10.30107 -10.29556
 Alpha  occ. eigenvalues --  -10.28200 -10.27825 -10.27733 -10.27700 -10.27691
 Alpha  occ. eigenvalues --  -10.27504 -10.27440 -10.27428 -10.27379 -10.27377
 Alpha  occ. eigenvalues --  -10.27158 -10.27070 -10.26997 -10.26991 -10.26899
 Alpha  occ. eigenvalues --  -10.26881 -10.26616 -10.26428 -10.26383 -10.26264
 Alpha  occ. eigenvalues --  -10.25942 -10.25915 -10.25885 -10.25789 -10.25689
 Alpha  occ. eigenvalues --  -10.25627 -10.25599 -10.25518 -10.25391 -10.25091
 Alpha  occ. eigenvalues --  -10.24949 -10.24810 -10.24693 -10.24137 -10.23835
 Alpha  occ. eigenvalues --  -10.23823 -10.23304  -1.08209  -1.06267  -0.93852
 Alpha  occ. eigenvalues --   -0.92747  -0.92162  -0.91620  -0.90887  -0.90281
 Alpha  occ. eigenvalues --   -0.88468  -0.87118  -0.85643  -0.85348  -0.84534
 Alpha  occ. eigenvalues --   -0.83187  -0.82159  -0.80920  -0.79932  -0.78114
 Alpha  occ. eigenvalues --   -0.77183  -0.76685  -0.76331  -0.75997  -0.75719
 Alpha  occ. eigenvalues --   -0.75007  -0.74694  -0.73675  -0.72803  -0.70340
 Alpha  occ. eigenvalues --   -0.68912  -0.68017  -0.66246  -0.64539  -0.63895
 Alpha  occ. eigenvalues --   -0.63127  -0.61770  -0.61754  -0.59983  -0.59779
 Alpha  occ. eigenvalues --   -0.59455  -0.58675  -0.58033  -0.57114  -0.55840
 Alpha  occ. eigenvalues --   -0.55374  -0.55035  -0.54386  -0.53983  -0.53651
 Alpha  occ. eigenvalues --   -0.53427  -0.53062  -0.52755  -0.51830  -0.50828
 Alpha  occ. eigenvalues --   -0.50379  -0.50234  -0.49951  -0.49564  -0.49305
 Alpha  occ. eigenvalues --   -0.48599  -0.48413  -0.48260  -0.47927  -0.47633
 Alpha  occ. eigenvalues --   -0.47373  -0.47173  -0.46670  -0.46494  -0.46148
 Alpha  occ. eigenvalues --   -0.45907  -0.45711  -0.45358  -0.45151  -0.45093
 Alpha  occ. eigenvalues --   -0.44415  -0.43956  -0.43866  -0.43472  -0.43199
 Alpha  occ. eigenvalues --   -0.42753  -0.42508  -0.42332  -0.42197  -0.41571
 Alpha  occ. eigenvalues --   -0.41293  -0.41150  -0.41121  -0.40575  -0.40402
 Alpha  occ. eigenvalues --   -0.40137  -0.39920  -0.39800  -0.39316  -0.39158
 Alpha  occ. eigenvalues --   -0.38816  -0.38702  -0.38590  -0.38143  -0.37526
 Alpha  occ. eigenvalues --   -0.37494  -0.37106  -0.37003  -0.36045  -0.35694
 Alpha  occ. eigenvalues --   -0.34836  -0.34374  -0.32811  -0.31848  -0.31590
 Alpha  occ. eigenvalues --   -0.31097  -0.30154  -0.28341  -0.26413  -0.23395
 Alpha  occ. eigenvalues --   -0.19352
 Alpha virt. eigenvalues --   -0.05946  -0.01718   0.02214   0.05657   0.06679
 Alpha virt. eigenvalues --    0.08190   0.09811   0.10381   0.11344   0.11403
 Alpha virt. eigenvalues --    0.12499   0.12598   0.12762   0.13234   0.13667

 Mulliken charges:
               1
     1  O   -0.567420
     2  O   -0.555861
     3  C    0.021173
     4  C   -0.155214
     5  C   -0.184793
     6  C    0.157484
     7  C    0.116091
     8  C    0.000853
     9  C   -0.296947
    10  C   -0.320282
    11  C   -0.168362
    12  C   -0.112231
    13  C    0.120740
    14  C    0.040567
    15  C   -0.097717
    16  C   -0.233871
    17  C    0.093495
    18  C   -0.302308
    19  C   -0.315480
    20  C   -0.369328
    21  C   -0.096062
    22  C   -0.099932
    23  C   -0.391715
    24  C    0.147899
    25  C   -0.133393
    26  C   -0.393833
    27  C    0.099795
    28  C   -0.131912
    29  C   -0.393422
    30  C   -0.111149
    31  C   -0.061019
    32  C   -0.095959
    33  C   -0.109564
    34  C    0.097470
    35  C   -0.091200
    36  C    0.076810
    37  C   -0.403461
    38  C   -0.112387
    39  C   -0.098851
    40  C   -0.343178
    41  C   -0.107255
    42  C   -0.071168
    43  H    0.087980
    44  H    0.115086
    45  H    0.095295
    46  H    0.086888
    47  H    0.106726
    48  H    0.057895
    49  H    0.114359
    50  H    0.106983
    51  H    0.097449
    52  H    0.106915
    53  H    0.092607
    54  H    0.078610
    55  H    0.066232
    56  H    0.078065
    57  H    0.090827
    58  H    0.117402
    59  H    0.130915
    60  H    0.114595
    61  H    0.111256
    62  H    0.093543
    63  H    0.115255
    64  H    0.099683
    65  H    0.063865
    66  H    0.123698
    67  H    0.117517
    68  H    0.095795
    69  H    0.298786
    70  H    0.066691
    71  H    0.083536
    72  H    0.128266
    73  H    0.103717
    74  H    0.105010
    75  H    0.311162
    76  H    0.089048
    77  H    0.107426
    78  H    0.126148
    79  H    0.100711
    80  H    0.072999
    81  H    0.131824
    82  H    0.114233
    83  H    0.125889
    84  H    0.085794
    85  H    0.083116
    86  H    0.070357
    87  H    0.095313
    88  H    0.081994
    89  H    0.128496
    90  H    0.127694
    91  H    0.095410
    92  H    0.072251
    93  H    0.076748
    94  H    0.102219
    95  H    0.108892
    96  H    0.127517
    97  H    0.088164
    98  H    0.078043
 Sum of Mulliken charges =  -0.00000

 Dipole moment (field-independent basis, Debye):
    X=              1.3054    Y=             -1.8054    Z=             -0.0794  Tot=              2.2293
 Quadrupole moment (field-independent basis, Debye-Ang):
   XX=           -276.0522   YY=           -242.4335   ZZ=           -264.0674
   XY=             -0.5410   XZ=             40.6733   YZ=              0.7787

 Normal termination of Gaussian 16 at Mon Jul 15 02:47:18 2019.
