 Gaussian 16, Revision A.03,
 Gaussian 16:  ES64L-G16RevA.03 25-Dec-2016

 -------------------------------------
 # td=(NStates=1) CAM-B3LYP/6-31G(d,p)
 -------------------------------------

 --
 TD
 --
 Symbolic Z-matrix:
 Charge =  0 Multiplicity = 1

                         Standard orientation:
 ---------------------------------------------------------------------
 Center     Atomic      Atomic             Coordinates (Angstroms)
 Number     Number       Type             X           Y           Z
 ---------------------------------------------------------------------
      1          8           0      -13.971090   -2.118020    0.813761
      2          8           0       14.747469    0.896032    0.172296
      3          6           0      -11.723212    0.087759    1.265160
      4          6           0      -11.028724    0.270846   -0.060827
      5          6           0      -11.828328   -1.437540    1.491005
      6          6           0      -12.550748   -2.246477    0.476525
      7          6           0      -11.675125   -0.556471   -1.233699
      8          6           0       10.966102    1.064812    0.911305
      9          6           0      -10.745993    0.719353    2.380029
     10          6           0      -12.978359    0.820502    1.149309
     11          6           0       12.439966    1.541030    0.535216
     12          6           0      -12.333760   -1.680127   -0.862572
     13          6           0       13.474358    0.421570    0.404663
     14          6           0       10.717085   -0.097242    0.001499
     15          6           0       -9.468614   -0.061427   -0.158284
     16          6           0       13.051197   -0.377073   -0.930340
     17          6           0       11.578714   -0.657773   -0.874836
     18          6           0       10.076625    2.279907    0.866418
     19          6           0       11.022378    0.577647    2.460118
     20          6           0      -11.461626   -0.068494   -2.641822
     21          6           0       -8.422781    0.804935   -0.320311
     22          6           0        9.196563   -0.469639    0.088865
     23          6           0       11.330338   -1.713530   -1.914708
     24          6           0       -7.021080    0.555773   -0.196029
     25          6           0        8.700112   -1.748969   -0.080257
     26          6           0       -6.710860   -0.916308    0.110115
     27          6           0        7.350986   -2.170255    0.159405
     28          6           0       -6.232670    1.602383   -0.476820
     29          6           0        7.139596   -3.634526    0.361694
     30          6           0        6.329990   -1.183889   -0.038327
     31          6           0       -4.772572    1.605047   -0.522883
     32          6           0        4.951662   -1.529900    0.023491
     33          6           0       -4.020442    2.745803   -0.730293
     34          6           0       -2.577138    2.760264   -0.608555
     35          6           0        3.958962   -0.594353   -0.181003
     36          6           0        2.544611   -0.782410   -0.243719
     37          6           0       -1.891298    4.177178   -0.645392
     38          6           0       -1.801859    1.616258   -0.582894
     39          6           0        1.663028    0.340897   -0.401303
     40          6           0        1.923836   -2.250685   -0.137924
     41          6           0       -0.371208    1.490053   -0.502421
     42          6           0        0.340559    0.400864   -0.217611
     43          1           0      -10.944806    1.142649   -0.662961
     44          1           0      -12.313315   -1.763142    2.194103
     45          1           0      -10.807554   -1.627414    1.764893
     46          1           0      -12.124469   -3.172893    0.417936
     47          1           0       -9.884870    0.326881    2.248576
     48          1           0      -10.711497    1.772497    2.043463
     49          1           0      -11.199403    0.596772    3.311906
     50          1           0      -13.594887    0.317192    0.424092
     51          1           0      -13.561146    0.807127    2.090570
     52          1           0      -12.889693    1.808500    1.032359
     53          1           0       12.350099    2.153079   -0.395638
     54          1           0       13.025300    2.305768    1.230273
     55          1           0      -12.664609   -2.256491   -1.697859
     56          1           0       13.653036   -0.218307    1.270570
     57          1           0       -9.372570   -1.082194    0.113345
     58          1           0       13.788677   -1.336396   -0.955185
     59          1           0       13.298742    0.090094   -1.855693
     60          1           0        8.961736    2.113259    1.099983
     61          1           0        9.932309    2.731016   -0.111336
     62          1           0       10.450219    3.249582    1.647365
     63          1           0       11.713814   -0.390229    2.478697
     64          1           0        9.981747    0.260209    2.820040
     65          1           0       11.200599    1.486670    3.096000
     66          1           0      -10.432019    0.174426   -2.749965
     67          1           0      -11.872216    0.889173   -2.779671
     68          1           0      -11.845957   -0.827391   -3.369182
     69          1           0      -14.559909   -2.642206    0.054433
     70          1           0        8.458202    0.280851    0.093447
     71          1           0       -8.752702    2.001625   -0.417420
     72          1           0       11.679288   -2.910684   -1.604167
     73          1           0       10.256863   -1.833142   -2.193357
     74          1           0       11.783267   -1.223207   -2.901541
     75          1           0       15.015419    1.205856    0.988511
     76          1           0        9.670757   -2.470044   -0.170678
     77          1           0       -5.560945   -1.140182   -0.341300
     78          1           0       -6.893942   -1.063159    1.369885
     79          1           0       -7.485845   -1.706889   -0.211312
     80          1           0       -6.818879    2.615007   -0.689950
     81          1           0        6.614950   -3.860545    1.194524
     82          1           0        6.491729   -4.052308   -0.397762
     83          1           0        8.183999   -4.169393    0.206259
     84          1           0        6.489122   -0.262099    0.052959
     85          1           0       -4.359587    0.601618   -0.281241
     86          1           0        4.711840   -2.555409    0.153859
     87          1           0       -4.539827    3.616348   -0.862806
     88          1           0        4.118206    0.380996   -0.413194
     89          1           0       -0.930474    4.100484   -1.432296
     90          1           0       -1.445654    4.500749    0.328727
     91          1           0       -2.850406    4.690178   -0.908997
     92          1           0       -2.200898    0.560671   -0.625265
     93          1           0        2.018013    1.383950   -0.653461
     94          1           0        2.002696   -2.625515    0.876414
     95          1           0        0.880022   -2.415814   -0.664186
     96          1           0        2.979548   -2.999748   -0.685867
     97          1           0        0.181753    2.580207   -0.727266
     98          1           0       -0.326523   -0.597480   -0.463992
 ---------------------------------------------------------------------

 SCF Done:  E(RCAM-B3LYP) =  -1706.80681179     A.U. after   15 cycles

 Excitation energies and oscillator strengths:

 Excited State   1:      Singlet-A      2.1501 eV  576.64 nm  f=2.9228  <S**2>=0.000
     155 ->158         0.15361
     156 ->157         0.68900
 This state for optimization and/or second-order correction.
 Total Energy, E(TD-HF/TD-DFT) =  -1706.72779615
 Copying the excited state density for this state as the 1-particle RhoCI density.

 The electronic state is 1-A.
 Alpha  occ. eigenvalues --  -19.22560 -19.20238 -10.30197 -10.30190 -10.29782
 Alpha  occ. eigenvalues --  -10.29152 -10.28384 -10.28367 -10.28342 -10.28081
 Alpha  occ. eigenvalues --  -10.28004 -10.27923 -10.27720 -10.27642 -10.27587
 Alpha  occ. eigenvalues --  -10.27539 -10.27533 -10.27187 -10.27140 -10.26899
 Alpha  occ. eigenvalues --  -10.26808 -10.26750 -10.26568 -10.26523 -10.26433
 Alpha  occ. eigenvalues --  -10.26415 -10.26397 -10.26292 -10.26210 -10.25973
 Alpha  occ. eigenvalues --  -10.25958 -10.25777 -10.25741 -10.25665 -10.25581
 Alpha  occ. eigenvalues --  -10.25450 -10.24977 -10.24871 -10.23535 -10.22390
 Alpha  occ. eigenvalues --  -10.22335 -10.21253  -1.11907  -1.06983  -0.93634
 Alpha  occ. eigenvalues --   -0.92896  -0.92162  -0.91573  -0.90855  -0.89660
 Alpha  occ. eigenvalues --   -0.87469  -0.86723  -0.86345  -0.85159  -0.84065
 Alpha  occ. eigenvalues --   -0.83189  -0.81924  -0.80325  -0.79558  -0.78158
 Alpha  occ. eigenvalues --   -0.77620  -0.76564  -0.76059  -0.75854  -0.74933
 Alpha  occ. eigenvalues --   -0.74848  -0.74337  -0.73514  -0.72623  -0.70441
 Alpha  occ. eigenvalues --   -0.69318  -0.68194  -0.66769  -0.65676  -0.64067
 Alpha  occ. eigenvalues --   -0.63863  -0.62727  -0.62169  -0.60352  -0.59782
 Alpha  occ. eigenvalues --   -0.58872  -0.58495  -0.58285  -0.57525  -0.56075
 Alpha  occ. eigenvalues --   -0.55291  -0.55095  -0.54831  -0.54243  -0.53819
 Alpha  occ. eigenvalues --   -0.53272  -0.52962  -0.52395  -0.51406  -0.51061
 Alpha  occ. eigenvalues --   -0.50490  -0.50190  -0.49613  -0.49274  -0.49170
 Alpha  occ. eigenvalues --   -0.48810  -0.48299  -0.48265  -0.48063  -0.47680
 Alpha  occ. eigenvalues --   -0.47407  -0.47106  -0.46580  -0.46476  -0.46254
 Alpha  occ. eigenvalues --   -0.45677  -0.45510  -0.45321  -0.44815  -0.44696
 Alpha  occ. eigenvalues --   -0.44510  -0.44144  -0.44039  -0.43892  -0.43395
 Alpha  occ. eigenvalues --   -0.43225  -0.43111  -0.42532  -0.41848  -0.41800
 Alpha  occ. eigenvalues --   -0.41548  -0.41457  -0.41016  -0.40890  -0.40557
 Alpha  occ. eigenvalues --   -0.40055  -0.40042  -0.39390  -0.39374  -0.39159
 Alpha  occ. eigenvalues --   -0.39122  -0.38726  -0.38306  -0.37660  -0.37413
 Alpha  occ. eigenvalues --   -0.37073  -0.36958  -0.35895  -0.35582  -0.35441
 Alpha  occ. eigenvalues --   -0.34583  -0.33885  -0.33500  -0.33027  -0.31488
 Alpha  occ. eigenvalues --   -0.31401  -0.29521  -0.28458  -0.27033  -0.24005
 Alpha  occ. eigenvalues --   -0.19543
 Alpha virt. eigenvalues --   -0.06003  -0.01515   0.02307   0.05704   0.06839
 Alpha virt. eigenvalues --    0.07816   0.09070   0.10378   0.10846   0.11213
 Alpha virt. eigenvalues --    0.11606   0.11821   0.12136   0.12422   0.12871

 Mulliken charges:
               1
     1  O   -0.559773
     2  O   -0.535658
     3  C   -0.019159
     4  C   -0.105503
     5  C   -0.139524
     6  C    0.133058
     7  C    0.090649
     8  C   -0.000191
     9  C   -0.292009
    10  C   -0.282890
    11  C   -0.182054
    12  C   -0.140130
    13  C    0.157883
    14  C    0.049193
    15  C   -0.131233
    16  C   -0.216343
    17  C    0.064004
    18  C   -0.301028
    19  C   -0.292402
    20  C   -0.364799
    21  C   -0.099620
    22  C   -0.108678
    23  C   -0.345699
    24  C    0.166378
    25  C   -0.114916
    26  C   -0.352733
    27  C    0.066702
    28  C   -0.145222
    29  C   -0.376493
    30  C   -0.068603
    31  C   -0.066340
    32  C   -0.091871
    33  C   -0.113287
    34  C    0.069280
    35  C   -0.085866
    36  C    0.079653
    37  C   -0.348610
    38  C   -0.110508
    39  C   -0.127588
    40  C   -0.340125
    41  C   -0.066142
    42  C   -0.073245
    43  H    0.079629
    44  H    0.103319
    45  H    0.086310
    46  H    0.100904
    47  H    0.109186
    48  H    0.093661
    49  H    0.104761
    50  H    0.121368
    51  H    0.083525
    52  H    0.096875
    53  H    0.103756
    54  H    0.047014
    55  H    0.046750
    56  H    0.079029
    57  H    0.079953
    58  H    0.088888
    59  H    0.127106
    60  H    0.094205
    61  H    0.112031
    62  H    0.073507
    63  H    0.095163
    64  H    0.099653
    65  H    0.103970
    66  H    0.126896
    67  H    0.125908
    68  H    0.109424
    69  H    0.308403
    70  H    0.088992
    71  H    0.062210
    72  H    0.089914
    73  H    0.118153
    74  H    0.097786
    75  H    0.292348
    76  H    0.078411
    77  H    0.092077
    78  H    0.098223
    79  H    0.133635
    80  H    0.081141
    81  H    0.137620
    82  H    0.128090
    83  H    0.107451
    84  H    0.068718
    85  H    0.091431
    86  H    0.073581
    87  H    0.086936
    88  H    0.074238
    89  H    0.105070
    90  H    0.133636
    91  H    0.108633
    92  H    0.070919
    93  H    0.082152
    94  H    0.138902
    95  H    0.114489
    96  H    0.045932
    97  H    0.053566
    98  H    0.065994
 Sum of Mulliken charges =  -0.00000

 Dipole moment (field-independent basis, Debye):
    X=             -1.3129    Y=             -0.8413    Z=             -0.1312  Tot=              1.5648
 Quadrupole moment (field-independent basis, Debye-Ang):
   XX=           -281.1045   YY=           -241.9968   ZZ=           -265.0375
   XY=             10.2736   XZ=             33.3892   YZ=              1.2260

 Normal termination of Gaussian 16 at Mon Jul 15 22:44:08 2019.
