 Gaussian 16, Revision A.03,
 Gaussian 16:  ES64L-G16RevA.03 25-Dec-2016

 -------------------------------------
 # td=(NStates=1) CAM-B3LYP/6-31G(d,p)
 -------------------------------------

 --
 TD
 --
 Symbolic Z-matrix:
 Charge =  0 Multiplicity = 1

                         Standard orientation:
 ---------------------------------------------------------------------
 Center     Atomic      Atomic             Coordinates (Angstroms)
 Number     Number       Type             X           Y           Z
 ---------------------------------------------------------------------
      1          8           0      -14.159947   -1.866243    0.415459
      2          8           0       14.822626    0.962509    0.127000
      3          6           0      -11.773815    0.068537    1.307118
      4          6           0      -11.089843    0.377049   -0.003665
      5          6           0      -11.997043   -1.517883    1.284179
      6          6           0      -12.708091   -2.106764    0.197301
      7          6           0      -11.584432   -0.445745   -1.276539
      8          6           0       11.112840    0.882941    1.136769
      9          6           0      -10.993468    0.425293    2.488929
     10          6           0      -13.139705    0.791369    1.172659
     11          6           0       12.612576    1.366287    0.917840
     12          6           0      -12.313063   -1.530334   -1.095640
     13          6           0       13.571726    0.372985    0.280634
     14          6           0       10.673468    0.028889   -0.005150
     15          6           0       -9.580443   -0.037067    0.049134
     16          6           0       13.013299   -0.116093   -1.046165
     17          6           0       11.479365   -0.422532   -1.004733
     18          6           0       10.238772    2.187637    1.298653
     19          6           0       11.049312    0.110940    2.474268
     20          6           0      -11.151236    0.085346   -2.601410
     21          6           0       -8.490726    0.815049   -0.088159
     22          6           0        9.263222   -0.449391    0.061668
     23          6           0       11.129659   -1.188271   -2.302655
     24          6           0       -7.112220    0.410160   -0.067295
     25          6           0        8.798396   -1.725475   -0.118186
     26          6           0       -6.771338   -0.984654    0.294618
     27          6           0        7.348050   -2.165183   -0.105802
     28          6           0       -6.184567    1.456268   -0.240698
     29          6           0        7.208417   -3.639423    0.296345
     30          6           0        6.354484   -1.287289   -0.428214
     31          6           0       -4.846068    1.457775   -0.154357
     32          6           0        4.975432   -1.483505   -0.242542
     33          6           0       -4.024819    2.556583   -0.540447
     34          6           0       -2.592573    2.685287   -0.577902
     35          6           0        3.966534   -0.567192   -0.370859
     36          6           0        2.648099   -0.732292   -0.239881
     37          6           0       -2.131041    3.988049   -1.000880
     38          6           0       -1.723882    1.513192   -0.336829
     39          6           0        1.823538    0.388264   -0.483766
     40          6           0        2.129207   -2.076762    0.274914
     41          6           0       -0.344360    1.592557   -0.588291
     42          6           0        0.419310    0.431686   -0.350461
     43          1           0      -11.018742    1.570296   -0.117891
     44          1           0      -12.603429   -1.969070    2.124542
     45          1           0      -11.047206   -2.021410    1.197172
     46          1           0      -12.565416   -3.090297    0.154572
     47          1           0      -10.077522   -0.196325    2.535885
     48          1           0      -10.509676    1.493744    2.424589
     49          1           0      -11.837288    0.523562    3.153101
     50          1           0      -13.943750    0.515848    0.384497
     51          1           0      -13.600413    0.604554    2.175431
     52          1           0      -12.787333    1.969054    1.142424
     53          1           0       12.554806    2.100417    0.143547
     54          1           0       12.864237    1.664648    1.980216
     55          1           0      -12.424613   -2.188095   -2.053732
     56          1           0       13.833494   -0.564480    1.182850
     57          1           0       -9.462181   -1.080845   -0.011686
     58          1           0       13.414230   -0.903774   -1.404599
     59          1           0       13.181658    0.667330   -1.835490
     60          1           0        9.325782    1.886076    1.891739
     61          1           0       10.011409    2.810248    0.449897
     62          1           0       10.708131    2.750161    1.687807
     63          1           0       11.844130   -0.737369    2.547911
     64          1           0       10.077420   -0.450328    2.789160
     65          1           0       11.122587    0.825563    3.386619
     66          1           0       -9.999998    0.191046   -2.924506
     67          1           0      -11.763355    0.964865   -2.707017
     68          1           0      -11.666609   -0.376687   -3.464364
     69          1           0      -14.602081   -2.183445   -0.290544
     70          1           0        8.494928    0.228313    0.568435
     71          1           0       -8.804242    1.772449   -0.095306
     72          1           0       11.369746   -2.260878   -2.262101
     73          1           0       10.065703   -1.049225   -2.709348
     74          1           0       11.712116   -0.914451   -3.267845
     75          1           0       15.331758    1.141351    0.946451
     76          1           0        9.586839   -2.501976   -0.187302
     77          1           0       -5.699780   -1.124581    0.241992
     78          1           0       -7.158417   -1.227815    1.259913
     79          1           0       -7.257768   -1.808809   -0.390213
     80          1           0       -6.823724    2.293626   -0.312108
     81          1           0        7.101781   -3.955664    1.407506
     82          1           0        6.380341   -4.171865   -0.276807
     83          1           0        8.122745   -4.237504    0.080758
     84          1           0        6.746868   -0.373404   -0.520126
     85          1           0       -4.052971    0.545633    0.132644
     86          1           0        4.764618   -2.319490    0.321124
     87          1           0       -4.613442    3.504144   -0.805773
     88          1           0        4.292445    0.445688   -0.644080
     89          1           0       -1.749405    4.111152   -2.005425
     90          1           0       -1.343388    4.390553   -0.279465
     91          1           0       -2.932350    4.753550   -0.950167
     92          1           0       -2.091028    0.340701   -0.084728
     93          1           0        2.566342    1.280401   -0.799076
     94          1           0        2.545078   -2.247889    1.213327
     95          1           0        1.103072   -2.288972    0.244285
     96          1           0        2.333350   -3.036114   -0.475286
     97          1           0        0.125977    2.653696   -0.778516
     98          1           0       -0.024739   -0.585769   -0.041599
 ---------------------------------------------------------------------

 SCF Done:  E(RCAM-B3LYP) =  -1706.88122753     A.U. after   16 cycles

 Excitation energies and oscillator strengths:

 Excited State   1:      Singlet-A      1.8562 eV  667.96 nm  f=3.0144  <S**2>=0.000
     155 ->158        -0.12516
     156 ->157         0.70320
     156 <-157        -0.12218
 This state for optimization and/or second-order correction.
 Total Energy, E(TD-HF/TD-DFT) =  -1706.81301512
 Copying the excited state density for this state as the 1-particle RhoCI density.

 The electronic state is 1-A.
 Alpha  occ. eigenvalues --  -19.20833 -19.19615 -10.32426 -10.29064 -10.28557
 Alpha  occ. eigenvalues --  -10.28383 -10.27837 -10.27802 -10.27611 -10.27607
 Alpha  occ. eigenvalues --  -10.27521 -10.27437 -10.27405 -10.27388 -10.27357
 Alpha  occ. eigenvalues --  -10.27327 -10.26987 -10.26832 -10.26569 -10.26429
 Alpha  occ. eigenvalues --  -10.26390 -10.26336 -10.26201 -10.26128 -10.26094
 Alpha  occ. eigenvalues --  -10.26032 -10.26013 -10.25977 -10.25627 -10.25604
 Alpha  occ. eigenvalues --  -10.25541 -10.25250 -10.25124 -10.25025 -10.24999
 Alpha  occ. eigenvalues --  -10.24978 -10.24772 -10.24647 -10.24587 -10.24508
 Alpha  occ. eigenvalues --  -10.24259 -10.22541  -1.09563  -1.09051  -0.93987
 Alpha  occ. eigenvalues --   -0.92924  -0.92275  -0.91595  -0.90313  -0.89407
 Alpha  occ. eigenvalues --   -0.87475  -0.86870  -0.86675  -0.85748  -0.84617
 Alpha  occ. eigenvalues --   -0.83876  -0.81982  -0.80630  -0.79728  -0.78431
 Alpha  occ. eigenvalues --   -0.77720  -0.76949  -0.76861  -0.76114  -0.75322
 Alpha  occ. eigenvalues --   -0.75225  -0.75153  -0.74287  -0.72727  -0.70188
 Alpha  occ. eigenvalues --   -0.68226  -0.67567  -0.66289  -0.65540  -0.63856
 Alpha  occ. eigenvalues --   -0.63023  -0.62090  -0.61209  -0.60509  -0.60200
 Alpha  occ. eigenvalues --   -0.59100  -0.58820  -0.57369  -0.56942  -0.56013
 Alpha  occ. eigenvalues --   -0.55812  -0.55533  -0.54847  -0.54511  -0.54287
 Alpha  occ. eigenvalues --   -0.53612  -0.52798  -0.52524  -0.51654  -0.51098
 Alpha  occ. eigenvalues --   -0.50764  -0.50152  -0.49811  -0.49465  -0.48822
 Alpha  occ. eigenvalues --   -0.48760  -0.48678  -0.48272  -0.47864  -0.47669
 Alpha  occ. eigenvalues --   -0.47423  -0.46988  -0.46522  -0.46262  -0.46152
 Alpha  occ. eigenvalues --   -0.45846  -0.45708  -0.44786  -0.44573  -0.44444
 Alpha  occ. eigenvalues --   -0.43856  -0.43457  -0.43245  -0.43052  -0.42958
 Alpha  occ. eigenvalues --   -0.42719  -0.42574  -0.42254  -0.42147  -0.41952
 Alpha  occ. eigenvalues --   -0.41660  -0.41552  -0.40995  -0.40874  -0.40651
 Alpha  occ. eigenvalues --   -0.40286  -0.40213  -0.39800  -0.39751  -0.39670
 Alpha  occ. eigenvalues --   -0.39387  -0.38927  -0.38689  -0.38516  -0.37291
 Alpha  occ. eigenvalues --   -0.36972  -0.36256  -0.36019  -0.35826  -0.35382
 Alpha  occ. eigenvalues --   -0.35328  -0.34481  -0.33396  -0.32623  -0.31780
 Alpha  occ. eigenvalues --   -0.30806  -0.30038  -0.28938  -0.26566  -0.23517
 Alpha  occ. eigenvalues --   -0.18327
 Alpha virt. eigenvalues --   -0.06816  -0.00957   0.02808   0.05512   0.07068
 Alpha virt. eigenvalues --    0.09234   0.10321   0.10573   0.11267   0.12328
 Alpha virt. eigenvalues --    0.13060   0.13278   0.13645   0.13743   0.14164

 Mulliken charges:
               1
     1  O   -0.553477
     2  O   -0.560910
     3  C    0.030310
     4  C   -0.129704
     5  C   -0.191036
     6  C    0.151071
     7  C    0.128678
     8  C   -0.033521
     9  C   -0.283612
    10  C   -0.280173
    11  C   -0.185779
    12  C   -0.156129
    13  C    0.200022
    14  C    0.092685
    15  C   -0.111888
    16  C   -0.206081
    17  C    0.028532
    18  C   -0.260437
    19  C   -0.312110
    20  C   -0.366197
    21  C   -0.100523
    22  C   -0.130415
    23  C   -0.374015
    24  C    0.112476
    25  C   -0.111617
    26  C   -0.373696
    27  C    0.079749
    28  C   -0.103024
    29  C   -0.383231
    30  C   -0.086819
    31  C   -0.071509
    32  C   -0.096381
    33  C   -0.128072
    34  C    0.092372
    35  C   -0.126926
    36  C    0.149360
    37  C   -0.393751
    38  C   -0.112593
    39  C   -0.124668
    40  C   -0.372690
    41  C   -0.069670
    42  C   -0.112896
    43  H    0.069342
    44  H    0.104239
    45  H    0.092903
    46  H    0.096746
    47  H    0.116904
    48  H    0.079733
    49  H    0.108730
    50  H    0.132037
    51  H    0.090149
    52  H    0.057727
    53  H    0.106981
    54  H    0.084603
    55  H    0.065958
    56  H    0.005116
    57  H    0.081322
    58  H    0.119700
    59  H    0.118350
    60  H    0.095415
    61  H    0.097900
    62  H    0.092772
    63  H    0.100750
    64  H    0.101126
    65  H    0.088293
    66  H    0.122050
    67  H    0.127551
    68  H    0.103428
    69  H    0.288351
    70  H    0.083932
    71  H    0.073369
    72  H    0.120837
    73  H    0.120499
    74  H    0.097133
    75  H    0.313820
    76  H    0.086759
    77  H    0.111907
    78  H    0.131218
    79  H    0.101221
    80  H    0.085367
    81  H    0.112280
    82  H    0.111712
    83  H    0.111392
    84  H    0.070325
    85  H    0.072952
    86  H    0.082384
    87  H    0.071719
    88  H    0.073040
    89  H    0.135626
    90  H    0.114774
    91  H    0.116808
    92  H    0.084332
    93  H    0.075909
    94  H    0.137224
    95  H    0.113403
    96  H    0.088825
    97  H    0.100040
    98  H    0.091312
 Sum of Mulliken charges =  -0.00000

 Dipole moment (field-independent basis, Debye):
    X=              0.6660    Y=             -0.8307    Z=              0.0450  Tot=              1.0657
 Quadrupole moment (field-independent basis, Debye-Ang):
   XX=           -268.9778   YY=           -241.5155   ZZ=           -260.9854
   XY=              9.9623   XZ=             39.2499   YZ=             -0.1213

 Normal termination of Gaussian 16 at Sun Jul 14 11:26:04 2019.
