 Gaussian 16, Revision A.03,
 Gaussian 16:  ES64L-G16RevA.03 25-Dec-2016

 -------------------------------------
 # td=(NStates=1) CAM-B3LYP/6-31G(d,p)
 -------------------------------------

 --
 TD
 --
 Symbolic Z-matrix:
 Charge =  0 Multiplicity = 1

                         Standard orientation:
 ---------------------------------------------------------------------
 Center     Atomic      Atomic             Coordinates (Angstroms)
 Number     Number       Type             X           Y           Z
 ---------------------------------------------------------------------
      1          8           0      -14.285334   -1.923299    0.458260
      2          8           0       14.820206    0.990031   -0.146166
      3          6           0      -11.799885    0.075404    1.272729
      4          6           0      -11.035702    0.227608   -0.053441
      5          6           0      -12.066461   -1.380435    1.413950
      6          6           0      -12.850070   -2.097792    0.305575
      7          6           0      -11.584885   -0.542457   -1.242565
      8          6           0       11.209431    0.878912    1.050828
      9          6           0      -10.997487    0.653074    2.398600
     10          6           0      -13.142728    0.911750    1.152219
     11          6           0       12.629589    1.441000    0.759864
     12          6           0      -12.436056   -1.622879   -1.050515
     13          6           0       13.606245    0.381135    0.240903
     14          6           0       10.720881   -0.075557   -0.050787
     15          6           0       -9.497462   -0.119643    0.074434
     16          6           0       13.074020   -0.237646   -1.020691
     17          6           0       11.603461   -0.725710   -0.909180
     18          6           0       10.267868    2.104617    1.070363
     19          6           0       11.200619    0.184009    2.537386
     20          6           0      -11.164255   -0.081959   -2.623159
     21          6           0       -8.577590    0.750802   -0.081916
     22          6           0        9.274396   -0.491156    0.014029
     23          6           0       11.189653   -1.617655   -2.021080
     24          6           0       -7.131885    0.471219   -0.148364
     25          6           0        8.671763   -1.672923   -0.017655
     26          6           0       -6.667191   -0.968845    0.110462
     27          6           0        7.369435   -2.082255    0.104722
     28          6           0       -6.179827    1.533758   -0.335495
     29          6           0        7.130248   -3.508181    0.254010
     30          6           0        6.391745   -1.132817   -0.065781
     31          6           0       -4.769091    1.411672   -0.294197
     32          6           0        4.979927   -1.463736   -0.016104
     33          6           0       -4.080136    2.507323   -0.560831
     34          6           0       -2.622284    2.602171   -0.751897
     35          6           0        4.022667   -0.437634   -0.240159
     36          6           0        2.588418   -0.588393   -0.155872
     37          6           0       -2.085577    4.044061   -1.018673
     38          6           0       -1.782113    1.611330   -0.400426
     39          6           0        1.754236    0.426516   -0.356216
     40          6           0        2.062045   -1.988541    0.170332
     41          6           0       -0.404995    1.571202   -0.504622
     42          6           0        0.421190    0.380757   -0.223639
     43          1           0      -10.808013    1.168724   -0.555615
     44          1           0      -12.934349   -1.595211    2.325666
     45          1           0      -11.064760   -1.961363    1.541118
     46          1           0      -12.611297   -3.089504    0.348069
     47          1           0       -9.869450    0.226462    2.559003
     48          1           0      -10.781622    1.798864    2.277804
     49          1           0      -11.540265    0.252067    3.518249
     50          1           0      -13.730662    0.482801    0.173637
     51          1           0      -13.673975    0.772142    2.191339
     52          1           0      -13.098794    1.927272    1.003798
     53          1           0       12.573631    2.264390   -0.131172
     54          1           0       13.074946    1.907611    1.703762
     55          1           0      -12.795212   -2.287484   -1.753110
     56          1           0       13.781210   -0.317147    1.104891
     57          1           0       -9.457448   -1.126923    0.228023
     58          1           0       13.677054   -1.125652   -1.517895
     59          1           0       12.836765    0.505699   -1.866570
     60          1           0        9.362605    2.237798    1.554673
     61          1           0       10.188712    2.593865   -0.003805
     62          1           0       10.893020    2.882779    1.675559
     63          1           0       12.095142   -0.538141    2.662009
     64          1           0       10.162993   -0.256492    2.765859
     65          1           0       11.159787    1.101159    3.286956
     66          1           0      -10.130227   -0.091426   -2.683355
     67          1           0      -11.704045    0.812027   -2.931162
     68          1           0      -11.531433   -0.824961   -3.443824
     69          1           0      -14.729052   -2.327465   -0.422619
     70          1           0        8.695723    0.369772    0.425580
     71          1           0       -8.876063    1.811114   -0.333764
     72          1           0       11.698050   -2.700984   -1.816295
     73          1           0       10.107827   -1.626575   -2.237740
     74          1           0       11.558276   -1.213619   -2.956301
     75          1           0       15.304969    1.383238    0.674576
     76          1           0        9.370433   -2.477322   -0.168672
     77          1           0       -5.595082   -1.197003    0.377635
     78          1           0       -7.136164   -1.334719    0.984947
     79          1           0       -6.818193   -1.536910   -0.926693
     80          1           0       -6.647889    2.462008   -0.600963
     81          1           0        7.025919   -3.978264    1.409727
     82          1           0        6.412215   -3.950116   -0.425614
     83          1           0        8.157047   -3.984512   -0.067250
     84          1           0        6.715512   -0.040865   -0.128122
     85          1           0       -4.494426    0.461871   -0.238718
     86          1           0        4.751740   -2.467637   -0.019380
     87          1           0       -4.593016    3.552518   -0.723043
     88          1           0        4.461010    0.597171   -0.295010
     89          1           0       -1.364852    4.280753   -1.941820
     90          1           0       -1.289089    4.445226   -0.095807
     91          1           0       -2.862369    4.599567   -1.077046
     92          1           0       -2.227921    0.603356   -0.029969
     93          1           0        2.090533    1.313467   -0.678897
     94          1           0        2.686255   -2.423466    1.090157
     95          1           0        1.001777   -2.099608   -0.019859
     96          1           0        2.442013   -2.772436   -0.593605
     97          1           0        0.145536    2.440703   -0.705755
     98          1           0       -0.096961   -0.435078    0.286810
 ---------------------------------------------------------------------

 SCF Done:  E(RCAM-B3LYP) =  -1706.94385908     A.U. after   15 cycles

 Excitation energies and oscillator strengths:

 Excited State   1:      Singlet-A      2.1493 eV  576.85 nm  f=3.0859  <S**2>=0.000
     155 ->158         0.14806
     156 ->157         0.69243
 This state for optimization and/or second-order correction.
 Total Energy, E(TD-HF/TD-DFT) =  -1706.86487292
 Copying the excited state density for this state as the 1-particle RhoCI density.

 The electronic state is 1-A.
 Alpha  occ. eigenvalues --  -19.21538 -19.21494 -10.31060 -10.29341 -10.28747
 Alpha  occ. eigenvalues --  -10.27868 -10.27407 -10.27401 -10.27390 -10.27255
 Alpha  occ. eigenvalues --  -10.27245 -10.27179 -10.27090 -10.27077 -10.26957
 Alpha  occ. eigenvalues --  -10.26941 -10.26926 -10.26906 -10.26869 -10.26867
 Alpha  occ. eigenvalues --  -10.26745 -10.26607 -10.26523 -10.26322 -10.26305
 Alpha  occ. eigenvalues --  -10.26172 -10.26139 -10.26133 -10.26049 -10.26000
 Alpha  occ. eigenvalues --  -10.25998 -10.25935 -10.25891 -10.25545 -10.25524
 Alpha  occ. eigenvalues --  -10.25393 -10.25000 -10.24729 -10.24449 -10.24437
 Alpha  occ. eigenvalues --  -10.24351 -10.24195  -1.08743  -1.06811  -0.93599
 Alpha  occ. eigenvalues --   -0.92951  -0.92409  -0.91643  -0.91301  -0.89541
 Alpha  occ. eigenvalues --   -0.87278  -0.86341  -0.86202  -0.85669  -0.84035
 Alpha  occ. eigenvalues --   -0.83042  -0.81854  -0.80473  -0.79946  -0.78525
 Alpha  occ. eigenvalues --   -0.75856  -0.75762  -0.75462  -0.75292  -0.74944
 Alpha  occ. eigenvalues --   -0.74676  -0.74205  -0.73277  -0.72936  -0.70395
 Alpha  occ. eigenvalues --   -0.68811  -0.67482  -0.66421  -0.64810  -0.63731
 Alpha  occ. eigenvalues --   -0.63578  -0.63005  -0.62572  -0.61645  -0.60428
 Alpha  occ. eigenvalues --   -0.59487  -0.58271  -0.58013  -0.57421  -0.56446
 Alpha  occ. eigenvalues --   -0.55839  -0.54420  -0.54390  -0.53865  -0.53740
 Alpha  occ. eigenvalues --   -0.53204  -0.52659  -0.52507  -0.51291  -0.50512
 Alpha  occ. eigenvalues --   -0.50369  -0.50004  -0.49620  -0.49349  -0.49223
 Alpha  occ. eigenvalues --   -0.49140  -0.48856  -0.48525  -0.48114  -0.47460
 Alpha  occ. eigenvalues --   -0.47244  -0.46838  -0.46329  -0.45951  -0.45730
 Alpha  occ. eigenvalues --   -0.45353  -0.45011  -0.44780  -0.44353  -0.44110
 Alpha  occ. eigenvalues --   -0.43956  -0.43772  -0.43452  -0.42987  -0.42539
 Alpha  occ. eigenvalues --   -0.42476  -0.42308  -0.42043  -0.41934  -0.41550
 Alpha  occ. eigenvalues --   -0.41530  -0.41347  -0.41192  -0.41120  -0.40563
 Alpha  occ. eigenvalues --   -0.40087  -0.39877  -0.39768  -0.39122  -0.38977
 Alpha  occ. eigenvalues --   -0.38765  -0.38706  -0.38472  -0.38054  -0.37898
 Alpha  occ. eigenvalues --   -0.37722  -0.37517  -0.36773  -0.36093  -0.35769
 Alpha  occ. eigenvalues --   -0.34889  -0.34670  -0.34121  -0.32639  -0.32039
 Alpha  occ. eigenvalues --   -0.32035  -0.28833  -0.28238  -0.26293  -0.23460
 Alpha  occ. eigenvalues --   -0.19295
 Alpha virt. eigenvalues --   -0.05877  -0.00607   0.02655   0.05699   0.06815
 Alpha virt. eigenvalues --    0.09098   0.10684   0.10859   0.11628   0.11900
 Alpha virt. eigenvalues --    0.12860   0.13020   0.13247   0.13590   0.13763

 Mulliken charges:
               1
     1  O   -0.554543
     2  O   -0.560214
     3  C    0.061774
     4  C   -0.143977
     5  C   -0.190527
     6  C    0.159470
     7  C    0.097613
     8  C    0.012198
     9  C   -0.278782
    10  C   -0.282503
    11  C   -0.191144
    12  C   -0.145150
    13  C    0.184620
    14  C    0.060602
    15  C   -0.078626
    16  C   -0.204352
    17  C    0.021585
    18  C   -0.316814
    19  C   -0.303180
    20  C   -0.364267
    21  C   -0.085052
    22  C   -0.126367
    23  C   -0.356431
    24  C    0.063480
    25  C   -0.104703
    26  C   -0.369682
    27  C    0.147493
    28  C   -0.131241
    29  C   -0.386239
    30  C   -0.122896
    31  C   -0.012139
    32  C   -0.084244
    33  C   -0.129106
    34  C    0.081274
    35  C   -0.130337
    36  C    0.118656
    37  C   -0.340173
    38  C   -0.104679
    39  C   -0.074393
    40  C   -0.381730
    41  C   -0.095273
    42  C   -0.102644
    43  H    0.080710
    44  H    0.087147
    45  H    0.089718
    46  H    0.092566
    47  H    0.085609
    48  H    0.098803
    49  H    0.061964
    50  H    0.102193
    51  H    0.085706
    52  H    0.104377
    53  H    0.090784
    54  H    0.078017
    55  H    0.069249
    56  H    0.075550
    57  H    0.086614
    58  H    0.096788
    59  H    0.125776
    60  H    0.116777
    61  H    0.095063
    62  H    0.079877
    63  H    0.102659
    64  H    0.112239
    65  H    0.086686
    66  H    0.132255
    67  H    0.126748
    68  H    0.095514
    69  H    0.302757
    70  H    0.069392
    71  H    0.082025
    72  H    0.095441
    73  H    0.124906
    74  H    0.111131
    75  H    0.303674
    76  H    0.075761
    77  H    0.104311
    78  H    0.127386
    79  H    0.111232
    80  H    0.072434
    81  H    0.101519
    82  H    0.128468
    83  H    0.099770
    84  H    0.085681
    85  H    0.081195
    86  H    0.082975
    87  H    0.082534
    88  H    0.081631
    89  H    0.103246
    90  H    0.084566
    91  H    0.115255
    92  H    0.070030
    93  H    0.073994
    94  H    0.115709
    95  H    0.117826
    96  H    0.107585
    97  H    0.080829
    98  H    0.089991
 Sum of Mulliken charges =  -0.00000

 Dipole moment (field-independent basis, Debye):
    X=              1.7422    Y=             -1.0183    Z=             -0.6072  Tot=              2.1073
 Quadrupole moment (field-independent basis, Debye-Ang):
   XX=           -279.6566   YY=           -243.5663   ZZ=           -263.3446
   XY=              8.1171   XZ=             45.6244   YZ=              2.4915

 Normal termination of Gaussian 16 at Sun Jul 14 02:08:51 2019.
