 Gaussian 16, Revision A.03,
 Gaussian 16:  ES64L-G16RevA.03 25-Dec-2016

 -------------------------------------
 # td=(NStates=1) CAM-B3LYP/6-31G(d,p)
 -------------------------------------

 --
 TD
 --
 Symbolic Z-matrix:
 Charge =  0 Multiplicity = 1

                         Standard orientation:
 ---------------------------------------------------------------------
 Center     Atomic      Atomic             Coordinates (Angstroms)
 Number     Number       Type             X           Y           Z
 ---------------------------------------------------------------------
      1          8           0      -13.974890   -1.958383    0.577682
      2          8           0       14.674091    1.076127    0.094512
      3          6           0      -11.831864    0.198002    1.219278
      4          6           0      -10.917117    0.370916   -0.140351
      5          6           0      -11.921197   -1.384966    1.469049
      6          6           0      -12.674060   -2.038895    0.284284
      7          6           0      -11.645271   -0.401120   -1.358138
      8          6           0       11.015129    1.042183    1.055343
      9          6           0      -11.041529    0.859909    2.350835
     10          6           0      -13.251813    0.841912    1.047113
     11          6           0       12.377160    1.720040    0.562165
     12          6           0      -12.402673   -1.463376   -1.079652
     13          6           0       13.380090    0.587596    0.313351
     14          6           0       10.622891   -0.058548   -0.118088
     15          6           0       -9.477985   -0.091429    0.025530
     16          6           0       12.969432   -0.134674   -0.949851
     17          6           0       11.487625   -0.539732   -0.948314
     18          6           0        9.984241    2.218340    0.979790
     19          6           0       10.942235    0.554770    2.449513
     20          6           0      -11.325966    0.160082   -2.683290
     21          6           0       -8.386838    0.766540   -0.112296
     22          6           0        9.246580   -0.489704    0.025210
     23          6           0       11.170052   -1.495683   -2.106096
     24          6           0       -7.083141    0.463586   -0.053164
     25          6           0        8.780559   -1.791875   -0.068915
     26          6           0       -6.660800   -0.938089    0.154675
     27          6           0        7.380988   -2.182812    0.051516
     28          6           0       -6.079284    1.447331   -0.429096
     29          6           0        7.258613   -3.626631    0.273525
     30          6           0        6.445596   -1.336737   -0.197873
     31          6           0       -4.637098    1.349219   -0.354693
     32          6           0        5.029335   -1.641897    0.061285
     33          6           0       -3.873080    2.437943   -0.644976
     34          6           0       -2.458705    2.553019   -0.657788
     35          6           0        4.135140   -0.626632   -0.144573
     36          6           0        2.621445   -0.857255   -0.021888
     37          6           0       -1.921532    3.813607   -0.938922
     38          6           0       -1.745678    1.380964   -0.446306
     39          6           0        1.760222    0.208434   -0.120006
     40          6           0        2.134543   -2.215352    0.360227
     41          6           0       -0.337849    1.345110   -0.405487
     42          6           0        0.363844    0.222940   -0.140124
     43          1           0      -10.902901    1.403312   -0.240460
     44          1           0      -12.729300   -1.558327    2.206198
     45          1           0      -10.838508   -1.690837    1.652454
     46          1           0      -12.162309   -3.161745    0.217182
     47          1           0      -10.268847    0.301109    2.676401
     48          1           0      -10.743606    1.863246    2.073907
     49          1           0      -11.777021    0.978929    3.386168
     50          1           0      -13.999515    0.330077    0.259617
     51          1           0      -13.753467    0.712410    2.022525
     52          1           0      -13.122051    1.900958    0.811622
     53          1           0       12.225457    2.132382   -0.453610
     54          1           0       12.713081    2.503043    1.402032
     55          1           0      -12.848571   -2.088171   -2.001436
     56          1           0       13.284449   -0.347549    1.112244
     57          1           0       -9.157835   -1.129343    0.032877
     58          1           0       13.480672   -1.067639   -1.222742
     59          1           0       13.321521    0.520124   -1.694331
     60          1           0        8.984854    1.946778    1.151149
     61          1           0        9.874481    2.533073   -0.156170
     62          1           0       10.412770    3.068379    1.451778
     63          1           0       11.651138   -0.241458    2.619690
     64          1           0       10.044855   -0.158262    2.598033
     65          1           0       11.297554    1.633015    2.997035
     66          1           0      -10.211631    0.572168   -2.585630
     67          1           0      -11.690064    1.007779   -2.892505
     68          1           0      -11.598688   -0.779854   -3.399758
     69          1           0      -14.335195   -2.359981   -0.227917
     70          1           0        8.372943    0.236306    0.262443
     71          1           0       -8.704840    1.855907   -0.269900
     72          1           0       11.713820   -2.692513   -2.134513
     73          1           0       10.058658   -1.622527   -2.417250
     74          1           0       11.549303   -0.839732   -3.098138
     75          1           0       15.071880    1.322174    0.784399
     76          1           0        9.545539   -2.422915   -0.070562
     77          1           0       -5.407965   -1.165593    0.062431
     78          1           0       -7.020132   -1.378990    1.212077
     79          1           0       -7.065667   -1.817234   -0.555503
     80          1           0       -6.574574    2.397019   -0.504147
     81          1           0        7.220919   -3.885790    1.312236
     82          1           0        6.295437   -4.203532   -0.092608
     83          1           0        8.065733   -4.166756    0.033071
     84          1           0        6.706244   -0.491288   -0.854554
     85          1           0       -4.182113    0.366441   -0.239058
     86          1           0        4.726887   -2.614904    0.464323
     87          1           0       -4.487508    3.321980   -0.964251
     88          1           0        4.361487    0.437720   -0.360929
     89          1           0       -1.002275    3.822547   -1.754321
     90          1           0       -1.483331    4.253652   -0.044174
     91          1           0       -2.651586    4.518657   -1.262226
     92          1           0       -2.242506    0.385843   -0.120265
     93          1           0        2.236528    1.136460   -0.407216
     94          1           0        2.552739   -2.591868    1.424478
     95          1           0        0.861489   -2.141839    0.341842
     96          1           0        2.348934   -2.818864   -0.427124
     97          1           0        0.159566    2.279101   -0.831495
     98          1           0       -0.363970   -0.607254   -0.039779
 ---------------------------------------------------------------------

 SCF Done:  E(RCAM-B3LYP) =  -1706.88306341     A.U. after   15 cycles

 Excitation energies and oscillator strengths:

 Excited State   1:      Singlet-A      2.3148 eV  535.62 nm  f=2.8132  <S**2>=0.000
     155 ->158        -0.14528
     156 ->157         0.69017
 This state for optimization and/or second-order correction.
 Total Energy, E(TD-HF/TD-DFT) =  -1706.79799680
 Copying the excited state density for this state as the 1-particle RhoCI density.

 The electronic state is 1-A.
 Alpha  occ. eigenvalues --  -19.22728 -19.20386 -10.31532 -10.31415 -10.29056
 Alpha  occ. eigenvalues --  -10.28582 -10.27862 -10.27463 -10.27106 -10.27103
 Alpha  occ. eigenvalues --  -10.27058 -10.27020 -10.26961 -10.26870 -10.26870
 Alpha  occ. eigenvalues --  -10.26847 -10.26817 -10.26593 -10.26549 -10.26505
 Alpha  occ. eigenvalues --  -10.26494 -10.26469 -10.26460 -10.26433 -10.26286
 Alpha  occ. eigenvalues --  -10.26198 -10.26156 -10.26057 -10.26054 -10.26036
 Alpha  occ. eigenvalues --  -10.25859 -10.25765 -10.25597 -10.25544 -10.25005
 Alpha  occ. eigenvalues --  -10.24966 -10.24922 -10.24788 -10.24634 -10.24246
 Alpha  occ. eigenvalues --  -10.24230 -10.24124  -1.14251  -1.12920  -0.93516
 Alpha  occ. eigenvalues --   -0.93056  -0.92098  -0.91935  -0.90718  -0.90187
 Alpha  occ. eigenvalues --   -0.87411  -0.86982  -0.85899  -0.85644  -0.84896
 Alpha  occ. eigenvalues --   -0.83003  -0.81986  -0.80296  -0.79774  -0.78815
 Alpha  occ. eigenvalues --   -0.76956  -0.75937  -0.75926  -0.75486  -0.75322
 Alpha  occ. eigenvalues --   -0.74445  -0.74376  -0.74036  -0.73143  -0.69756
 Alpha  occ. eigenvalues --   -0.68834  -0.66956  -0.66418  -0.65301  -0.63485
 Alpha  occ. eigenvalues --   -0.62710  -0.62515  -0.61874  -0.60874  -0.59877
 Alpha  occ. eigenvalues --   -0.59301  -0.58731  -0.58309  -0.57536  -0.56684
 Alpha  occ. eigenvalues --   -0.56347  -0.55729  -0.54739  -0.54187  -0.53719
 Alpha  occ. eigenvalues --   -0.53437  -0.52652  -0.52191  -0.51566  -0.50989
 Alpha  occ. eigenvalues --   -0.50853  -0.50289  -0.49969  -0.49339  -0.49290
 Alpha  occ. eigenvalues --   -0.48768  -0.48475  -0.48247  -0.47794  -0.47415
 Alpha  occ. eigenvalues --   -0.47207  -0.47066  -0.46594  -0.46276  -0.46181
 Alpha  occ. eigenvalues --   -0.45998  -0.45663  -0.45309  -0.45228  -0.44600
 Alpha  occ. eigenvalues --   -0.44462  -0.44262  -0.44055  -0.43881  -0.43652
 Alpha  occ. eigenvalues --   -0.43084  -0.42209  -0.42083  -0.41860  -0.41623
 Alpha  occ. eigenvalues --   -0.41502  -0.41297  -0.41067  -0.40865  -0.40490
 Alpha  occ. eigenvalues --   -0.40088  -0.40051  -0.39848  -0.39419  -0.39347
 Alpha  occ. eigenvalues --   -0.38629  -0.38494  -0.38249  -0.38030  -0.37448
 Alpha  occ. eigenvalues --   -0.37221  -0.36897  -0.36152  -0.35644  -0.35636
 Alpha  occ. eigenvalues --   -0.35626  -0.33940  -0.33080  -0.32194  -0.31712
 Alpha  occ. eigenvalues --   -0.31599  -0.29678  -0.29006  -0.26587  -0.23769
 Alpha  occ. eigenvalues --   -0.19915
 Alpha virt. eigenvalues --   -0.05363  -0.00992   0.02098   0.05900   0.07142
 Alpha virt. eigenvalues --    0.09089   0.10568   0.10808   0.11398   0.11663
 Alpha virt. eigenvalues --    0.12220   0.12861   0.13243   0.13700   0.13929

 Mulliken charges:
               1
     1  O   -0.491665
     2  O   -0.522198
     3  C    0.019367
     4  C   -0.142952
     5  C   -0.191685
     6  C    0.148318
     7  C    0.126867
     8  C   -0.017157
     9  C   -0.281877
    10  C   -0.294855
    11  C   -0.179118
    12  C   -0.157667
    13  C    0.164976
    14  C    0.054063
    15  C   -0.084687
    16  C   -0.218051
    17  C    0.057178
    18  C   -0.293327
    19  C   -0.272586
    20  C   -0.335435
    21  C   -0.113033
    22  C   -0.134464
    23  C   -0.344089
    24  C    0.153953
    25  C   -0.115017
    26  C   -0.374434
    27  C    0.150426
    28  C   -0.142858
    29  C   -0.387335
    30  C   -0.156740
    31  C   -0.044369
    32  C   -0.101531
    33  C   -0.137179
    34  C    0.147790
    35  C   -0.101808
    36  C    0.090440
    37  C   -0.398650
    38  C   -0.129196
    39  C   -0.129514
    40  C   -0.357343
    41  C   -0.074142
    42  C   -0.075862
    43  H    0.084412
    44  H    0.117466
    45  H    0.093225
    46  H    0.038543
    47  H    0.117569
    48  H    0.097334
    49  H    0.051771
    50  H    0.105937
    51  H    0.102721
    52  H    0.085627
    53  H    0.114939
    54  H    0.067247
    55  H    0.054967
    56  H    0.052457
    57  H    0.084337
    58  H    0.108825
    59  H    0.123829
    60  H    0.111342
    61  H    0.074478
    62  H    0.103068
    63  H    0.100387
    64  H    0.115195
    65  H    0.082794
    66  H    0.098346
    67  H    0.135216
    68  H    0.093988
    69  H    0.309446
    70  H    0.082069
    71  H    0.068027
    72  H    0.080766
    73  H    0.121336
    74  H    0.083867
    75  H    0.276913
    76  H    0.074807
    77  H    0.076456
    78  H    0.102180
    79  H    0.109020
    80  H    0.079249
    81  H    0.123138
    82  H    0.099223
    83  H    0.127741
    84  H    0.104149
    85  H    0.084308
    86  H    0.099413
    87  H    0.080071
    88  H    0.087401
    89  H    0.100973
    90  H    0.137826
    91  H    0.120448
    92  H    0.080294
    93  H    0.076916
    94  H    0.110379
    95  H    0.075561
    96  H    0.138601
    97  H    0.075748
    98  H    0.085097
 Sum of Mulliken charges =  -0.00000

 Dipole moment (field-independent basis, Debye):
    X=              1.6976    Y=             -0.4909    Z=             -0.6544  Tot=              1.8844
 Quadrupole moment (field-independent basis, Debye-Ang):
   XX=           -273.7909   YY=           -241.9450   ZZ=           -266.5867
   XY=             -0.8531   XZ=             36.2583   YZ=             -0.5650

 Normal termination of Gaussian 16 at Mon Jul 15 07:35:59 2019.
