 Gaussian 16, Revision A.03,
 Gaussian 16:  ES64L-G16RevA.03 25-Dec-2016

 -------------------------------------
 # td=(NStates=1) CAM-B3LYP/6-31G(d,p)
 -------------------------------------

 --
 TD
 --
 Symbolic Z-matrix:
 Charge =  0 Multiplicity = 1

                         Standard orientation:
 ---------------------------------------------------------------------
 Center     Atomic      Atomic             Coordinates (Angstroms)
 Number     Number       Type             X           Y           Z
 ---------------------------------------------------------------------
      1          8           0      -14.133821   -1.998057    0.604983
      2          8           0       14.919890    0.797214    0.491791
      3          6           0      -11.783765    0.225240    1.159346
      4          6           0      -10.965622    0.230386   -0.083768
      5          6           0      -12.057687   -1.235112    1.692819
      6          6           0      -12.708368   -2.093095    0.541733
      7          6           0      -11.556078   -0.606068   -1.085873
      8          6           0       11.031921    1.105579    1.055386
      9          6           0      -11.091917    1.071610    2.284105
     10          6           0      -13.146421    0.987280    0.954816
     11          6           0       12.441837    1.556823    0.818130
     12          6           0      -12.260070   -1.673292   -0.814831
     13          6           0       13.475861    0.423540    0.565701
     14          6           0       10.739459    0.032124   -0.058627
     15          6           0       -9.534989   -0.082619    0.135365
     16          6           0       13.060134   -0.190598   -0.681471
     17          6           0       11.610522   -0.578114   -0.821733
     18          6           0       10.085454    2.324730    0.890578
     19          6           0       10.834509    0.440243    2.471724
     20          6           0      -11.136495   -0.361422   -2.516789
     21          6           0       -8.495295    0.736245   -0.215461
     22          6           0        9.297012   -0.457101    0.003433
     23          6           0       11.303442   -1.483704   -2.087090
     24          6           0       -7.072557    0.611508   -0.049863
     25          6           0        8.775956   -1.635587   -0.257088
     26          6           0       -6.630755   -0.768900    0.465309
     27          6           0        7.500125   -2.054178   -0.223067
     28          6           0       -6.270902    1.551237   -0.413721
     29          6           0        7.259565   -3.600160    0.077926
     30          6           0        6.274793   -1.296370   -0.263030
     31          6           0       -4.847843    1.396535   -0.458748
     32          6           0        5.028241   -1.569160   -0.235031
     33          6           0       -4.050507    2.397637   -0.944602
     34          6           0       -2.556227    2.482354   -0.977918
     35          6           0        3.993387   -0.577797   -0.224730
     36          6           0        2.678119   -0.851257   -0.083151
     37          6           0       -1.919442    3.856291   -1.353382
     38          6           0       -1.763155    1.453938   -0.590103
     39          6           0        1.718566    0.105311   -0.397445
     40          6           0        2.098239   -2.173478    0.228352
     41          6           0       -0.342248    1.390818   -0.559867
     42          6           0        0.380251    0.237833   -0.274893
     43          1           0      -11.063158    1.330189   -0.499824
     44          1           0      -12.989280   -1.173124    2.467401
     45          1           0      -11.156849   -1.758891    2.046075
     46          1           0      -12.443027   -3.251286    0.637930
     47          1           0      -10.136676    0.742899    2.700533
     48          1           0      -10.891001    2.139797    1.985626
     49          1           0      -11.947329    1.189793    3.132321
     50          1           0      -13.924081    0.466833    0.305736
     51          1           0      -13.534525    0.821073    1.936222
     52          1           0      -12.871649    2.007212    0.575737
     53          1           0       12.284497    2.203448   -0.156507
     54          1           0       12.675183    2.371919    1.459927
     55          1           0      -12.690665   -2.485452   -1.582963
     56          1           0       13.224400   -0.340292    1.552279
     57          1           0       -9.414398   -1.260215    0.538257
     58          1           0       13.805634   -0.967634   -0.784671
     59          1           0       13.326266    0.606439   -1.394706
     60          1           0        8.962371    2.007818    0.857046
     61          1           0       10.484289    2.931029   -0.030028
     62          1           0       10.293044    2.948622    1.857989
     63          1           0       11.614116   -0.378989    2.821121
     64          1           0        9.687184    0.141153    2.510332
     65          1           0       11.084260    1.324950    3.253394
     66          1           0      -10.043045   -0.245486   -2.527400
     67          1           0      -11.712529    0.605925   -2.854240
     68          1           0      -11.235719   -1.019708   -3.203602
     69          1           0      -14.432790   -2.113090   -0.284783
     70          1           0        8.596329    0.214636    0.420140
     71          1           0       -9.054682    1.702702   -0.759647
     72          1           0       11.707352   -2.444260   -1.955361
     73          1           0       10.206782   -1.596122   -2.255366
     74          1           0       11.604560   -0.810367   -2.924594
     75          1           0       14.888268    1.550446    1.155838
     76          1           0        9.517009   -2.427837   -0.369989
     77          1           0       -5.495397   -0.895894    0.413914
     78          1           0       -7.237256   -1.065579    1.438927
     79          1           0       -7.321196   -1.452844   -0.056690
     80          1           0       -6.598396    2.497333   -0.740703
     81          1           0        6.737744   -3.755617    1.148661
     82          1           0        6.558406   -4.150825   -0.590119
     83          1           0        8.198975   -4.204135   -0.057767
     84          1           0        6.714400   -0.350221   -0.670438
     85          1           0       -4.306330    0.526238    0.100946
     86          1           0        4.684305   -2.626869    0.123731
     87          1           0       -4.596806    3.388838   -1.236935
     88          1           0        4.286421    0.493022   -0.593777
     89          1           0       -1.241105    3.736638   -2.180964
     90          1           0       -1.448381    4.074708   -0.305187
     91          1           0       -2.645808    4.509301   -1.704557
     92          1           0       -2.141514    0.313864   -0.235035
     93          1           0        2.442554    1.145424   -0.464811
     94          1           0        2.833418   -2.531897    0.968412
     95          1           0        1.134189   -2.033151    0.826189
     96          1           0        2.062159   -2.745891   -0.826141
     97          1           0        0.518244    2.263308   -0.707585
     98          1           0       -0.229614   -0.538643   -0.089159
 ---------------------------------------------------------------------

 SCF Done:  E(RCAM-B3LYP) =  -1706.89431843     A.U. after   17 cycles

 Excitation energies and oscillator strengths:

 Excited State   1:      Singlet-A      1.9163 eV  647.00 nm  f=3.0155  <S**2>=0.000
     155 ->158         0.12312
     156 ->157         0.70451
     156 <-157        -0.13151
 This state for optimization and/or second-order correction.
 Total Energy, E(TD-HF/TD-DFT) =  -1706.82389644
 Copying the excited state density for this state as the 1-particle RhoCI density.

 The electronic state is 1-A.
 Alpha  occ. eigenvalues --  -19.22768 -19.20961 -10.32349 -10.31205 -10.28604
 Alpha  occ. eigenvalues --  -10.28479 -10.28349 -10.28095 -10.28051 -10.27931
 Alpha  occ. eigenvalues --  -10.27915 -10.27909 -10.27674 -10.27511 -10.27395
 Alpha  occ. eigenvalues --  -10.27306 -10.27266 -10.27188 -10.27090 -10.27041
 Alpha  occ. eigenvalues --  -10.26835 -10.26742 -10.26739 -10.26682 -10.26563
 Alpha  occ. eigenvalues --  -10.26489 -10.26419 -10.26348 -10.26327 -10.26226
 Alpha  occ. eigenvalues --  -10.25995 -10.25830 -10.25754 -10.25578 -10.25561
 Alpha  occ. eigenvalues --  -10.25502 -10.25364 -10.25257 -10.24809 -10.24738
 Alpha  occ. eigenvalues --  -10.24490 -10.24279  -1.09863  -1.07978  -0.95184
 Alpha  occ. eigenvalues --   -0.94306  -0.93038  -0.92548  -0.91375  -0.90382
 Alpha  occ. eigenvalues --   -0.87928  -0.87206  -0.86941  -0.86267  -0.85193
 Alpha  occ. eigenvalues --   -0.83393  -0.82783  -0.80488  -0.79525  -0.78268
 Alpha  occ. eigenvalues --   -0.77075  -0.76703  -0.76579  -0.75958  -0.75556
 Alpha  occ. eigenvalues --   -0.75117  -0.74671  -0.74009  -0.73067  -0.70932
 Alpha  occ. eigenvalues --   -0.69336  -0.67629  -0.66470  -0.64639  -0.63897
 Alpha  occ. eigenvalues --   -0.63821  -0.63188  -0.62170  -0.60640  -0.59979
 Alpha  occ. eigenvalues --   -0.58539  -0.58083  -0.57946  -0.57596  -0.56714
 Alpha  occ. eigenvalues --   -0.55344  -0.54466  -0.54278  -0.54196  -0.54039
 Alpha  occ. eigenvalues --   -0.53149  -0.52887  -0.52343  -0.51805  -0.51407
 Alpha  occ. eigenvalues --   -0.50538  -0.50201  -0.50015  -0.49698  -0.49618
 Alpha  occ. eigenvalues --   -0.49016  -0.48941  -0.48422  -0.47553  -0.47360
 Alpha  occ. eigenvalues --   -0.47327  -0.47165  -0.46971  -0.46389  -0.46272
 Alpha  occ. eigenvalues --   -0.46049  -0.45761  -0.45663  -0.45024  -0.44772
 Alpha  occ. eigenvalues --   -0.44229  -0.44108  -0.43880  -0.43742  -0.43601
 Alpha  occ. eigenvalues --   -0.43029  -0.42919  -0.42406  -0.42370  -0.41925
 Alpha  occ. eigenvalues --   -0.41809  -0.41548  -0.41282  -0.40927  -0.40703
 Alpha  occ. eigenvalues --   -0.40573  -0.40316  -0.40170  -0.39474  -0.39282
 Alpha  occ. eigenvalues --   -0.39087  -0.38704  -0.38357  -0.37755  -0.37389
 Alpha  occ. eigenvalues --   -0.37137  -0.36701  -0.36647  -0.36428  -0.35491
 Alpha  occ. eigenvalues --   -0.35448  -0.35235  -0.34445  -0.32597  -0.32498
 Alpha  occ. eigenvalues --   -0.31787  -0.30522  -0.30096  -0.27936  -0.24589
 Alpha  occ. eigenvalues --   -0.18709
 Alpha virt. eigenvalues --   -0.07202  -0.01320   0.02718   0.05816   0.07087
 Alpha virt. eigenvalues --    0.08886   0.09865   0.10539   0.10977   0.11673
 Alpha virt. eigenvalues --    0.12248   0.12417   0.12678   0.13094   0.13407

 Mulliken charges:
               1
     1  O   -0.541678
     2  O   -0.558736
     3  C    0.002980
     4  C   -0.143461
     5  C   -0.193487
     6  C    0.164920
     7  C    0.138332
     8  C   -0.013868
     9  C   -0.295134
    10  C   -0.286049
    11  C   -0.210670
    12  C   -0.162464
    13  C    0.164886
    14  C    0.106512
    15  C   -0.063402
    16  C   -0.205405
    17  C    0.000167
    18  C   -0.293124
    19  C   -0.276666
    20  C   -0.337009
    21  C   -0.118375
    22  C   -0.123973
    23  C   -0.352209
    24  C    0.145975
    25  C   -0.099737
    26  C   -0.371542
    27  C    0.069450
    28  C   -0.111109
    29  C   -0.372948
    30  C   -0.084969
    31  C   -0.067879
    32  C   -0.105359
    33  C   -0.132670
    34  C    0.049307
    35  C   -0.117316
    36  C    0.115355
    37  C   -0.347657
    38  C   -0.126582
    39  C   -0.113725
    40  C   -0.356105
    41  C   -0.065435
    42  C   -0.071870
    43  H    0.077322
    44  H    0.106076
    45  H    0.099573
    46  H    0.059006
    47  H    0.107856
    48  H    0.092381
    49  H    0.075116
    50  H    0.106049
    51  H    0.108609
    52  H    0.092512
    53  H    0.074886
    54  H    0.079934
    55  H    0.070824
    56  H    0.046420
    57  H    0.066601
    58  H    0.114415
    59  H    0.117864
    60  H    0.109287
    61  H    0.103797
    62  H    0.096043
    63  H    0.106546
    64  H    0.104566
    65  H    0.074390
    66  H    0.113728
    67  H    0.093409
    68  H    0.116289
    69  H    0.300661
    70  H    0.066964
    71  H    0.072377
    72  H    0.127723
    73  H    0.120888
    74  H    0.120214
    75  H    0.316242
    76  H    0.088827
    77  H    0.110964
    78  H    0.110113
    79  H    0.126960
    80  H    0.087982
    81  H    0.103806
    82  H    0.113519
    83  H    0.098191
    84  H    0.068758
    85  H    0.089128
    86  H    0.082917
    87  H    0.074894
    88  H    0.086338
    89  H    0.133844
    90  H    0.130811
    91  H    0.115521
    92  H    0.070982
    93  H    0.034997
    94  H    0.111494
    95  H    0.112074
    96  H    0.123518
    97  H    0.077004
    98  H    0.071519
 Sum of Mulliken charges =  -0.00000

 Dipole moment (field-independent basis, Debye):
    X=             -0.3283    Y=              0.8013    Z=             -0.8278  Tot=              1.1979
 Quadrupole moment (field-independent basis, Debye-Ang):
   XX=           -308.9372   YY=           -247.5238   ZZ=           -263.3058
   XY=             10.5820   XZ=             31.2078   YZ=              1.5535

 Normal termination of Gaussian 16 at Sat Jul 13 04:18:07 2019.
