 Gaussian 16, Revision A.03,
 Gaussian 16:  ES64L-G16RevA.03 25-Dec-2016

 -------------------------------------
 # td=(NStates=1) CAM-B3LYP/6-31G(d,p)
 -------------------------------------

 --
 TD
 --
 Symbolic Z-matrix:
 Charge =  0 Multiplicity = 1

                         Standard orientation:
 ---------------------------------------------------------------------
 Center     Atomic      Atomic             Coordinates (Angstroms)
 Number     Number       Type             X           Y           Z
 ---------------------------------------------------------------------
      1          8           0      -14.202255   -2.094214    0.122351
      2          8           0       14.916579    0.784173   -0.071862
      3          6           0      -11.963999   -0.012986    1.131102
      4          6           0      -10.986833    0.300491   -0.102158
      5          6           0      -12.165837   -1.477641    1.301056
      6          6           0      -12.752077   -2.222026    0.165051
      7          6           0      -11.514144   -0.409077   -1.320024
      8          6           0       11.219831    0.926276    0.924661
      9          6           0      -11.216539    0.552572    2.422667
     10          6           0      -13.267009    0.710102    1.017524
     11          6           0       12.688877    1.505232    0.535104
     12          6           0      -12.297747   -1.502730   -1.209901
     13          6           0       13.610421    0.379039    0.249938
     14          6           0       10.709902   -0.010705   -0.108419
     15          6           0       -9.509474   -0.068204   -0.023108
     16          6           0       13.004751   -0.260964   -0.981574
     17          6           0       11.583463   -0.628311   -0.987100
     18          6           0       10.316020    2.191533    0.952017
     19          6           0       11.175105    0.346286    2.403432
     20          6           0      -11.191487    0.151342   -2.584997
     21          6           0       -8.490148    0.826089   -0.250898
     22          6           0        9.265961   -0.479092   -0.082975
     23          6           0       11.140109   -1.452768   -2.112770
     24          6           0       -7.077717    0.539083   -0.023259
     25          6           0        8.819304   -1.724501   -0.107702
     26          6           0       -6.579834   -0.895248    0.420805
     27          6           0        7.415629   -2.043031   -0.015883
     28          6           0       -6.254306    1.522510   -0.250705
     29          6           0        7.107468   -3.557542    0.403250
     30          6           0        6.346680   -1.223232   -0.145995
     31          6           0       -4.871363    1.474138   -0.292467
     32          6           0        4.942417   -1.494376    0.173359
     33          6           0       -4.142272    2.716899   -0.406596
     34          6           0       -2.629551    2.727267   -0.460174
     35          6           0        3.942876   -0.526731   -0.039076
     36          6           0        2.593859   -0.791167    0.017621
     37          6           0       -1.872568    4.062282   -0.773854
     38          6           0       -1.857793    1.596974   -0.374887
     39          6           0        1.734825    0.285882   -0.178287
     40          6           0        2.154230   -2.257800    0.290122
     41          6           0       -0.423262    1.552529   -0.272121
     42          6           0        0.252955    0.302710   -0.127776
     43          1           0      -11.308737    1.412687   -0.149679
     44          1           0      -12.764588   -1.798336    2.201013
     45          1           0      -11.275630   -2.085617    1.481646
     46          1           0      -12.516795   -3.448069    0.133207
     47          1           0      -10.222374    0.224327    2.702875
     48          1           0      -11.052084    1.805679    2.416021
     49          1           0      -11.852689    0.337052    3.554410
     50          1           0      -13.752401    0.576460    0.166721
     51          1           0      -14.038998    0.494989    1.791029
     52          1           0      -13.001707    1.932445    1.061814
     53          1           0       12.519254    2.225009   -0.360748
     54          1           0       13.046636    2.123922    1.251492
     55          1           0      -12.518301   -2.055113   -2.021448
     56          1           0       13.690838   -0.389486    0.952149
     57          1           0       -9.301356   -1.019910    0.295088
     58          1           0       13.750419   -1.093844   -1.026020
     59          1           0       13.123474    0.291955   -1.972341
     60          1           0        9.341315    1.833498    1.316978
     61          1           0       10.242745    2.491414   -0.134996
     62          1           0       10.868359    3.015357    1.373294
     63          1           0       11.870771   -0.184014    2.464826
     64          1           0       10.313887   -0.118137    2.483353
     65          1           0       11.264425    1.157981    3.159445
     66          1           0       -9.981297    0.310041   -2.702558
     67          1           0      -11.381215    1.104023   -2.967265
     68          1           0      -11.383773   -0.341421   -3.346467
     69          1           0      -14.558420   -2.444130   -0.590620
     70          1           0        8.558159    0.265912    0.190309
     71          1           0       -8.647662    1.766570   -0.505513
     72          1           0       11.493570   -2.492970   -1.936350
     73          1           0       10.088546   -1.377874   -2.248697
     74          1           0       11.653929   -1.117026   -2.936651
     75          1           0       15.273968    1.492878    0.512850
     76          1           0        9.655350   -2.500957   -0.237416
     77          1           0       -5.346378   -0.945556    0.773951
     78          1           0       -7.162739   -0.989041    1.400609
     79          1           0       -6.850773   -1.619416   -0.559486
     80          1           0       -6.550979    2.605363   -0.571116
     81          1           0        6.882831   -3.716090    1.537388
     82          1           0        6.120382   -4.173739   -0.072901
     83          1           0        8.227081   -4.044574    0.262250
     84          1           0        6.566745   -0.133880   -0.770123
     85          1           0       -4.101464    0.709677   -0.184982
     86          1           0        4.805210   -2.590839    0.280924
     87          1           0       -4.703419    3.640022   -0.609853
     88          1           0        4.352340    0.549071   -0.358798
     89          1           0       -1.415252    3.953950   -1.812753
     90          1           0       -1.034575    4.372285   -0.209882
     91          1           0       -2.578719    4.826163   -0.568777
     92          1           0       -2.341796    0.534352   -0.222318
     93          1           0        2.463853    1.176165   -0.322818
     94          1           0        2.468783   -2.690048    1.101913
     95          1           0        1.144664   -2.288497    0.306853
     96          1           0        2.541833   -2.814769   -0.692695
     97          1           0        0.329143    2.407876   -0.481664
     98          1           0       -0.493318   -0.470070   -0.051405
 ---------------------------------------------------------------------

 SCF Done:  E(RCAM-B3LYP) =  -1706.82353294     A.U. after   15 cycles

 Excitation energies and oscillator strengths:

 Excited State   1:      Singlet-A      2.3402 eV  529.80 nm  f=2.9079  <S**2>=0.000
     155 ->158        -0.16137
     156 ->157         0.68486
 This state for optimization and/or second-order correction.
 Total Energy, E(TD-HF/TD-DFT) =  -1706.73753172
 Copying the excited state density for this state as the 1-particle RhoCI density.

 The electronic state is 1-A.
 Alpha  occ. eigenvalues --  -19.20754 -19.19692 -10.32808 -10.30137 -10.29326
 Alpha  occ. eigenvalues --  -10.28799 -10.28567 -10.27982 -10.27923 -10.27839
 Alpha  occ. eigenvalues --  -10.27803 -10.27701 -10.27521 -10.27504 -10.27330
 Alpha  occ. eigenvalues --  -10.27270 -10.27208 -10.27192 -10.27152 -10.27087
 Alpha  occ. eigenvalues --  -10.27031 -10.26898 -10.26859 -10.26509 -10.26448
 Alpha  occ. eigenvalues --  -10.26333 -10.26132 -10.26056 -10.25723 -10.25658
 Alpha  occ. eigenvalues --  -10.25598 -10.25408 -10.25065 -10.24750 -10.24713
 Alpha  occ. eigenvalues --  -10.24694 -10.24657 -10.24306 -10.24041 -10.23471
 Alpha  occ. eigenvalues --  -10.23375 -10.21307  -1.09943  -1.09166  -0.93876
 Alpha  occ. eigenvalues --   -0.93481  -0.92035  -0.91471  -0.90029  -0.89531
 Alpha  occ. eigenvalues --   -0.87800  -0.87259  -0.86387  -0.85254  -0.84336
 Alpha  occ. eigenvalues --   -0.82811  -0.82212  -0.80585  -0.79604  -0.78334
 Alpha  occ. eigenvalues --   -0.77910  -0.77303  -0.76399  -0.75854  -0.75519
 Alpha  occ. eigenvalues --   -0.75045  -0.74596  -0.73630  -0.72556  -0.70193
 Alpha  occ. eigenvalues --   -0.69043  -0.67708  -0.66858  -0.64949  -0.64108
 Alpha  occ. eigenvalues --   -0.63707  -0.63352  -0.62394  -0.60273  -0.60028
 Alpha  occ. eigenvalues --   -0.59436  -0.58564  -0.58150  -0.56939  -0.56178
 Alpha  occ. eigenvalues --   -0.55431  -0.55356  -0.54681  -0.54241  -0.54101
 Alpha  occ. eigenvalues --   -0.53845  -0.53301  -0.52541  -0.51805  -0.51162
 Alpha  occ. eigenvalues --   -0.50651  -0.50085  -0.49715  -0.49625  -0.49197
 Alpha  occ. eigenvalues --   -0.49048  -0.48836  -0.48637  -0.48387  -0.48009
 Alpha  occ. eigenvalues --   -0.47482  -0.47365  -0.47178  -0.46499  -0.46267
 Alpha  occ. eigenvalues --   -0.46076  -0.45628  -0.44949  -0.44742  -0.44622
 Alpha  occ. eigenvalues --   -0.44339  -0.44194  -0.44182  -0.43540  -0.43060
 Alpha  occ. eigenvalues --   -0.42529  -0.42229  -0.42176  -0.41923  -0.41693
 Alpha  occ. eigenvalues --   -0.41453  -0.41248  -0.40823  -0.40243  -0.40134
 Alpha  occ. eigenvalues --   -0.39928  -0.39759  -0.39657  -0.39424  -0.39357
 Alpha  occ. eigenvalues --   -0.39106  -0.38858  -0.38306  -0.38100  -0.38044
 Alpha  occ. eigenvalues --   -0.37534  -0.37224  -0.36692  -0.36659  -0.35831
 Alpha  occ. eigenvalues --   -0.35019  -0.33779  -0.33561  -0.32564  -0.32067
 Alpha  occ. eigenvalues --   -0.31459  -0.29074  -0.28665  -0.26603  -0.23890
 Alpha  occ. eigenvalues --   -0.20097
 Alpha virt. eigenvalues --   -0.05344  -0.01114   0.02712   0.05267   0.07031
 Alpha virt. eigenvalues --    0.08852   0.10220   0.10659   0.11744   0.12026
 Alpha virt. eigenvalues --    0.12532   0.12669   0.13294   0.13388   0.13550

 Mulliken charges:
               1
     1  O   -0.534303
     2  O   -0.582423
     3  C    0.021062
     4  C   -0.148109
     5  C   -0.168375
     6  C    0.136491
     7  C    0.138447
     8  C   -0.056393
     9  C   -0.276101
    10  C   -0.270343
    11  C   -0.203993
    12  C   -0.140788
    13  C    0.198197
    14  C    0.071098
    15  C   -0.088769
    16  C   -0.232390
    17  C    0.049612
    18  C   -0.301827
    19  C   -0.261726
    20  C   -0.353434
    21  C   -0.048479
    22  C   -0.132192
    23  C   -0.354349
    24  C    0.087514
    25  C   -0.089188
    26  C   -0.339025
    27  C    0.091283
    28  C   -0.127881
    29  C   -0.358863
    30  C   -0.123013
    31  C   -0.031373
    32  C   -0.100053
    33  C   -0.146836
    34  C    0.066063
    35  C   -0.120677
    36  C    0.115017
    37  C   -0.366912
    38  C   -0.134079
    39  C   -0.144679
    40  C   -0.343005
    41  C   -0.066876
    42  C   -0.104305
    43  H    0.092016
    44  H    0.107818
    45  H    0.100028
    46  H    0.057359
    47  H    0.111601
    48  H    0.066561
    49  H    0.050089
    50  H    0.128588
    51  H    0.113677
    52  H    0.054201
    53  H    0.090692
    54  H    0.075462
    55  H    0.068815
    56  H    0.093382
    57  H    0.092178
    58  H    0.098914
    59  H    0.110242
    60  H    0.103771
    61  H    0.089057
    62  H    0.103689
    63  H    0.096226
    64  H    0.113407
    65  H    0.086983
    66  H    0.077818
    67  H    0.122688
    68  H    0.113053
    69  H    0.287395
    70  H    0.081430
    71  H    0.074907
    72  H    0.108786
    73  H    0.128777
    74  H    0.110864
    75  H    0.306897
    76  H    0.095218
    77  H    0.092141
    78  H    0.128078
    79  H    0.113985
    80  H    0.081386
    81  H    0.114520
    82  H    0.096004
    83  H    0.088711
    84  H    0.057478
    85  H    0.077691
    86  H    0.088869
    87  H    0.084707
    88  H    0.084600
    89  H    0.126071
    90  H    0.127590
    91  H    0.109830
    92  H    0.074223
    93  H    0.086748
    94  H    0.133416
    95  H    0.111686
    96  H    0.104456
    97  H    0.088487
    98  H    0.092707
 Sum of Mulliken charges =  -0.00000

 Dipole moment (field-independent basis, Debye):
    X=             -0.3276    Y=             -0.0109    Z=             -0.4258  Tot=              0.5374
 Quadrupole moment (field-independent basis, Debye-Ang):
   XX=           -279.8893   YY=           -243.2927   ZZ=           -262.6886
   XY=             18.9434   XZ=             35.3383   YZ=             -0.4025

 Normal termination of Gaussian 16 at Sun Jul 14 23:49:55 2019.
