 Gaussian 16, Revision A.03,
 Gaussian 16:  ES64L-G16RevA.03 25-Dec-2016

 -------------------------------------
 # td=(NStates=1) CAM-B3LYP/6-31G(d,p)
 -------------------------------------

 --
 TD
 --
 Symbolic Z-matrix:
 Charge =  0 Multiplicity = 1

                         Standard orientation:
 ---------------------------------------------------------------------
 Center     Atomic      Atomic             Coordinates (Angstroms)
 Number     Number       Type             X           Y           Z
 ---------------------------------------------------------------------
      1          8           0      -14.333680   -1.652705    0.672583
      2          8           0       14.878181    0.878130    0.188761
      3          6           0      -11.769255    0.193527    1.232506
      4          6           0      -11.001184    0.274152   -0.089376
      5          6           0      -12.249648   -1.176715    1.540626
      6          6           0      -12.899499   -1.888294    0.497256
      7          6           0      -11.667625   -0.543778   -1.140578
      8          6           0       11.084943    1.166388    1.009819
      9          6           0      -10.953868    0.902463    2.386411
     10          6           0      -13.062416    1.142569    1.061014
     11          6           0       12.548089    1.632093    0.742087
     12          6           0      -12.468362   -1.468350   -0.891738
     13          6           0       13.544192    0.530403    0.444460
     14          6           0       10.711921    0.079967   -0.048454
     15          6           0       -9.525240   -0.102272   -0.002251
     16          6           0       13.108145   -0.090820   -0.851466
     17          6           0       11.607713   -0.537558   -0.862028
     18          6           0       10.191625    2.420324    0.804201
     19          6           0       10.880926    0.663448    2.354789
     20          6           0      -11.384124   -0.219735   -2.611001
     21          6           0       -8.501748    0.744650   -0.352017
     22          6           0        9.228599   -0.377718   -0.040419
     23          6           0       11.115564   -1.456379   -1.890515
     24          6           0       -7.100624    0.381660   -0.196244
     25          6           0        8.825020   -1.590175    0.027614
     26          6           0       -6.661274   -0.967322    0.420695
     27          6           0        7.521468   -2.116901    0.108177
     28          6           0       -6.278598    1.469672   -0.533744
     29          6           0        7.333258   -3.607000    0.351441
     30          6           0        6.387207   -1.324000   -0.038438
     31          6           0       -4.846279    1.335815   -0.490073
     32          6           0        5.008382   -1.665595   -0.079125
     33          6           0       -3.918424    2.321194   -0.718091
     34          6           0       -2.502378    2.544073   -0.672152
     35          6           0        4.088293   -0.726721   -0.357783
     36          6           0        2.701225   -0.997913   -0.353485
     37          6           0       -1.926480    3.802801   -0.938123
     38          6           0       -1.715068    1.283123   -0.522914
     39          6           0        1.782373    0.014054   -0.521389
     40          6           0        2.232048   -2.353935    0.264735
     41          6           0       -0.325038    1.269339   -0.544994
     42          6           0        0.432523    0.057626   -0.409285
     43          1           0      -10.972273    1.393606   -0.440079
     44          1           0      -12.839017   -1.187833    2.454155
     45          1           0      -11.307267   -1.895413    1.624059
     46          1           0      -12.831913   -2.930081    0.588311
     47          1           0      -10.202871    0.223141    2.540385
     48          1           0      -10.785038    2.068690    2.223268
     49          1           0      -11.603332    0.731878    3.223422
     50          1           0      -13.441997    0.898522    0.115612
     51          1           0      -13.803557    0.985649    1.812049
     52          1           0      -12.729557    2.080145    0.951621
     53          1           0       12.565328    2.355898   -0.286325
     54          1           0       12.917493    2.147204    1.536948
     55          1           0      -12.985286   -2.039394   -1.680666
     56          1           0       13.469962   -0.230279    1.519830
     57          1           0       -9.243350   -1.127721    0.210952
     58          1           0       13.367044   -1.119965   -1.078297
     59          1           0       13.543060    0.613043   -1.592518
     60          1           0        9.184966    2.030330    0.978130
     61          1           0       10.242735    2.822684   -0.134477
     62          1           0       10.490988    3.369092    1.539193
     63          1           0       11.468508   -0.270964    2.528740
     64          1           0        9.859961    0.224593    2.225308
     65          1           0       11.145144    1.236028    3.201079
     66          1           0      -10.310062   -0.040840   -2.880718
     67          1           0      -11.742447    0.657943   -3.004353
     68          1           0      -11.778723   -0.705205   -3.353650
     69          1           0      -14.783734   -2.268466    0.007840
     70          1           0        8.536506    0.508890   -0.063943
     71          1           0       -8.569510    1.850704   -0.556562
     72          1           0       11.326031   -2.600157   -1.863170
     73          1           0       10.043114   -1.466190   -2.301843
     74          1           0       11.599335   -1.030410   -2.946714
     75          1           0       15.081622    1.361972    0.956917
     76          1           0        9.503127   -2.335857    0.371399
     77          1           0       -5.460308   -1.089838    0.598067
     78          1           0       -7.244637   -1.279843    1.326356
     79          1           0       -6.865823   -1.834452   -0.353889
     80          1           0       -6.759597    2.385969   -0.995655
     81          1           0        6.631094   -3.839528    1.134317
     82          1           0        7.014315   -3.957243   -0.579401
     83          1           0        8.376432   -4.121249    0.654915
     84          1           0        6.719264   -0.329637   -0.288249
     85          1           0       -4.522764    0.395750   -0.047767
     86          1           0        4.796011   -2.726466   -0.120361
     87          1           0       -4.348265    3.350044   -0.850199
     88          1           0        4.337354    0.164985   -0.851674
     89          1           0       -1.292548    3.718210   -1.841701
     90          1           0       -1.213302    4.245143   -0.190169
     91          1           0       -2.833852    4.411000   -0.939880
     92          1           0       -2.217802    0.317340   -0.278985
     93          1           0        2.380538    0.853737   -0.724099
     94          1           0        2.631460   -2.467572    1.179899
     95          1           0        1.024271   -2.600967    0.213931
     96          1           0        2.499761   -3.326687   -0.178851
     97          1           0        0.295939    2.224670   -0.638692
     98          1           0       -0.176839   -0.716966   -0.085458
 ---------------------------------------------------------------------

 SCF Done:  E(RCAM-B3LYP) =  -1706.95099510     A.U. after   16 cycles

 Excitation energies and oscillator strengths:

 Excited State   1:      Singlet-A      1.8997 eV  652.66 nm  f=2.9069  <S**2>=0.000
     155 ->158         0.12645
     156 ->157         0.70284
     156 <-157        -0.12069
 This state for optimization and/or second-order correction.
 Total Energy, E(TD-HF/TD-DFT) =  -1706.88118344
 Copying the excited state density for this state as the 1-particle RhoCI density.

 The electronic state is 1-A.
 Alpha  occ. eigenvalues --  -19.22054 -19.20462 -10.31984 -10.29289 -10.28909
 Alpha  occ. eigenvalues --  -10.28232 -10.28038 -10.27490 -10.27207 -10.27122
 Alpha  occ. eigenvalues --  -10.27084 -10.27006 -10.26905 -10.26866 -10.26796
 Alpha  occ. eigenvalues --  -10.26533 -10.26469 -10.26463 -10.26394 -10.26318
 Alpha  occ. eigenvalues --  -10.26236 -10.26219 -10.25950 -10.25949 -10.25946
 Alpha  occ. eigenvalues --  -10.25895 -10.25766 -10.25670 -10.25647 -10.25637
 Alpha  occ. eigenvalues --  -10.25520 -10.25219 -10.25206 -10.25189 -10.24971
 Alpha  occ. eigenvalues --  -10.24895 -10.24538 -10.23952 -10.23948 -10.23910
 Alpha  occ. eigenvalues --  -10.23031 -10.21245  -1.12020  -1.07368  -0.94385
 Alpha  occ. eigenvalues --   -0.93680  -0.92342  -0.91630  -0.90802  -0.90143
 Alpha  occ. eigenvalues --   -0.87707  -0.87255  -0.87208  -0.85516  -0.84863
 Alpha  occ. eigenvalues --   -0.83362  -0.82754  -0.80771  -0.80368  -0.78643
 Alpha  occ. eigenvalues --   -0.77819  -0.76675  -0.76484  -0.76172  -0.75727
 Alpha  occ. eigenvalues --   -0.75567  -0.75255  -0.74940  -0.72964  -0.70674
 Alpha  occ. eigenvalues --   -0.69040  -0.68033  -0.66085  -0.64767  -0.63720
 Alpha  occ. eigenvalues --   -0.63626  -0.63143  -0.62356  -0.61057  -0.59588
 Alpha  occ. eigenvalues --   -0.59128  -0.58008  -0.57652  -0.57527  -0.56721
 Alpha  occ. eigenvalues --   -0.56262  -0.55619  -0.55324  -0.54571  -0.54143
 Alpha  occ. eigenvalues --   -0.53842  -0.53242  -0.52599  -0.52351  -0.51337
 Alpha  occ. eigenvalues --   -0.50841  -0.50362  -0.50022  -0.49782  -0.49467
 Alpha  occ. eigenvalues --   -0.49024  -0.48671  -0.48371  -0.48272  -0.47878
 Alpha  occ. eigenvalues --   -0.47601  -0.47384  -0.47197  -0.47059  -0.46141
 Alpha  occ. eigenvalues --   -0.45791  -0.45687  -0.45394  -0.45187  -0.44836
 Alpha  occ. eigenvalues --   -0.44524  -0.44284  -0.43763  -0.43525  -0.43450
 Alpha  occ. eigenvalues --   -0.42989  -0.42864  -0.42749  -0.42239  -0.42087
 Alpha  occ. eigenvalues --   -0.41986  -0.41660  -0.41446  -0.41039  -0.40833
 Alpha  occ. eigenvalues --   -0.40380  -0.40044  -0.39841  -0.39260  -0.39196
 Alpha  occ. eigenvalues --   -0.38873  -0.38738  -0.38693  -0.38452  -0.38092
 Alpha  occ. eigenvalues --   -0.37436  -0.37041  -0.36738  -0.36648  -0.35851
 Alpha  occ. eigenvalues --   -0.34931  -0.34082  -0.33678  -0.31912  -0.31772
 Alpha  occ. eigenvalues --   -0.31460  -0.30687  -0.29042  -0.26924  -0.23836
 Alpha  occ. eigenvalues --   -0.18538
 Alpha virt. eigenvalues --   -0.06730  -0.00635   0.02802   0.06258   0.07817
 Alpha virt. eigenvalues --    0.08641   0.10548   0.11274   0.12038   0.12167
 Alpha virt. eigenvalues --    0.12825   0.13135   0.13666   0.13673   0.13885

 Mulliken charges:
               1
     1  O   -0.565597
     2  O   -0.523424
     3  C   -0.005305
     4  C   -0.153259
     5  C   -0.175338
     6  C    0.144089
     7  C    0.172412
     8  C   -0.009792
     9  C   -0.284436
    10  C   -0.293345
    11  C   -0.166648
    12  C   -0.136129
    13  C    0.164616
    14  C    0.041011
    15  C   -0.098685
    16  C   -0.193925
    17  C    0.052288
    18  C   -0.281760
    19  C   -0.291890
    20  C   -0.373989
    21  C   -0.088241
    22  C   -0.154846
    23  C   -0.373627
    24  C    0.131156
    25  C   -0.053548
    26  C   -0.372432
    27  C    0.053049
    28  C   -0.136744
    29  C   -0.372952
    30  C   -0.108240
    31  C   -0.078293
    32  C   -0.087413
    33  C   -0.113159
    34  C    0.093784
    35  C   -0.116934
    36  C    0.096038
    37  C   -0.379883
    38  C   -0.116835
    39  C   -0.098540
    40  C   -0.379653
    41  C   -0.081144
    42  C   -0.078749
    43  H    0.084295
    44  H    0.118182
    45  H    0.065568
    46  H    0.087135
    47  H    0.105036
    48  H    0.095375
    49  H    0.096895
    50  H    0.109087
    51  H    0.106578
    52  H    0.091052
    53  H    0.062458
    54  H    0.078302
    55  H    0.068480
    56  H    0.020222
    57  H    0.084951
    58  H    0.112257
    59  H    0.125754
    60  H    0.095981
    61  H    0.116484
    62  H    0.073016
    63  H    0.096647
    64  H    0.107843
    65  H    0.109366
    66  H    0.105747
    67  H    0.113498
    68  H    0.110872
    69  H    0.295974
    70  H    0.094035
    71  H    0.085550
    72  H    0.106170
    73  H    0.129761
    74  H    0.075620
    75  H    0.299792
    76  H    0.083846
    77  H    0.102398
    78  H    0.131244
    79  H    0.115603
    80  H    0.092117
    81  H    0.127806
    82  H    0.139109
    83  H    0.084975
    84  H    0.061745
    85  H    0.071356
    86  H    0.097207
    87  H    0.050113
    88  H    0.093081
    89  H    0.139043
    90  H    0.125744
    91  H    0.111498
    92  H    0.085099
    93  H    0.068075
    94  H    0.139404
    95  H    0.079988
    96  H    0.107016
    97  H    0.079658
    98  H    0.082200
 Sum of Mulliken charges =  -0.00000

 Dipole moment (field-independent basis, Debye):
    X=             -0.5507    Y=             -0.6794    Z=             -0.0189  Tot=              0.8748
 Quadrupole moment (field-independent basis, Debye-Ang):
   XX=           -290.5656   YY=           -239.5988   ZZ=           -261.7036
   XY=             21.8247   XZ=             32.6019   YZ=             -0.2031

 Normal termination of Gaussian 16 at Tue Jul 16 09:34:31 2019.
