 Gaussian 16, Revision A.03,
 Gaussian 16:  ES64L-G16RevA.03 25-Dec-2016

 -------------------------------------
 # td=(NStates=1) CAM-B3LYP/6-31G(d,p)
 -------------------------------------

 --
 TD
 --
 Symbolic Z-matrix:
 Charge =  0 Multiplicity = 1

                         Standard orientation:
 ---------------------------------------------------------------------
 Center     Atomic      Atomic             Coordinates (Angstroms)
 Number     Number       Type             X           Y           Z
 ---------------------------------------------------------------------
      1          8           0       13.981502    1.917376    0.681741
      2          8           0      -14.634270   -1.305268    0.213176
      3          6           0       11.717924   -0.144305    1.340758
      4          6           0       10.990284   -0.440854    0.037106
      5          6           0       11.887038    1.414559    1.517398
      6          6           0       12.500324    2.093779    0.351368
      7          6           0       11.557971    0.345706   -1.146284
      8          6           0      -10.984986   -0.988964    1.316325
      9          6           0       10.784365   -0.841667    2.587814
     10          6           0       13.061276   -0.866067    1.327418
     11          6           0      -12.319361   -1.693281    0.945890
     12          6           0       12.270803    1.421210   -0.910265
     13          6           0      -13.364805   -0.670571    0.413149
     14          6           0      -10.597271   -0.047967    0.145581
     15          6           0        9.528677   -0.041976    0.119382
     16          6           0      -12.812707   -0.222022   -0.854417
     17          6           0      -11.390530    0.367186   -0.920613
     18          6           0       -9.990713   -2.020576    1.359057
     19          6           0      -10.910114   -0.133591    2.595289
     20          6           0       11.166960   -0.101173   -2.558477
     21          6           0        8.441521   -0.865034   -0.120437
     22          6           0       -9.242122    0.563813    0.276635
     23          6           0      -11.003063    0.949310   -2.346624
     24          6           0        7.054710   -0.487644   -0.185485
     25          6           0       -8.795649    1.798374   -0.124670
     26          6           0        6.766493    0.929266    0.004498
     27          6           0       -7.494034    2.307589   -0.113754
     28          6           0        6.237549   -1.495461   -0.452856
     29          6           0       -7.301852    3.774364    0.051653
     30          6           0       -6.416207    1.375946   -0.262906
     31          6           0        4.868932   -1.531040   -0.479549
     32          6           0       -5.120588    1.659200   -0.232505
     33          6           0        3.955537   -2.548510   -0.769066
     34          6           0        2.583320   -2.479361   -0.761183
     35          6           0       -3.996105    0.741954   -0.230568
     36          6           0       -2.712314    1.044139   -0.221717
     37          6           0        1.828156   -3.757695   -1.204859
     38          6           0        1.843501   -1.261139   -0.586122
     39          6           0       -1.764755   -0.070776   -0.572529
     40          6           0       -2.196397    2.418887   -0.087674
     41          6           0        0.473446   -1.253868   -0.709072
     42          6           0       -0.291847   -0.015973   -0.566410
     43          1           0       10.997742   -1.556166   -0.078820
     44          1           0       12.454587    1.493674    2.470081
     45          1           0       10.953189    1.730975    1.638364
     46          1           0       12.422329    3.148799    0.499180
     47          1           0        9.985197   -0.177335    2.801115
     48          1           0       10.367269   -1.929208    2.430945
     49          1           0       11.351560   -0.839437    3.404146
     50          1           0       13.626900   -0.791836    0.359879
     51          1           0       14.013170   -0.487971    2.092383
     52          1           0       12.882860   -1.874249    1.373581
     53          1           0      -12.359291   -2.473199    0.271847
     54          1           0      -12.687106   -2.121259    1.964015
     55          1           0       12.681760    1.811523   -1.719835
     56          1           0      -13.774283    0.368461    1.020674
     57          1           0        9.191416    0.963539    0.386690
     58          1           0      -13.508457    0.680724   -1.340139
     59          1           0      -12.905620   -1.096578   -1.583914
     60          1           0       -8.936752   -1.860625    1.729641
     61          1           0      -10.035875   -2.537343    0.446260
     62          1           0      -10.286733   -2.708091    2.145886
     63          1           0      -11.829110    0.557821    2.538409
     64          1           0       -9.953837    0.427408    2.991243
     65          1           0      -11.190390   -0.833642    3.435482
     66          1           0       10.046882   -0.177313   -2.811053
     67          1           0       11.220056   -1.218684   -2.619960
     68          1           0       11.644821    0.495997   -3.309895
     69          1           0       14.357383    2.448956   -0.016032
     70          1           0       -8.630141   -0.190709    0.653318
     71          1           0        8.625958   -2.067666   -0.335274
     72          1           0      -11.127624    2.191889   -2.233883
     73          1           0       -9.870506    0.947572   -2.379610
     74          1           0      -11.556552    0.541721   -3.218410
     75          1           0      -15.127109   -1.608676    0.967669
     76          1           0       -9.598713    2.567065   -0.308017
     77          1           0        5.791567    1.273257   -0.118624
     78          1           0        6.912481    1.524292    0.986786
     79          1           0        7.328178    1.596068   -0.770497
     80          1           0        6.846019   -2.569521   -0.599019
     81          1           0       -7.394132    4.123732    1.219691
     82          1           0       -6.431895    4.304375   -0.328787
     83          1           0       -8.304584    4.203065   -0.419201
     84          1           0       -6.817430    0.400237   -0.587013
     85          1           0        4.556418   -0.612192   -0.044245
     86          1           0       -4.795818    2.694145    0.091334
     87          1           0        4.414940   -3.546106   -0.831656
     88          1           0       -4.290816   -0.261576   -0.335636
     89          1           0        1.079390   -3.541413   -1.986396
     90          1           0        1.466708   -4.115981   -0.220777
     91          1           0        2.649071   -4.656464   -1.663897
     92          1           0        2.244746   -0.361010   -0.706434
     93          1           0       -2.136480   -1.039157   -0.707343
     94          1           0       -2.582802    2.656232    0.869230
     95          1           0       -1.171087    2.497739   -0.335198
     96          1           0       -2.777853    2.887516   -0.773894
     97          1           0       -0.047594   -2.110204   -0.982372
     98          1           0        0.357943    0.575357   -0.409036
 ---------------------------------------------------------------------

 SCF Done:  E(RCAM-B3LYP) =  -1706.85667451     A.U. after   18 cycles

 Excitation energies and oscillator strengths:

 Excited State   1:      Singlet-A      1.5630 eV  793.24 nm  f=3.0810  <S**2>=0.000
     155 ->158        -0.11783
     156 ->157         0.71446
     156 <-157        -0.16794
 This state for optimization and/or second-order correction.
 Total Energy, E(TD-HF/TD-DFT) =  -1706.79923494
 Copying the excited state density for this state as the 1-particle RhoCI density.

 The electronic state is 1-A.
 Alpha  occ. eigenvalues --  -19.20254 -19.19507 -10.32126 -10.30180 -10.28010
 Alpha  occ. eigenvalues --  -10.27910 -10.27817 -10.27764 -10.27577 -10.27466
 Alpha  occ. eigenvalues --  -10.27404 -10.27222 -10.27195 -10.27175 -10.27077
 Alpha  occ. eigenvalues --  -10.27059 -10.26666 -10.26591 -10.26553 -10.26492
 Alpha  occ. eigenvalues --  -10.26426 -10.26357 -10.26175 -10.26167 -10.26166
 Alpha  occ. eigenvalues --  -10.26121 -10.26080 -10.26011 -10.25928 -10.25686
 Alpha  occ. eigenvalues --  -10.25658 -10.25529 -10.25457 -10.25348 -10.25106
 Alpha  occ. eigenvalues --  -10.25073 -10.23975 -10.23808 -10.23798 -10.23785
 Alpha  occ. eigenvalues --  -10.23611 -10.23533  -1.08580  -1.06812  -0.94132
 Alpha  occ. eigenvalues --   -0.93647  -0.92511  -0.92183  -0.91108  -0.90367
 Alpha  occ. eigenvalues --   -0.87257  -0.87014  -0.86112  -0.85321  -0.84797
 Alpha  occ. eigenvalues --   -0.83181  -0.82631  -0.80111  -0.79473  -0.78852
 Alpha  occ. eigenvalues --   -0.77410  -0.76975  -0.76603  -0.76594  -0.75416
 Alpha  occ. eigenvalues --   -0.75291  -0.74942  -0.74569  -0.72167  -0.70811
 Alpha  occ. eigenvalues --   -0.69578  -0.68291  -0.66393  -0.65386  -0.64332
 Alpha  occ. eigenvalues --   -0.63598  -0.63165  -0.62093  -0.60239  -0.59560
 Alpha  occ. eigenvalues --   -0.59407  -0.58665  -0.58036  -0.57372  -0.56378
 Alpha  occ. eigenvalues --   -0.56139  -0.55556  -0.54970  -0.54312  -0.53832
 Alpha  occ. eigenvalues --   -0.53615  -0.52882  -0.52592  -0.52093  -0.51642
 Alpha  occ. eigenvalues --   -0.50763  -0.50480  -0.50434  -0.49794  -0.49665
 Alpha  occ. eigenvalues --   -0.49103  -0.48522  -0.48282  -0.48021  -0.47505
 Alpha  occ. eigenvalues --   -0.47446  -0.47408  -0.47063  -0.46547  -0.46246
 Alpha  occ. eigenvalues --   -0.45614  -0.45430  -0.44819  -0.44412  -0.44398
 Alpha  occ. eigenvalues --   -0.44115  -0.43928  -0.43750  -0.43426  -0.43161
 Alpha  occ. eigenvalues --   -0.42981  -0.42968  -0.42448  -0.42319  -0.41802
 Alpha  occ. eigenvalues --   -0.41616  -0.41569  -0.41366  -0.41153  -0.40804
 Alpha  occ. eigenvalues --   -0.40485  -0.40385  -0.39998  -0.39522  -0.39246
 Alpha  occ. eigenvalues --   -0.38948  -0.38881  -0.37915  -0.37597  -0.37242
 Alpha  occ. eigenvalues --   -0.37222  -0.37019  -0.35866  -0.35762  -0.34907
 Alpha  occ. eigenvalues --   -0.34744  -0.34361  -0.33635  -0.32581  -0.31641
 Alpha  occ. eigenvalues --   -0.31355  -0.29446  -0.28387  -0.26629  -0.23243
 Alpha  occ. eigenvalues --   -0.17099
 Alpha virt. eigenvalues --   -0.07745  -0.01690   0.03108   0.05082   0.06674
 Alpha virt. eigenvalues --    0.09027   0.10995   0.11429   0.12035   0.12305
 Alpha virt. eigenvalues --    0.12761   0.12923   0.13435   0.13593   0.13674

 Mulliken charges:
               1
     1  O   -0.557494
     2  O   -0.582369
     3  C    0.015993
     4  C   -0.148068
     5  C   -0.175931
     6  C    0.092408
     7  C    0.141037
     8  C    0.002790
     9  C   -0.322826
    10  C   -0.281886
    11  C   -0.199574
    12  C   -0.083320
    13  C    0.183995
    14  C    0.039132
    15  C   -0.090305
    16  C   -0.209224
    17  C    0.043415
    18  C   -0.302465
    19  C   -0.300581
    20  C   -0.364971
    21  C   -0.110971
    22  C   -0.090892
    23  C   -0.344711
    24  C    0.188116
    25  C   -0.144288
    26  C   -0.406463
    27  C    0.117071
    28  C   -0.128328
    29  C   -0.368038
    30  C   -0.101202
    31  C   -0.085703
    32  C   -0.115313
    33  C   -0.122703
    34  C    0.071432
    35  C   -0.099974
    36  C    0.084551
    37  C   -0.351676
    38  C   -0.103060
    39  C   -0.139261
    40  C   -0.360279
    41  C   -0.105359
    42  C   -0.017176
    43  H    0.091437
    44  H    0.117706
    45  H    0.094904
    46  H    0.102413
    47  H    0.103746
    48  H    0.091553
    49  H    0.112487
    50  H    0.103429
    51  H    0.079027
    52  H    0.095438
    53  H    0.129432
    54  H    0.074330
    55  H    0.060693
    56  H    0.057129
    57  H    0.086921
    58  H    0.075145
    59  H    0.105122
    60  H    0.105124
    61  H    0.111339
    62  H    0.095575
    63  H    0.100878
    64  H    0.122213
    65  H    0.086316
    66  H    0.122726
    67  H    0.109993
    68  H    0.114041
    69  H    0.289216
    70  H    0.077554
    71  H    0.055891
    72  H    0.088275
    73  H    0.131101
    74  H    0.127241
    75  H    0.307158
    76  H    0.078482
    77  H    0.117909
    78  H    0.116802
    79  H    0.116937
    80  H    0.057832
    81  H    0.102252
    82  H    0.125380
    83  H    0.099175
    84  H    0.085638
    85  H    0.079401
    86  H    0.069866
    87  H    0.082261
    88  H    0.076220
    89  H    0.132112
    90  H    0.135665
    91  H    0.077198
    92  H    0.089241
    93  H    0.085519
    94  H    0.130682
    95  H    0.118357
    96  H    0.137413
    97  H    0.073604
    98  H    0.020975
 Sum of Mulliken charges =  -0.00000

 Dipole moment (field-independent basis, Debye):
    X=             -1.4096    Y=              1.0191    Z=             -0.1294  Tot=              1.7442
 Quadrupole moment (field-independent basis, Debye-Ang):
   XX=           -286.9653   YY=           -242.0126   ZZ=           -260.4575
   XY=             19.0136   XZ=            -38.0928   YZ=             -2.3745

 Normal termination of Gaussian 16 at Sat Jul 13 16:47:24 2019.
