 Gaussian 16, Revision A.03,
 Gaussian 16:  ES64L-G16RevA.03 25-Dec-2016

 -------------------------------------
 # td=(NStates=1) CAM-B3LYP/6-31G(d,p)
 -------------------------------------

 --
 TD
 --
 Symbolic Z-matrix:
 Charge =  0 Multiplicity = 1

                         Standard orientation:
 ---------------------------------------------------------------------
 Center     Atomic      Atomic             Coordinates (Angstroms)
 Number     Number       Type             X           Y           Z
 ---------------------------------------------------------------------
      1          8           0      -14.222989   -1.722959    0.772621
      2          8           0       14.917741    0.962386    0.175538
      3          6           0      -11.945376    0.235259    1.228858
      4          6           0      -11.096789    0.346813   -0.101001
      5          6           0      -12.146211   -1.181827    1.668520
      6          6           0      -12.897851   -1.989152    0.588346
      7          6           0      -11.688365   -0.526422   -1.178237
      8          6           0       11.142321    1.119827    1.052131
      9          6           0      -11.113238    0.914398    2.428526
     10          6           0      -13.268281    0.924594    1.032502
     11          6           0       12.622938    1.533660    0.822727
     12          6           0      -12.387712   -1.729108   -0.821424
     13          6           0       13.608493    0.389656    0.528638
     14          6           0       10.694798    0.070002    0.030674
     15          6           0       -9.654744   -0.034285    0.055199
     16          6           0       13.083218   -0.240245   -0.792393
     17          6           0       11.725900   -0.601348   -0.856437
     18          6           0       10.258054    2.285797    1.014441
     19          6           0       10.949554    0.443393    2.530345
     20          6           0      -11.388712   -0.180782   -2.637214
     21          6           0       -8.654953    0.805561   -0.273868
     22          6           0        9.390493   -0.355523    0.124137
     23          6           0       11.341809   -1.541760   -2.002119
     24          6           0       -7.169494    0.485683   -0.164298
     25          6           0        8.836491   -1.550344   -0.109762
     26          6           0       -6.788234   -0.895997    0.179206
     27          6           0        7.526513   -2.081522   -0.220508
     28          6           0       -6.246867    1.374356   -0.658354
     29          6           0        7.229106   -3.543171    0.168277
     30          6           0        6.389141   -1.217414   -0.272246
     31          6           0       -4.865302    1.352087   -0.425246
     32          6           0        5.069156   -1.527747   -0.144392
     33          6           0       -4.006180    2.403402   -0.733011
     34          6           0       -2.629403    2.445744   -0.804580
     35          6           0        4.086653   -0.637899   -0.343758
     36          6           0        2.732728   -0.818043   -0.124353
     37          6           0       -1.856026    3.780349   -1.241419
     38          6           0       -1.729001    1.339614   -0.581201
     39          6           0        1.843186    0.249952   -0.404144
     40          6           0        2.181911   -2.273647    0.217890
     41          6           0       -0.355399    1.342694   -0.580970
     42          6           0        0.456144    0.249177   -0.292757
     43          1           0      -11.055270    1.339025   -0.365450
     44          1           0      -12.710838   -1.462428    2.623723
     45          1           0      -11.070126   -1.702705    1.688987
     46          1           0      -12.765490   -3.079931    0.801409
     47          1           0      -10.123060    0.528865    2.611243
     48          1           0      -11.138360    2.085710    2.207705
     49          1           0      -11.642436    0.625814    3.333347
     50          1           0      -13.838817    0.509329    0.294795
     51          1           0      -13.889050    0.890747    2.086230
     52          1           0      -13.160980    2.041585    0.894385
     53          1           0       12.728109    2.229532   -0.126828
     54          1           0       13.039551    2.150399    1.699686
     55          1           0      -12.624483   -2.473802   -1.626460
     56          1           0       13.631508   -0.258623    1.412161
     57          1           0       -9.577139   -1.078361    0.372636
     58          1           0       13.682247   -1.117161   -1.072175
     59          1           0       13.413399    0.555246   -1.468184
     60          1           0        9.171680    2.140724    1.452637
     61          1           0       10.314705    2.737979    0.000523
     62          1           0       10.673231    3.129476    1.692810
     63          1           0       11.656240   -0.295111    2.599445
     64          1           0       10.068394    0.015500    2.577451
     65          1           0       11.125548    1.321633    3.248161
     66          1           0      -10.144483   -0.079253   -2.731489
     67          1           0      -12.050344    0.647927   -2.955296
     68          1           0      -11.721678   -1.036272   -3.402368
     69          1           0      -14.739953   -2.225882    0.102331
     70          1           0        8.567197    0.408504    0.208440
     71          1           0       -8.979806    1.946978   -0.527097
     72          1           0       11.615185   -2.586281   -1.577048
     73          1           0       10.243391   -1.327651   -1.887196
     74          1           0       11.860610   -1.316408   -2.824209
     75          1           0       15.297313    1.412803    0.986816
     76          1           0        9.636490   -2.514171   -0.216892
     77          1           0       -5.699458   -1.167928    0.025475
     78          1           0       -7.112134   -0.990522    1.056883
     79          1           0       -7.454999   -1.658795   -0.378558
     80          1           0       -6.733602    2.201030   -1.267931
     81          1           0        6.935152   -3.739827    1.283302
     82          1           0        6.594914   -4.054991   -0.451396
     83          1           0        8.204723   -4.072160   -0.167488
     84          1           0        6.542436   -0.200032   -0.676921
     85          1           0       -4.276117    0.467673    0.030575
     86          1           0        4.736521   -2.640147   -0.086896
     87          1           0       -4.581883    3.096976   -1.206094
     88          1           0        4.237754    0.370532   -0.443875
     89          1           0       -1.186248    3.620101   -2.061895
     90          1           0       -1.244037    4.091024   -0.452546
     91          1           0       -2.499241    4.600332   -1.606479
     92          1           0       -2.050711    0.320445   -0.054781
     93          1           0        2.490982    1.191346   -0.617906
     94          1           0        2.267384   -2.416068    1.338191
     95          1           0        1.172432   -2.289600   -0.024866
     96          1           0        2.578735   -3.190411   -0.299769
     97          1           0        0.298395    2.202665   -0.894628
     98          1           0        0.045680   -0.815493   -0.182241
 ---------------------------------------------------------------------

 SCF Done:  E(RCAM-B3LYP) =  -1706.97570381     A.U. after   16 cycles

 Excitation energies and oscillator strengths:

 Excited State   1:      Singlet-A      1.8209 eV  680.89 nm  f=3.3372  <S**2>=0.000
     155 ->158        -0.14198
     156 ->157         0.69721
     156 <-157        -0.11187
 This state for optimization and/or second-order correction.
 Total Energy, E(TD-HF/TD-DFT) =  -1706.90878667
 Copying the excited state density for this state as the 1-particle RhoCI density.

 The electronic state is 1-A.
 Alpha  occ. eigenvalues --  -19.21694 -19.21529 -10.30907 -10.30424 -10.28698
 Alpha  occ. eigenvalues --  -10.28431 -10.28211 -10.28177 -10.28103 -10.27766
 Alpha  occ. eigenvalues --  -10.27526 -10.27314 -10.27305 -10.27192 -10.27187
 Alpha  occ. eigenvalues --  -10.27148 -10.26973 -10.26912 -10.26758 -10.26737
 Alpha  occ. eigenvalues --  -10.26694 -10.26575 -10.26369 -10.26309 -10.26219
 Alpha  occ. eigenvalues --  -10.26090 -10.26003 -10.25870 -10.25774 -10.25755
 Alpha  occ. eigenvalues --  -10.25626 -10.25434 -10.25236 -10.25226 -10.25211
 Alpha  occ. eigenvalues --  -10.24927 -10.24778 -10.24755 -10.24721 -10.24683
 Alpha  occ. eigenvalues --  -10.23819 -10.23186  -1.11440  -1.07526  -0.93579
 Alpha  occ. eigenvalues --   -0.93231  -0.92156  -0.91627  -0.90303  -0.89341
 Alpha  occ. eigenvalues --   -0.87622  -0.87506  -0.86210  -0.85408  -0.84375
 Alpha  occ. eigenvalues --   -0.83200  -0.81890  -0.80337  -0.80191  -0.78069
 Alpha  occ. eigenvalues --   -0.77365  -0.76529  -0.76255  -0.75676  -0.75566
 Alpha  occ. eigenvalues --   -0.75119  -0.74952  -0.73865  -0.72421  -0.70522
 Alpha  occ. eigenvalues --   -0.68885  -0.67260  -0.66349  -0.64582  -0.63227
 Alpha  occ. eigenvalues --   -0.62794  -0.62580  -0.61178  -0.60437  -0.59928
 Alpha  occ. eigenvalues --   -0.59588  -0.59111  -0.58949  -0.57513  -0.56204
 Alpha  occ. eigenvalues --   -0.55054  -0.54930  -0.54520  -0.54114  -0.53756
 Alpha  occ. eigenvalues --   -0.53180  -0.52348  -0.52104  -0.51588  -0.50742
 Alpha  occ. eigenvalues --   -0.50483  -0.50008  -0.49835  -0.49195  -0.48939
 Alpha  occ. eigenvalues --   -0.48864  -0.48479  -0.48436  -0.48276  -0.47851
 Alpha  occ. eigenvalues --   -0.47714  -0.47415  -0.47203  -0.46862  -0.46683
 Alpha  occ. eigenvalues --   -0.45804  -0.45638  -0.45372  -0.45026  -0.44383
 Alpha  occ. eigenvalues --   -0.44053  -0.43756  -0.43564  -0.43263  -0.43108
 Alpha  occ. eigenvalues --   -0.42781  -0.42541  -0.42407  -0.42135  -0.41831
 Alpha  occ. eigenvalues --   -0.41775  -0.41561  -0.41422  -0.41360  -0.41025
 Alpha  occ. eigenvalues --   -0.40896  -0.40579  -0.39880  -0.39667  -0.39300
 Alpha  occ. eigenvalues --   -0.39011  -0.38763  -0.38709  -0.38055  -0.37704
 Alpha  occ. eigenvalues --   -0.37577  -0.37247  -0.36929  -0.36128  -0.35556
 Alpha  occ. eigenvalues --   -0.34911  -0.34366  -0.33584  -0.32547  -0.31846
 Alpha  occ. eigenvalues --   -0.31799  -0.28974  -0.28456  -0.26298  -0.22925
 Alpha  occ. eigenvalues --   -0.18419
 Alpha virt. eigenvalues --   -0.07065  -0.01798   0.02060   0.04146   0.06052
 Alpha virt. eigenvalues --    0.08745   0.10961   0.11956   0.12070   0.12279
 Alpha virt. eigenvalues --    0.12589   0.12911   0.13047   0.13459   0.13767

 Mulliken charges:
               1
     1  O   -0.518760
     2  O   -0.568772
     3  C    0.023836
     4  C   -0.122240
     5  C   -0.168439
     6  C    0.141935
     7  C    0.103778
     8  C   -0.006118
     9  C   -0.300019
    10  C   -0.272499
    11  C   -0.186937
    12  C   -0.160529
    13  C    0.145609
    14  C    0.062324
    15  C   -0.057875
    16  C   -0.228370
    17  C    0.036935
    18  C   -0.295253
    19  C   -0.293410
    20  C   -0.348838
    21  C   -0.118796
    22  C   -0.125374
    23  C   -0.337976
    24  C    0.092914
    25  C   -0.107377
    26  C   -0.355286
    27  C    0.050152
    28  C   -0.138319
    29  C   -0.354947
    30  C   -0.117049
    31  C   -0.059483
    32  C   -0.069933
    33  C   -0.118595
    34  C    0.072517
    35  C   -0.093787
    36  C    0.091258
    37  C   -0.374094
    38  C   -0.131491
    39  C   -0.125791
    40  C   -0.371926
    41  C   -0.061740
    42  C   -0.098744
    43  H    0.085333
    44  H    0.109656
    45  H    0.066883
    46  H    0.059084
    47  H    0.108086
    48  H    0.078025
    49  H    0.100760
    50  H    0.128870
    51  H    0.074649
    52  H    0.076485
    53  H    0.088951
    54  H    0.065976
    55  H    0.078148
    56  H    0.090866
    57  H    0.093574
    58  H    0.104563
    59  H    0.137348
    60  H    0.097987
    61  H    0.103093
    62  H    0.084303
    63  H    0.101793
    64  H    0.122660
    65  H    0.086160
    66  H    0.104266
    67  H    0.128364
    68  H    0.094827
    69  H    0.303044
    70  H    0.083858
    71  H    0.083901
    72  H    0.106922
    73  H    0.133214
    74  H    0.120190
    75  H    0.307503
    76  H    0.047372
    77  H    0.113483
    78  H    0.136709
    79  H    0.112349
    80  H    0.087412
    81  H    0.119511
    82  H    0.127550
    83  H    0.090095
    84  H    0.082902
    85  H    0.082064
    86  H    0.081810
    87  H    0.075944
    88  H    0.069678
    89  H    0.127148
    90  H    0.135487
    91  H    0.105935
    92  H    0.074346
    93  H    0.074576
    94  H    0.120877
    95  H    0.111500
    96  H    0.114977
    97  H    0.083849
    98  H    0.082593
 Sum of Mulliken charges =  -0.00000

 Dipole moment (field-independent basis, Debye):
    X=             -1.7654    Y=             -1.0689    Z=             -0.2398  Tot=              2.0777
 Quadrupole moment (field-independent basis, Debye-Ang):
   XX=           -255.1023   YY=           -245.1743   ZZ=           -262.8500
   XY=             17.5571   XZ=             34.5942   YZ=             -1.0841

 Normal termination of Gaussian 16 at Sun Jul 14 05:14:52 2019.
