 Gaussian 16, Revision A.03,
 Gaussian 16:  ES64L-G16RevA.03 25-Dec-2016

 -------------------------------------
 # td=(NStates=1) CAM-B3LYP/6-31G(d,p)
 -------------------------------------

 --
 TD
 --
 Symbolic Z-matrix:
 Charge =  0 Multiplicity = 1

                         Standard orientation:
 ---------------------------------------------------------------------
 Center     Atomic      Atomic             Coordinates (Angstroms)
 Number     Number       Type             X           Y           Z
 ---------------------------------------------------------------------
      1          8           0      -14.285129   -1.895836    0.576243
      2          8           0       14.857662    0.979420    0.272898
      3          6           0      -11.814084    0.092574    1.288420
      4          6           0      -11.067364    0.404837   -0.018965
      5          6           0      -12.092590   -1.449692    1.497290
      6          6           0      -12.878381   -2.001852    0.244969
      7          6           0      -11.701478   -0.272654   -1.252813
      8          6           0       11.147702    1.158652    0.993254
      9          6           0      -11.041038    0.709276    2.509249
     10          6           0      -13.191285    0.900187    1.244346
     11          6           0       12.547000    1.737316    0.594472
     12          6           0      -12.556814   -1.420457   -1.080936
     13          6           0       13.487494    0.546667    0.358003
     14          6           0       10.716423   -0.034246   -0.038447
     15          6           0       -9.622658   -0.007192    0.028320
     16          6           0       13.151301   -0.122748   -0.863114
     17          6           0       11.653849   -0.613961   -0.896761
     18          6           0       10.199134    2.374723    0.761895
     19          6           0       10.998217    0.702827    2.380090
     20          6           0      -11.351779    0.248524   -2.570245
     21          6           0       -8.521072    0.754663   -0.276614
     22          6           0        9.269893   -0.482374    0.061562
     23          6           0       11.300639   -1.670001   -1.839910
     24          6           0       -7.125968    0.486775   -0.187757
     25          6           0        8.838278   -1.746011   -0.100012
     26          6           0       -6.735510   -0.915060    0.249391
     27          6           0        7.552738   -2.166637    0.083781
     28          6           0       -6.240457    1.357216   -0.497161
     29          6           0        7.319931   -3.598707    0.364420
     30          6           0        6.452056   -1.275534   -0.242600
     31          6           0       -4.748169    1.268443   -0.466526
     32          6           0        5.040195   -1.544327   -0.029836
     33          6           0       -4.025974    2.413258   -0.733630
     34          6           0       -2.529569    2.405409   -0.717127
     35          6           0        4.050057   -0.658675   -0.319100
     36          6           0        2.719059   -0.883016   -0.213439
     37          6           0       -2.017501    3.741655   -0.892983
     38          6           0       -1.827619    1.328790   -0.430178
     39          6           0        1.762359    0.183188   -0.403976
     40          6           0        2.288869   -2.273410    0.230483
     41          6           0       -0.379434    1.275867   -0.464224
     42          6           0        0.415957    0.154208   -0.328232
     43          1           0      -10.979976    1.596566   -0.310383
     44          1           0      -12.493544   -1.447735    2.445535
     45          1           0      -11.173584   -1.827388    1.509580
     46          1           0      -12.788800   -3.003939    0.203118
     47          1           0       -9.890261    0.412384    2.420447
     48          1           0      -11.096612    1.811376    2.412542
     49          1           0      -11.396134    0.508201    3.440699
     50          1           0      -13.717438    0.247107    0.411507
     51          1           0      -13.798334    0.945884    2.202599
     52          1           0      -13.014802    1.862540    0.827088
     53          1           0       12.198176    2.224208   -0.241501
     54          1           0       12.842752    2.507491    1.414434
     55          1           0      -12.841527   -1.998654   -1.939460
     56          1           0       13.405238    0.119217    1.462442
     57          1           0       -9.517240   -1.027116    0.438220
     58          1           0       13.793211   -1.012251   -1.073447
     59          1           0       13.588156    0.438677   -1.648391
     60          1           0        9.151467    2.043699    1.012940
     61          1           0       10.175774    2.560521   -0.220398
     62          1           0       10.334697    3.243104    1.139007
     63          1           0       11.695733   -0.212793    2.483145
     64          1           0        9.883926    0.364497    2.521261
     65          1           0       11.255708    1.501744    3.144221
     66          1           0      -10.197472   -0.066728   -2.723585
     67          1           0      -11.386603    1.302153   -2.792963
     68          1           0      -11.935027   -0.361543   -3.500773
     69          1           0      -14.697071   -2.472956   -0.118473
     70          1           0        8.466209    0.215999    0.438396
     71          1           0       -8.729368    1.824976   -0.543644
     72          1           0       11.708142   -2.650883   -1.459459
     73          1           0       10.331433   -1.848288   -2.143939
     74          1           0       12.006170   -1.655180   -2.885879
     75          1           0       15.019514    1.459453    0.984612
     76          1           0        9.554678   -2.426607   -0.310323
     77          1           0       -5.660348   -0.964172    0.297557
     78          1           0       -7.261402   -1.053342    1.331377
     79          1           0       -7.286438   -1.489100   -0.334960
     80          1           0       -6.628284    2.301385   -0.936775
     81          1           0        6.582582   -3.795222    1.143346
     82          1           0        6.892279   -4.151274   -0.545867
     83          1           0        8.174586   -4.020264    0.569077
     84          1           0        6.588174   -0.172029   -0.583581
     85          1           0       -4.218783    0.336345   -0.225193
     86          1           0        4.743395   -2.506742    0.349563
     87          1           0       -4.503119    3.347454   -0.750837
     88          1           0        4.331808    0.284043   -0.776312
     89          1           0       -1.256251    3.733728   -1.714159
     90          1           0       -1.285223    3.989422   -0.049246
     91          1           0       -2.725861    4.518339   -1.031760
     92          1           0       -2.153358    0.340829   -0.205606
     93          1           0        2.174157    1.167577   -0.688025
     94          1           0        2.684075   -2.397139    1.175990
     95          1           0        1.087627   -2.364985    0.182407
     96          1           0        2.741730   -3.002879   -0.371629
     97          1           0       -0.013211    2.184183   -0.685021
     98          1           0       -0.000033   -0.783567   -0.094801
 ---------------------------------------------------------------------

 SCF Done:  E(RCAM-B3LYP) =  -1706.98387475     A.U. after   15 cycles

 Excitation energies and oscillator strengths:

 Excited State   1:      Singlet-A      2.1956 eV  564.68 nm  f=3.0299  <S**2>=0.000
     155 ->158        -0.14703
     156 ->157         0.69193
 This state for optimization and/or second-order correction.
 Total Energy, E(TD-HF/TD-DFT) =  -1706.90318631
 Copying the excited state density for this state as the 1-particle RhoCI density.

 The electronic state is 1-A.
 Alpha  occ. eigenvalues --  -19.20663 -19.19538 -10.30942 -10.30013 -10.28790
 Alpha  occ. eigenvalues --  -10.28285 -10.28183 -10.27661 -10.27567 -10.27408
 Alpha  occ. eigenvalues --  -10.27254 -10.27150 -10.27100 -10.27017 -10.26968
 Alpha  occ. eigenvalues --  -10.26900 -10.26817 -10.26587 -10.26543 -10.26481
 Alpha  occ. eigenvalues --  -10.26352 -10.26084 -10.26068 -10.25892 -10.25847
 Alpha  occ. eigenvalues --  -10.25825 -10.25762 -10.25591 -10.25567 -10.25554
 Alpha  occ. eigenvalues --  -10.25503 -10.25453 -10.25123 -10.25015 -10.24888
 Alpha  occ. eigenvalues --  -10.24804 -10.24756 -10.24353 -10.23987 -10.23878
 Alpha  occ. eigenvalues --  -10.23291 -10.22101  -1.10592  -1.08356  -0.93344
 Alpha  occ. eigenvalues --   -0.93193  -0.92667  -0.92061  -0.91401  -0.90951
 Alpha  occ. eigenvalues --   -0.87877  -0.87507  -0.85960  -0.85278  -0.84919
 Alpha  occ. eigenvalues --   -0.83279  -0.82365  -0.81161  -0.80360  -0.79382
 Alpha  occ. eigenvalues --   -0.77436  -0.77218  -0.76451  -0.76378  -0.75951
 Alpha  occ. eigenvalues --   -0.75660  -0.75204  -0.73863  -0.73045  -0.70373
 Alpha  occ. eigenvalues --   -0.68982  -0.67894  -0.66827  -0.65849  -0.63580
 Alpha  occ. eigenvalues --   -0.63390  -0.62993  -0.62451  -0.61166  -0.60049
 Alpha  occ. eigenvalues --   -0.59212  -0.58955  -0.58479  -0.58127  -0.57344
 Alpha  occ. eigenvalues --   -0.56306  -0.55631  -0.54774  -0.54605  -0.54332
 Alpha  occ. eigenvalues --   -0.53573  -0.52801  -0.52505  -0.52213  -0.51726
 Alpha  occ. eigenvalues --   -0.51162  -0.50438  -0.49918  -0.49666  -0.49610
 Alpha  occ. eigenvalues --   -0.49150  -0.48900  -0.48204  -0.47953  -0.47787
 Alpha  occ. eigenvalues --   -0.47744  -0.47563  -0.47413  -0.46728  -0.46522
 Alpha  occ. eigenvalues --   -0.46340  -0.46216  -0.46033  -0.45656  -0.45377
 Alpha  occ. eigenvalues --   -0.45339  -0.44940  -0.44775  -0.44420  -0.44285
 Alpha  occ. eigenvalues --   -0.44245  -0.43679  -0.43265  -0.42774  -0.42620
 Alpha  occ. eigenvalues --   -0.42227  -0.42160  -0.41030  -0.40970  -0.40821
 Alpha  occ. eigenvalues --   -0.40468  -0.40298  -0.40200  -0.39676  -0.39146
 Alpha  occ. eigenvalues --   -0.38898  -0.38603  -0.38450  -0.38231  -0.38113
 Alpha  occ. eigenvalues --   -0.37946  -0.37727  -0.37077  -0.35834  -0.35544
 Alpha  occ. eigenvalues --   -0.35107  -0.34568  -0.33632  -0.31962  -0.31669
 Alpha  occ. eigenvalues --   -0.30817  -0.29399  -0.28023  -0.26725  -0.24239
 Alpha  occ. eigenvalues --   -0.19264
 Alpha virt. eigenvalues --   -0.05691  -0.00839   0.02157   0.04096   0.06668
 Alpha virt. eigenvalues --    0.08500   0.11502   0.12373   0.12551   0.12754
 Alpha virt. eigenvalues --    0.13174   0.13280   0.13535   0.13767   0.14375

 Mulliken charges:
               1
     1  O   -0.540614
     2  O   -0.553768
     3  C   -0.015543
     4  C   -0.126067
     5  C   -0.154282
     6  C    0.109168
     7  C    0.136585
     8  C   -0.037598
     9  C   -0.301554
    10  C   -0.297763
    11  C   -0.187641
    12  C   -0.139281
    13  C    0.185233
    14  C    0.030252
    15  C   -0.091833
    16  C   -0.229410
    17  C    0.081990
    18  C   -0.306739
    19  C   -0.273227
    20  C   -0.358447
    21  C   -0.108086
    22  C   -0.114119
    23  C   -0.383665
    24  C    0.151683
    25  C   -0.084610
    26  C   -0.345217
    27  C    0.061650
    28  C   -0.160296
    29  C   -0.365431
    30  C   -0.128366
    31  C   -0.071095
    32  C   -0.089903
    33  C   -0.125445
    34  C    0.118623
    35  C   -0.095185
    36  C    0.089573
    37  C   -0.400172
    38  C   -0.104287
    39  C   -0.120582
    40  C   -0.373526
    41  C   -0.089466
    42  C   -0.061350
    43  H    0.072598
    44  H    0.119748
    45  H    0.099210
    46  H    0.089170
    47  H    0.077674
    48  H    0.097267
    49  H    0.106388
    50  H    0.119098
    51  H    0.091245
    52  H    0.092312
    53  H    0.106367
    54  H    0.074852
    55  H    0.081446
    56  H    0.065468
    57  H    0.084942
    58  H    0.108133
    59  H    0.140122
    60  H    0.081465
    61  H    0.113301
    62  H    0.107871
    63  H    0.092418
    64  H    0.095612
    65  H    0.092470
    66  H    0.112538
    67  H    0.129112
    68  H    0.085862
    69  H    0.296568
    70  H    0.090747
    71  H    0.070325
    72  H    0.119325
    73  H    0.140676
    74  H    0.074436
    75  H    0.285520
    76  H    0.081681
    77  H    0.105544
    78  H    0.092352
    79  H    0.134685
    80  H    0.074124
    81  H    0.122154
    82  H    0.116078
    83  H    0.117919
    84  H    0.081003
    85  H    0.096195
    86  H    0.072497
    87  H    0.088932
    88  H    0.076616
    89  H    0.123779
    90  H    0.123049
    91  H    0.119965
    92  H    0.073841
    93  H    0.072869
    94  H    0.137654
    95  H    0.088282
    96  H    0.128904
    97  H    0.058135
    98  H    0.069265
 Sum of Mulliken charges =  -0.00000

 Dipole moment (field-independent basis, Debye):
    X=              0.2300    Y=             -0.8860    Z=             -0.5950  Tot=              1.0917
 Quadrupole moment (field-independent basis, Debye-Ang):
   XX=           -303.8612   YY=           -237.0606   ZZ=           -261.4139
   XY=             11.5777   XZ=             29.2353   YZ=              2.1656

 Normal termination of Gaussian 16 at Tue Jul 16 05:41:35 2019.
