 Gaussian 16, Revision A.03,
 Gaussian 16:  ES64L-G16RevA.03 25-Dec-2016

 -------------------------------------
 # td=(NStates=1) CAM-B3LYP/6-31G(d,p)
 -------------------------------------

 --
 TD
 --
 Symbolic Z-matrix:
 Charge =  0 Multiplicity = 1

                         Standard orientation:
 ---------------------------------------------------------------------
 Center     Atomic      Atomic             Coordinates (Angstroms)
 Number     Number       Type             X           Y           Z
 ---------------------------------------------------------------------
      1          8           0      -13.998745   -2.079661    0.543173
      2          8           0       14.817799    0.814609    0.190572
      3          6           0      -11.745904   -0.037767    1.288380
      4          6           0      -10.977666    0.273089    0.000900
      5          6           0      -11.936706   -1.548369    1.503418
      6          6           0      -12.620033   -2.261299    0.378744
      7          6           0      -11.649124   -0.463779   -1.139590
      8          6           0       11.227060    0.927431    1.171961
      9          6           0      -10.907131    0.494669    2.538346
     10          6           0      -13.104548    0.714689    1.123580
     11          6           0       12.622815    1.393556    0.841313
     12          6           0      -12.270711   -1.690698   -0.989799
     13          6           0       13.553486    0.309611    0.416655
     14          6           0       10.746782   -0.083939    0.088245
     15          6           0       -9.504454   -0.031180    0.114869
     16          6           0       13.089757   -0.354582   -0.830707
     17          6           0       11.619398   -0.545307   -0.872680
     18          6           0       10.285561    2.108316    1.092970
     19          6           0       11.170737    0.289367    2.528578
     20          6           0      -11.467219    0.166856   -2.482064
     21          6           0       -8.526937    0.864044   -0.229051
     22          6           0        9.269299   -0.562630    0.148573
     23          6           0       11.154206   -1.481975   -2.045728
     24          6           0       -7.209062    0.588890   -0.056811
     25          6           0        8.740628   -1.746007   -0.183549
     26          6           0       -6.690008   -0.804316    0.265561
     27          6           0        7.354313   -2.028711   -0.131649
     28          6           0       -6.258975    1.536484   -0.374543
     29          6           0        6.973295   -3.493573    0.037063
     30          6           0        6.363747   -1.040412   -0.303046
     31          6           0       -4.886870    1.537729   -0.438116
     32          6           0        5.013275   -1.368032   -0.168145
     33          6           0       -4.093739    2.655683   -0.611493
     34          6           0       -2.668854    2.751719   -0.754231
     35          6           0        4.028753   -0.499689   -0.406424
     36          6           0        2.668490   -0.711849   -0.230014
     37          6           0       -2.050458    4.137339   -0.833430
     38          6           0       -1.836500    1.601981   -0.561931
     39          6           0        1.762337    0.324338   -0.492980
     40          6           0        2.135734   -2.116201   -0.081469
     41          6           0       -0.486698    1.618453   -0.686016
     42          6           0        0.287572    0.418066   -0.549195
     43          1           0      -10.939157    1.264465   -0.088795
     44          1           0      -12.621106   -1.908165    2.470003
     45          1           0      -10.827846   -2.087818    1.741389
     46          1           0      -12.566838   -3.456410    0.439666
     47          1           0      -10.065441    0.017247    2.605536
     48          1           0      -10.626039    1.691852    2.439337
     49          1           0      -11.204912    0.251694    3.462858
     50          1           0      -13.767057    0.314647    0.275620
     51          1           0      -13.915954    0.650209    2.058217
     52          1           0      -12.893455    1.762528    0.984043
     53          1           0       12.381368    2.068917    0.088817
     54          1           0       12.873611    2.104162    1.790032
     55          1           0      -12.486843   -2.262739   -2.089206
     56          1           0       13.536559   -0.359142    1.206959
     57          1           0       -9.171133   -0.994936    0.452133
     58          1           0       13.826434   -1.311176   -0.941061
     59          1           0       13.290304    0.305770   -1.635631
     60          1           0        9.065355    1.862269    1.239930
     61          1           0        9.996466    2.727737   -0.071162
     62          1           0       10.471565    2.843389    1.873362
     63          1           0       11.995638   -0.355987    2.862520
     64          1           0       10.343844   -0.262503    2.800322
     65          1           0       11.410051    1.011197    3.202050
     66          1           0      -10.370627    0.509289   -2.782845
     67          1           0      -12.011304    1.130809   -2.571790
     68          1           0      -11.909240   -0.591690   -3.273539
     69          1           0      -14.432035   -2.919143   -0.186669
     70          1           0        8.598155    0.251162    0.653015
     71          1           0       -8.824539    1.858931   -0.502546
     72          1           0       11.378563   -2.470827   -1.871583
     73          1           0       10.032492   -1.291803   -2.035995
     74          1           0       11.772300   -1.097843   -2.924756
     75          1           0       15.215112    1.424837    1.031116
     76          1           0        9.454847   -2.731020   -0.352572
     77          1           0       -5.653556   -0.779412    0.086925
     78          1           0       -6.752853   -1.122505    1.399344
     79          1           0       -7.079993   -1.531424   -0.304637
     80          1           0       -6.711131    2.451449   -0.715508
     81          1           0        5.887997   -3.803855    0.663719
     82          1           0        6.646511   -3.827821   -1.099051
     83          1           0        7.988160   -4.127312    0.300846
     84          1           0        6.728085    0.041226   -0.534050
     85          1           0       -4.084033    0.747753   -0.389259
     86          1           0        4.825709   -2.531261   -0.203146
     87          1           0       -4.756488    3.655039   -0.773831
     88          1           0        4.274179    0.513144   -0.635930
     89          1           0       -1.357587    4.167119   -1.561080
     90          1           0       -1.659795    4.290300    0.188738
     91          1           0       -2.842102    4.783994   -1.173243
     92          1           0       -2.252872    0.654663   -0.648254
     93          1           0        2.206686    1.258004   -0.535221
     94          1           0        2.335314   -2.524704    0.966978
     95          1           0        0.943622   -2.105846   -0.397019
     96          1           0        2.783833   -2.927146   -0.710934
     97          1           0        0.140251    2.327112   -0.496848
     98          1           0       -0.225400   -0.489990   -0.166225
 ---------------------------------------------------------------------

 SCF Done:  E(RCAM-B3LYP) =  -1706.83081554     A.U. after   15 cycles

 Excitation energies and oscillator strengths:

 Excited State   1:      Singlet-A      1.9627 eV  631.71 nm  f=3.0906  <S**2>=0.000
     155 ->158        -0.14034
     156 ->157         0.69643
     156 <-157        -0.10024
 This state for optimization and/or second-order correction.
 Total Energy, E(TD-HF/TD-DFT) =  -1706.75868858
 Copying the excited state density for this state as the 1-particle RhoCI density.

 The electronic state is 1-A.
 Alpha  occ. eigenvalues --  -19.22569 -19.21632 -10.31877 -10.29900 -10.29055
 Alpha  occ. eigenvalues --  -10.28217 -10.28079 -10.27894 -10.27792 -10.27780
 Alpha  occ. eigenvalues --  -10.27547 -10.27531 -10.27357 -10.27327 -10.27256
 Alpha  occ. eigenvalues --  -10.27248 -10.27184 -10.27138 -10.27055 -10.26830
 Alpha  occ. eigenvalues --  -10.26816 -10.26767 -10.26608 -10.26466 -10.26346
 Alpha  occ. eigenvalues --  -10.26177 -10.26079 -10.26042 -10.25692 -10.25673
 Alpha  occ. eigenvalues --  -10.25619 -10.25510 -10.25340 -10.25326 -10.25025
 Alpha  occ. eigenvalues --  -10.24795 -10.24781 -10.24774 -10.24747 -10.24655
 Alpha  occ. eigenvalues --  -10.23347 -10.23102  -1.08547  -1.08257  -0.93939
 Alpha  occ. eigenvalues --   -0.93862  -0.92325  -0.92036  -0.91124  -0.90056
 Alpha  occ. eigenvalues --   -0.87516  -0.87286  -0.85601  -0.85438  -0.84395
 Alpha  occ. eigenvalues --   -0.82761  -0.82229  -0.79942  -0.79562  -0.78011
 Alpha  occ. eigenvalues --   -0.77451  -0.77336  -0.76888  -0.75462  -0.75244
 Alpha  occ. eigenvalues --   -0.74776  -0.74524  -0.73999  -0.72590  -0.70031
 Alpha  occ. eigenvalues --   -0.68723  -0.66930  -0.66309  -0.64900  -0.63807
 Alpha  occ. eigenvalues --   -0.63646  -0.62497  -0.62351  -0.60587  -0.59982
 Alpha  occ. eigenvalues --   -0.59020  -0.58797  -0.57682  -0.57134  -0.56214
 Alpha  occ. eigenvalues --   -0.55990  -0.55005  -0.54309  -0.54027  -0.53729
 Alpha  occ. eigenvalues --   -0.53480  -0.52678  -0.52261  -0.51538  -0.51056
 Alpha  occ. eigenvalues --   -0.50754  -0.50469  -0.49628  -0.49218  -0.49109
 Alpha  occ. eigenvalues --   -0.48621  -0.48355  -0.48219  -0.47432  -0.47287
 Alpha  occ. eigenvalues --   -0.47149  -0.47085  -0.46409  -0.46010  -0.45866
 Alpha  occ. eigenvalues --   -0.45613  -0.45189  -0.44859  -0.44658  -0.44458
 Alpha  occ. eigenvalues --   -0.44306  -0.44077  -0.43901  -0.43301  -0.43039
 Alpha  occ. eigenvalues --   -0.42806  -0.42697  -0.42507  -0.42003  -0.41880
 Alpha  occ. eigenvalues --   -0.41743  -0.41321  -0.41206  -0.40929  -0.40566
 Alpha  occ. eigenvalues --   -0.40342  -0.40126  -0.39961  -0.39540  -0.39326
 Alpha  occ. eigenvalues --   -0.38948  -0.38833  -0.38200  -0.37867  -0.37481
 Alpha  occ. eigenvalues --   -0.37414  -0.37157  -0.36742  -0.36462  -0.35552
 Alpha  occ. eigenvalues --   -0.35309  -0.34360  -0.33904  -0.31978  -0.31889
 Alpha  occ. eigenvalues --   -0.31712  -0.28777  -0.28508  -0.26794  -0.23433
 Alpha  occ. eigenvalues --   -0.18892
 Alpha virt. eigenvalues --   -0.06495  -0.01492   0.02283   0.04546   0.05954
 Alpha virt. eigenvalues --    0.07433   0.08955   0.09527   0.09998   0.11123
 Alpha virt. eigenvalues --    0.11589   0.12225   0.12437   0.13233   0.13447

 Mulliken charges:
               1
     1  O   -0.521060
     2  O   -0.578123
     3  C    0.014434
     4  C   -0.099378
     5  C   -0.168120
     6  C    0.131575
     7  C    0.131544
     8  C   -0.015891
     9  C   -0.289818
    10  C   -0.294852
    11  C   -0.198460
    12  C   -0.115165
    13  C    0.221624
    14  C    0.066482
    15  C   -0.085895
    16  C   -0.221489
    17  C    0.008385
    18  C   -0.287144
    19  C   -0.301111
    20  C   -0.359947
    21  C   -0.105045
    22  C   -0.114867
    23  C   -0.346752
    24  C    0.147086
    25  C   -0.121914
    26  C   -0.374262
    27  C    0.106223
    28  C   -0.160957
    29  C   -0.363944
    30  C   -0.104437
    31  C   -0.037931
    32  C   -0.083659
    33  C   -0.125813
    34  C    0.048991
    35  C   -0.104013
    36  C    0.142280
    37  C   -0.354070
    38  C   -0.116820
    39  C   -0.145746
    40  C   -0.366516
    41  C   -0.055007
    42  C   -0.122422
    43  H    0.087318
    44  H    0.099015
    45  H    0.068146
    46  H    0.060462
    47  H    0.110522
    48  H    0.068194
    49  H    0.103702
    50  H    0.128488
    51  H    0.073371
    52  H    0.093298
    53  H    0.110605
    54  H    0.053972
    55  H    0.064825
    56  H    0.079975
    57  H    0.088914
    58  H    0.102311
    59  H    0.129392
    60  H    0.075127
    61  H    0.068924
    62  H    0.107317
    63  H    0.098365
    64  H    0.119046
    65  H    0.100487
    66  H    0.106322
    67  H    0.119002
    68  H    0.091017
    69  H    0.293432
    70  H    0.084785
    71  H    0.080438
    72  H    0.124337
    73  H    0.122200
    74  H    0.093595
    75  H    0.306819
    76  H    0.089064
    77  H    0.117022
    78  H    0.098959
    79  H    0.130958
    80  H    0.075927
    81  H    0.104890
    82  H    0.109706
    83  H    0.098295
    84  H    0.085968
    85  H    0.078935
    86  H    0.073868
    87  H    0.056057
    88  H    0.078205
    89  H    0.132608
    90  H    0.136612
    91  H    0.112143
    92  H    0.089898
    93  H    0.069249
    94  H    0.116335
    95  H    0.097308
    96  H    0.096039
    97  H    0.081687
    98  H    0.078546
 Sum of Mulliken charges =  -0.00000

 Dipole moment (field-independent basis, Debye):
    X=              0.3891    Y=             -0.7863    Z=              0.7714  Tot=              1.1682
 Quadrupole moment (field-independent basis, Debye-Ang):
   XX=           -265.4145   YY=           -241.1972   ZZ=           -263.3939
   XY=             17.9697   XZ=             37.0211   YZ=              1.3065

 Normal termination of Gaussian 16 at Sat Jul 13 18:17:05 2019.
