 Gaussian 16, Revision A.03,
 Gaussian 16:  ES64L-G16RevA.03 25-Dec-2016

 -------------------------------------
 # td=(NStates=1) CAM-B3LYP/6-31G(d,p)
 -------------------------------------

 --
 TD
 --
 Symbolic Z-matrix:
 Charge =  0 Multiplicity = 1

                         Standard orientation:
 ---------------------------------------------------------------------
 Center     Atomic      Atomic             Coordinates (Angstroms)
 Number     Number       Type             X           Y           Z
 ---------------------------------------------------------------------
      1          8           0      -14.085286   -1.928181    0.459180
      2          8           0       14.785228    0.963329    0.071812
      3          6           0      -11.699366    0.020463    1.293290
      4          6           0      -11.010036    0.335643    0.007052
      5          6           0      -11.990549   -1.407383    1.373208
      6          6           0      -12.689063   -2.034566    0.248104
      7          6           0      -11.524505   -0.355679   -1.199230
      8          6           0       11.094975    1.078803    0.998213
      9          6           0      -10.982516    0.437877    2.539503
     10          6           0      -13.076761    0.828140    1.215919
     11          6           0       12.567152    1.518492    0.729127
     12          6           0      -12.288465   -1.482857   -1.061739
     13          6           0       13.538374    0.397698    0.310604
     14          6           0       10.659342   -0.001682   -0.036268
     15          6           0       -9.473982   -0.091731    0.057275
     16          6           0       12.943704   -0.190784   -0.880546
     17          6           0       11.457034   -0.550377   -0.944386
     18          6           0       10.210443    2.293134    1.118251
     19          6           0       11.080332    0.322966    2.427734
     20          6           0      -11.288041    0.272153   -2.563541
     21          6           0       -8.579629    0.904902   -0.099767
     22          6           0        9.235623   -0.363106    0.135381
     23          6           0       11.056491   -1.382473   -2.080522
     24          6           0       -7.110935    0.651622   -0.129746
     25          6           0        8.798102   -1.668570   -0.040828
     26          6           0       -6.692854   -0.835995    0.003259
     27          6           0        7.375022   -2.148526    0.105590
     28          6           0       -6.189967    1.651855   -0.270702
     29          6           0        7.233126   -3.714545    0.308305
     30          6           0        6.320323   -1.265780   -0.062121
     31          6           0       -4.754399    1.363897   -0.492225
     32          6           0        4.909818   -1.540213   -0.084262
     33          6           0       -3.887503    2.530778   -0.582271
     34          6           0       -2.537252    2.541953   -0.677540
     35          6           0        3.934988   -0.612565   -0.300931
     36          6           0        2.586601   -0.841646   -0.291210
     37          6           0       -1.925454    3.845141   -0.973438
     38          6           0       -1.772407    1.426176   -0.483529
     39          6           0        1.758104    0.226139   -0.296090
     40          6           0        2.045890   -2.252894   -0.015406
     41          6           0       -0.395583    1.316274   -0.501548
     42          6           0        0.416549    0.153245   -0.303236
     43          1           0      -10.964915    1.327898   -0.456475
     44          1           0      -12.571149   -1.552336    2.340548
     45          1           0      -10.953511   -2.019758    1.572907
     46          1           0      -12.608798   -3.064952    0.369115
     47          1           0      -10.014565    0.022385    2.811788
     48          1           0      -10.693255    1.453125    2.735160
     49          1           0      -11.801808   -0.032333    3.370012
     50          1           0      -13.818945    0.610064    0.481549
     51          1           0      -13.426839    0.595146    2.184895
     52          1           0      -12.758482    1.898613    1.257621
     53          1           0       12.509501    2.389546   -0.068281
     54          1           0       13.101762    2.173671    1.532205
     55          1           0      -12.716961   -2.117571   -1.998754
     56          1           0       13.472217   -0.331097    1.110319
     57          1           0       -9.267681   -1.013115    0.456448
     58          1           0       13.380979   -1.115751   -1.320724
     59          1           0       13.108935    0.543809   -1.639567
     60          1           0        9.150921    2.088233    1.520078
     61          1           0       10.148003    2.622593    0.171725
     62          1           0       10.951855    3.016207    1.768257
     63          1           0       11.738055   -0.309867    2.440025
     64          1           0       10.158516    0.054362    2.619067
     65          1           0       11.455516    1.019599    3.227648
     66          1           0      -10.197806    0.502505   -2.752306
     67          1           0      -11.553761    1.337239   -2.421581
     68          1           0      -11.658823   -0.312740   -3.435794
     69          1           0      -14.499115   -2.311089   -0.401095
     70          1           0        8.518192    0.406534    0.569184
     71          1           0       -8.789852    1.870807   -0.341593
     72          1           0       11.212436   -2.560873   -2.127820
     73          1           0        9.955693   -1.302488   -2.398857
     74          1           0       11.672357   -1.222963   -3.084507
     75          1           0       15.138772    1.366128    0.827547
     76          1           0        9.366481   -2.560258   -0.550566
     77          1           0       -5.667825   -1.088947   -0.509727
     78          1           0       -6.797439   -1.355588    1.004464
     79          1           0       -7.459306   -1.501586   -0.526354
     80          1           0       -6.583206    2.603680   -0.531007
     81          1           0        7.313099   -3.746088    1.533493
     82          1           0        6.106919   -4.045855   -0.022419
     83          1           0        7.896758   -4.334152   -0.258671
     84          1           0        6.576437   -0.236717   -0.088182
     85          1           0       -4.457668    0.210579   -0.785714
     86          1           0        4.415150   -2.513847   -0.095867
     87          1           0       -4.573704    3.371694   -0.423282
     88          1           0        4.251346    0.468378   -0.376782
     89          1           0       -1.219559    3.711087   -1.786511
     90          1           0       -1.280956    4.175976   -0.045021
     91          1           0       -2.524771    4.700284   -1.275003
     92          1           0       -2.202774    0.534353   -0.120476
     93          1           0        2.152468    1.154688   -0.532064
     94          1           0        2.012900   -2.573384    1.086564
     95          1           0        0.945987   -2.340201   -0.255090
     96          1           0        2.641586   -2.825272   -0.644799
     97          1           0        0.138437    2.287853   -0.647190
     98          1           0       -0.143697   -0.665265   -0.314888
 ---------------------------------------------------------------------

 SCF Done:  E(RCAM-B3LYP) =  -1706.96406258     A.U. after   15 cycles

 Excitation energies and oscillator strengths:

 Excited State   1:      Singlet-A      2.0503 eV  604.70 nm  f=2.9816  <S**2>=0.000
     155 ->158         0.13319
     156 ->157         0.69813
     156 <-157        -0.10633
 This state for optimization and/or second-order correction.
 Total Energy, E(TD-HF/TD-DFT) =  -1706.88871416
 Copying the excited state density for this state as the 1-particle RhoCI density.

 The electronic state is 1-A.
 Alpha  occ. eigenvalues --  -19.21387 -19.20601 -10.30359 -10.28866 -10.28572
 Alpha  occ. eigenvalues --  -10.28236 -10.27971 -10.27558 -10.27509 -10.27481
 Alpha  occ. eigenvalues --  -10.27287 -10.27175 -10.26974 -10.26911 -10.26577
 Alpha  occ. eigenvalues --  -10.26568 -10.26517 -10.26395 -10.26386 -10.26300
 Alpha  occ. eigenvalues --  -10.26267 -10.26139 -10.26133 -10.26113 -10.25999
 Alpha  occ. eigenvalues --  -10.25892 -10.25828 -10.25785 -10.25769 -10.25749
 Alpha  occ. eigenvalues --  -10.25748 -10.25638 -10.25569 -10.25523 -10.25423
 Alpha  occ. eigenvalues --  -10.25391 -10.24960 -10.24806 -10.24421 -10.24353
 Alpha  occ. eigenvalues --  -10.23074 -10.21479  -1.11466  -1.08658  -0.94804
 Alpha  occ. eigenvalues --   -0.93537  -0.93061  -0.92109  -0.90074  -0.89174
 Alpha  occ. eigenvalues --   -0.87458  -0.87211  -0.87015  -0.85206  -0.84671
 Alpha  occ. eigenvalues --   -0.82850  -0.82010  -0.80069  -0.79486  -0.78715
 Alpha  occ. eigenvalues --   -0.77726  -0.76463  -0.76291  -0.75918  -0.75277
 Alpha  occ. eigenvalues --   -0.75218  -0.74903  -0.74767  -0.73273  -0.70590
 Alpha  occ. eigenvalues --   -0.68987  -0.68029  -0.66627  -0.65283  -0.64236
 Alpha  occ. eigenvalues --   -0.63769  -0.63412  -0.63064  -0.60412  -0.60293
 Alpha  occ. eigenvalues --   -0.59771  -0.59508  -0.57877  -0.57497  -0.56315
 Alpha  occ. eigenvalues --   -0.56238  -0.56002  -0.55093  -0.54709  -0.54369
 Alpha  occ. eigenvalues --   -0.53531  -0.52847  -0.52674  -0.52249  -0.51734
 Alpha  occ. eigenvalues --   -0.51136  -0.50182  -0.49545  -0.49476  -0.49303
 Alpha  occ. eigenvalues --   -0.48970  -0.48805  -0.48538  -0.48227  -0.48023
 Alpha  occ. eigenvalues --   -0.47466  -0.47116  -0.46897  -0.46819  -0.45887
 Alpha  occ. eigenvalues --   -0.45641  -0.45520  -0.45378  -0.45097  -0.44417
 Alpha  occ. eigenvalues --   -0.44369  -0.43918  -0.43633  -0.43478  -0.43298
 Alpha  occ. eigenvalues --   -0.43165  -0.42995  -0.42309  -0.42190  -0.41868
 Alpha  occ. eigenvalues --   -0.41570  -0.41522  -0.41203  -0.41166  -0.40773
 Alpha  occ. eigenvalues --   -0.40548  -0.40283  -0.40003  -0.39624  -0.38970
 Alpha  occ. eigenvalues --   -0.38937  -0.38619  -0.38579  -0.38271  -0.38170
 Alpha  occ. eigenvalues --   -0.37989  -0.37245  -0.36427  -0.36087  -0.35503
 Alpha  occ. eigenvalues --   -0.35275  -0.34746  -0.33856  -0.32353  -0.31896
 Alpha  occ. eigenvalues --   -0.31545  -0.29359  -0.28445  -0.26727  -0.23972
 Alpha  occ. eigenvalues --   -0.18775
 Alpha virt. eigenvalues --   -0.06075  -0.00384   0.02746   0.05282   0.07062
 Alpha virt. eigenvalues --    0.08746   0.11055   0.11390   0.11848   0.12112
 Alpha virt. eigenvalues --    0.12718   0.12855   0.13039   0.13317   0.13660

 Mulliken charges:
               1
     1  O   -0.559046
     2  O   -0.548392
     3  C    0.009931
     4  C   -0.128349
     5  C   -0.176967
     6  C    0.169626
     7  C    0.131498
     8  C   -0.036369
     9  C   -0.288643
    10  C   -0.286737
    11  C   -0.213389
    12  C   -0.153016
    13  C    0.186974
    14  C    0.070607
    15  C   -0.084114
    16  C   -0.219509
    17  C    0.098612
    18  C   -0.287639
    19  C   -0.263171
    20  C   -0.365618
    21  C   -0.072416
    22  C   -0.134786
    23  C   -0.397094
    24  C    0.103542
    25  C   -0.095308
    26  C   -0.376336
    27  C    0.039835
    28  C   -0.146033
    29  C   -0.343926
    30  C   -0.102970
    31  C   -0.075237
    32  C   -0.090706
    33  C   -0.153979
    34  C    0.139244
    35  C   -0.099492
    36  C    0.097885
    37  C   -0.385719
    38  C   -0.108156
    39  C   -0.101135
    40  C   -0.366006
    41  C   -0.115222
    42  C   -0.059956
    43  H    0.080100
    44  H    0.104583
    45  H    0.067115
    46  H    0.084618
    47  H    0.106609
    48  H    0.106454
    49  H    0.064910
    50  H    0.130975
    51  H    0.098420
    52  H    0.084440
    53  H    0.080356
    54  H    0.058861
    55  H    0.053718
    56  H    0.083029
    57  H    0.097000
    58  H    0.095130
    59  H    0.124553
    60  H    0.095551
    61  H    0.119821
    62  H    0.089961
    63  H    0.100074
    64  H    0.109229
    65  H    0.073653
    66  H    0.115805
    67  H    0.114856
    68  H    0.120734
    69  H    0.298991
    70  H    0.089091
    71  H    0.074229
    72  H    0.098409
    73  H    0.126869
    74  H    0.096862
    75  H    0.305217
    76  H    0.093191
    77  H    0.094611
    78  H    0.119442
    79  H    0.107923
    80  H    0.088832
    81  H    0.116932
    82  H    0.095808
    83  H    0.124012
    84  H    0.078297
    85  H    0.090372
    86  H    0.069229
    87  H    0.092196
    88  H    0.069885
    89  H    0.127313
    90  H    0.110630
    91  H    0.115951
    92  H    0.076965
    93  H    0.078563
    94  H    0.122627
    95  H    0.105511
    96  H    0.126158
    97  H    0.065917
    98  H    0.067092
 Sum of Mulliken charges =  -0.00000

 Dipole moment (field-independent basis, Debye):
    X=              0.1636    Y=             -0.4099    Z=             -0.6189  Tot=              0.7601
 Quadrupole moment (field-independent basis, Debye-Ang):
   XX=           -281.1286   YY=           -242.9535   ZZ=           -261.9253
   XY=              3.4113   XZ=             35.5245   YZ=              3.4621

 Normal termination of Gaussian 16 at Sun Jul 14 20:49:40 2019.
