 Gaussian 16, Revision A.03,
 Gaussian 16:  ES64L-G16RevA.03 25-Dec-2016

 -------------------------------------
 # td=(NStates=1) CAM-B3LYP/6-31G(d,p)
 -------------------------------------

 --
 TD
 --
 Symbolic Z-matrix:
 Charge =  0 Multiplicity = 1

                         Standard orientation:
 ---------------------------------------------------------------------
 Center     Atomic      Atomic             Coordinates (Angstroms)
 Number     Number       Type             X           Y           Z
 ---------------------------------------------------------------------
      1          8           0      -14.062787   -1.936855    0.339446
      2          8           0       14.740777    1.160032   -0.085912
      3          6           0      -11.832016    0.063490    1.241064
      4          6           0      -11.021348    0.335136   -0.056008
      5          6           0      -12.080548   -1.389691    1.422964
      6          6           0      -12.655224   -2.117855    0.238903
      7          6           0      -11.496705   -0.444508   -1.222591
      8          6           0       11.069044    0.870827    1.096090
      9          6           0      -11.151291    0.655543    2.474177
     10          6           0      -13.232910    0.874993    1.066503
     11          6           0       12.463737    1.606561    0.802679
     12          6           0      -12.206277   -1.596103   -1.100362
     13          6           0       13.456057    0.603156    0.340472
     14          6           0       10.623413   -0.088798   -0.008774
     15          6           0       -9.520922    0.004461    0.125306
     16          6           0       12.949675   -0.061786   -0.893235
     17          6           0       11.463256   -0.438528   -0.986140
     18          6           0       10.121006    2.112357    1.279401
     19          6           0       11.122788    0.155317    2.429392
     20          6           0      -11.102039    0.011723   -2.575381
     21          6           0       -8.538294    0.893819   -0.067892
     22          6           0        9.307123   -0.499683    0.109045
     23          6           0       11.102624   -1.308292   -2.190384
     24          6           0       -7.092984    0.593280   -0.009573
     25          6           0        8.922738   -1.776822   -0.176043
     26          6           0       -6.730733   -0.915052    0.389279
     27          6           0        7.415784   -2.187408   -0.033727
     28          6           0       -6.188307    1.525319   -0.288609
     29          6           0        7.183882   -3.589978    0.297311
     30          6           0        6.412586   -1.246929   -0.188995
     31          6           0       -4.805586    1.457170   -0.299096
     32          6           0        5.040487   -1.536571    0.048313
     33          6           0       -3.964930    2.534951   -0.575686
     34          6           0       -2.615928    2.651791   -0.675410
     35          6           0        4.043400   -0.769113   -0.220298
     36          6           0        2.604309   -0.845763   -0.175384
     37          6           0       -1.992440    3.911866   -1.027466
     38          6           0       -1.787686    1.483752   -0.498050
     39          6           0        1.790265    0.251710   -0.488747
     40          6           0        2.077993   -2.178494    0.206870
     41          6           0       -0.411461    1.405269   -0.568448
     42          6           0        0.441774    0.250751   -0.433448
     43          1           0      -11.003772    1.305414   -0.417838
     44          1           0      -12.613730   -1.634841    2.426644
     45          1           0      -11.047101   -1.944984    1.314202
     46          1           0      -12.576207   -3.259950    0.445735
     47          1           0      -10.161649    0.178104    2.288869
     48          1           0      -10.900713    1.749580    2.392202
     49          1           0      -11.583944    0.398298    3.438926
     50          1           0      -13.602156    0.483899    0.129922
     51          1           0      -13.680510    0.640336    1.917028
     52          1           0      -13.064833    1.946666    0.913835
     53          1           0       12.382124    2.260492   -0.056830
     54          1           0       12.825167    2.205206    1.852164
     55          1           0      -12.537886   -2.065447   -2.013525
     56          1           0       13.730750   -0.198552    1.090570
     57          1           0       -9.303692   -1.014275    0.366461
     58          1           0       13.574519   -0.815206   -1.087677
     59          1           0       13.215111    0.679557   -1.814844
     60          1           0        9.375396    1.799849    1.849483
     61          1           0        9.796426    2.644140    0.345596
     62          1           0       10.657203    2.773545    1.957847
     63          1           0       11.802873   -0.813409    2.389911
     64          1           0       10.244908   -0.443565    2.652310
     65          1           0       11.543773    0.809704    3.106070
     66          1           0      -10.068809    0.061099   -2.646071
     67          1           0      -11.719282    1.004071   -2.749090
     68          1           0      -11.320058   -0.667334   -3.387718
     69          1           0      -14.484734   -2.238310   -0.570556
     70          1           0        8.578193    0.111078    0.583259
     71          1           0       -8.857721    1.914490   -0.351297
     72          1           0       11.240413   -2.450099   -1.912724
     73          1           0       10.095666   -1.311076   -2.726888
     74          1           0       11.799630   -1.014938   -3.005723
     75          1           0       15.182731    1.419221    0.645916
     76          1           0        9.470443   -2.714623   -0.335119
     77          1           0       -5.604529   -0.784949    0.217260
     78          1           0       -6.915969   -1.012855    1.449300
     79          1           0       -7.245783   -1.518767   -0.374469
     80          1           0       -6.668752    2.522216   -0.502540
     81          1           0        7.027215   -4.024174    1.428023
     82          1           0        6.270181   -3.744244   -0.424555
     83          1           0        8.123645   -4.261721   -0.141690
     84          1           0        6.643116   -0.278633   -0.408964
     85          1           0       -4.477279    0.371012    0.159756
     86          1           0        4.651462   -2.429713    0.017694
     87          1           0       -4.594099    3.418768   -0.501345
     88          1           0        4.327128    0.377080   -0.680460
     89          1           0       -1.182725    3.781081   -1.863680
     90          1           0       -1.345107    3.999336   -0.230312
     91          1           0       -2.609374    4.581128   -1.175143
     92          1           0       -2.247750    0.596761   -0.167886
     93          1           0        2.329235    1.187902   -0.731563
     94          1           0        2.875157   -2.716942    0.997501
     95          1           0        0.999337   -2.330897    0.605474
     96          1           0        2.083240   -2.764503   -0.856103
     97          1           0        0.073964    2.490356   -0.621471
     98          1           0       -0.030640   -0.613010   -0.102291
 ---------------------------------------------------------------------

 SCF Done:  E(RCAM-B3LYP) =  -1706.93575099     A.U. after   15 cycles

 Excitation energies and oscillator strengths:

 Excited State   1:      Singlet-A      1.9276 eV  643.19 nm  f=2.7391  <S**2>=0.000
     155 ->158         0.11436
     156 ->157         0.70552
     156 <-157        -0.12833
 This state for optimization and/or second-order correction.
 Total Energy, E(TD-HF/TD-DFT) =  -1706.86491169
 Copying the excited state density for this state as the 1-particle RhoCI density.

 The electronic state is 1-A.
 Alpha  occ. eigenvalues --  -19.20375 -19.19890 -10.30720 -10.30117 -10.28595
 Alpha  occ. eigenvalues --  -10.28349 -10.27818 -10.27804 -10.27535 -10.27501
 Alpha  occ. eigenvalues --  -10.27435 -10.27344 -10.27329 -10.26864 -10.26830
 Alpha  occ. eigenvalues --  -10.26721 -10.26549 -10.26528 -10.26464 -10.26429
 Alpha  occ. eigenvalues --  -10.26376 -10.26338 -10.26316 -10.26157 -10.26078
 Alpha  occ. eigenvalues --  -10.26070 -10.26029 -10.26004 -10.25789 -10.25438
 Alpha  occ. eigenvalues --  -10.25403 -10.25386 -10.25166 -10.25070 -10.24903
 Alpha  occ. eigenvalues --  -10.24835 -10.24663 -10.23926 -10.23823 -10.23811
 Alpha  occ. eigenvalues --  -10.23720 -10.21778  -1.09450  -1.07649  -0.94164
 Alpha  occ. eigenvalues --   -0.94006  -0.92908  -0.92353  -0.90823  -0.89988
 Alpha  occ. eigenvalues --   -0.87697  -0.87293  -0.86689  -0.86208  -0.85544
 Alpha  occ. eigenvalues --   -0.83478  -0.82679  -0.80669  -0.80412  -0.79257
 Alpha  occ. eigenvalues --   -0.77257  -0.76606  -0.76587  -0.75741  -0.75458
 Alpha  occ. eigenvalues --   -0.75148  -0.75072  -0.74988  -0.73089  -0.71197
 Alpha  occ. eigenvalues --   -0.68622  -0.67320  -0.66549  -0.64772  -0.63799
 Alpha  occ. eigenvalues --   -0.63358  -0.62676  -0.61937  -0.60490  -0.60302
 Alpha  occ. eigenvalues --   -0.58889  -0.58555  -0.58114  -0.57625  -0.56852
 Alpha  occ. eigenvalues --   -0.56201  -0.55507  -0.55394  -0.54345  -0.53921
 Alpha  occ. eigenvalues --   -0.53542  -0.53036  -0.52688  -0.52458  -0.51365
 Alpha  occ. eigenvalues --   -0.50914  -0.50685  -0.50508  -0.50099  -0.49778
 Alpha  occ. eigenvalues --   -0.48993  -0.48849  -0.48158  -0.47958  -0.47826
 Alpha  occ. eigenvalues --   -0.47563  -0.47418  -0.47067  -0.46916  -0.46723
 Alpha  occ. eigenvalues --   -0.46616  -0.45944  -0.45565  -0.45326  -0.44958
 Alpha  occ. eigenvalues --   -0.44730  -0.44533  -0.44154  -0.43977  -0.43856
 Alpha  occ. eigenvalues --   -0.43351  -0.43186  -0.42792  -0.42363  -0.42101
 Alpha  occ. eigenvalues --   -0.41752  -0.41477  -0.41241  -0.41118  -0.40805
 Alpha  occ. eigenvalues --   -0.40489  -0.40201  -0.39785  -0.39606  -0.39240
 Alpha  occ. eigenvalues --   -0.39070  -0.38792  -0.38707  -0.38082  -0.37804
 Alpha  occ. eigenvalues --   -0.37201  -0.36765  -0.36290  -0.36207  -0.35993
 Alpha  occ. eigenvalues --   -0.34953  -0.34023  -0.32774  -0.32088  -0.31956
 Alpha  occ. eigenvalues --   -0.30965  -0.29430  -0.28852  -0.26979  -0.24215
 Alpha  occ. eigenvalues --   -0.18814
 Alpha virt. eigenvalues --   -0.06878  -0.00593   0.02538   0.05324   0.07105
 Alpha virt. eigenvalues --    0.08863   0.11146   0.11574   0.11972   0.12390
 Alpha virt. eigenvalues --    0.12861   0.13220   0.13475   0.13777   0.13859

 Mulliken charges:
               1
     1  O   -0.554632
     2  O   -0.554577
     3  C    0.007804
     4  C   -0.123412
     5  C   -0.170752
     6  C    0.156171
     7  C    0.113619
     8  C   -0.056983
     9  C   -0.292568
    10  C   -0.273547
    11  C   -0.165439
    12  C   -0.147820
    13  C    0.142619
    14  C    0.108588
    15  C   -0.108473
    16  C   -0.216016
    17  C    0.046767
    18  C   -0.296331
    19  C   -0.296212
    20  C   -0.355457
    21  C   -0.079484
    22  C   -0.124829
    23  C   -0.361142
    24  C    0.049892
    25  C   -0.089649
    26  C   -0.349342
    27  C    0.055422
    28  C   -0.096308
    29  C   -0.353762
    30  C   -0.090222
    31  C   -0.068455
    32  C   -0.073098
    33  C   -0.165188
    34  C    0.104201
    35  C   -0.103933
    36  C    0.124870
    37  C   -0.345365
    38  C   -0.099278
    39  C   -0.099644
    40  C   -0.379740
    41  C   -0.097511
    42  C   -0.086631
    43  H    0.085425
    44  H    0.106990
    45  H    0.077292
    46  H    0.067609
    47  H    0.095009
    48  H    0.093278
    49  H    0.100902
    50  H    0.109292
    51  H    0.102802
    52  H    0.080002
    53  H    0.113191
    54  H    0.051497
    55  H    0.075169
    56  H    0.077250
    57  H    0.093244
    58  H    0.123612
    59  H    0.097230
    60  H    0.107695
    61  H    0.107089
    62  H    0.097575
    63  H    0.081193
    64  H    0.117463
    65  H    0.107062
    66  H    0.132176
    67  H    0.101825
    68  H    0.110332
    69  H    0.294565
    70  H    0.103835
    71  H    0.076153
    72  H    0.101509
    73  H    0.122080
    74  H    0.103699
    75  H    0.290130
    76  H    0.085577
    77  H    0.090455
    78  H    0.138596
    79  H    0.130445
    80  H    0.072375
    81  H    0.116266
    82  H    0.115821
    83  H    0.079742
    84  H    0.079945
    85  H    0.080029
    86  H    0.071786
    87  H    0.084790
    88  H    0.029776
    89  H    0.119554
    90  H    0.142797
    91  H    0.100789
    92  H    0.073652
    93  H    0.084762
    94  H    0.100632
    95  H    0.113445
    96  H    0.112679
    97  H    0.060349
    98  H    0.077409
 Sum of Mulliken charges =  -0.00000

 Dipole moment (field-independent basis, Debye):
    X=              0.1507    Y=             -0.7842    Z=              0.1864  Tot=              0.8200
 Quadrupole moment (field-independent basis, Debye-Ang):
   XX=           -283.9725   YY=           -245.6502   ZZ=           -259.5381
   XY=             -2.4819   XZ=             40.9505   YZ=              2.5486

 Normal termination of Gaussian 16 at Tue Jul 16 13:23:34 2019.
