 Gaussian 16, Revision A.03,
 Gaussian 16:  ES64L-G16RevA.03 25-Dec-2016

 -------------------------------------
 # td=(NStates=1) CAM-B3LYP/6-31G(d,p)
 -------------------------------------

 --
 TD
 --
 Symbolic Z-matrix:
 Charge =  0 Multiplicity = 1

                         Standard orientation:
 ---------------------------------------------------------------------
 Center     Atomic      Atomic             Coordinates (Angstroms)
 Number     Number       Type             X           Y           Z
 ---------------------------------------------------------------------
      1          8           0      -14.308922   -1.943989    0.360577
      2          8           0       14.861919    0.807422   -0.089909
      3          6           0      -11.834747   -0.038023    1.233106
      4          6           0      -11.036720    0.210845   -0.068625
      5          6           0      -12.039356   -1.634792    1.356956
      6          6           0      -12.789958   -2.135766    0.156272
      7          6           0      -11.609409   -0.502343   -1.250198
      8          6           0       11.250948    0.878375    1.134961
      9          6           0      -11.196778    0.412788    2.557615
     10          6           0      -13.159860    0.708862    1.272298
     11          6           0       12.636250    1.404387    0.770033
     12          6           0      -12.352835   -1.597411   -1.136772
     13          6           0       13.498724    0.227269    0.288496
     14          6           0       10.722766   -0.031626   -0.011575
     15          6           0       -9.616585   -0.125781    0.036817
     16          6           0       13.012914   -0.339081   -0.915181
     17          6           0       11.601031   -0.616284   -0.895936
     18          6           0       10.391531    2.116739    1.096519
     19          6           0       11.175960    0.203981    2.502245
     20          6           0      -11.166952    0.017467   -2.685650
     21          6           0       -8.624903    0.773989   -0.222122
     22          6           0        9.390276   -0.444877    0.176514
     23          6           0       11.091885   -1.408697   -2.110240
     24          6           0       -7.153363    0.542327   -0.010943
     25          6           0        8.839550   -1.696766   -0.019514
     26          6           0       -6.657124   -0.881541    0.340825
     27          6           0        7.462687   -2.162505   -0.112727
     28          6           0       -6.265333    1.579292   -0.209845
     29          6           0        7.020006   -3.581526    0.050503
     30          6           0        6.391501   -1.154084   -0.219368
     31          6           0       -4.859867    1.561878   -0.320355
     32          6           0        5.010204   -1.387667   -0.211184
     33          6           0       -4.042801    2.677592   -0.577895
     34          6           0       -2.585506    2.680540   -0.688769
     35          6           0        4.006192   -0.366538   -0.221102
     36          6           0        2.636293   -0.620926   -0.082934
     37          6           0       -1.907768    3.998758   -1.027707
     38          6           0       -1.687771    1.619763   -0.419270
     39          6           0        1.721629    0.431223   -0.235846
     40          6           0        2.159372   -1.994310    0.079889
     41          6           0       -0.358307    1.645730   -0.434446
     42          6           0        0.406164    0.497293   -0.233985
     43          1           0      -11.308170    1.335874   -0.010118
     44          1           0      -12.864337   -1.686095    2.185417
     45          1           0      -11.075741   -2.122747    1.432320
     46          1           0      -12.553876   -3.140638    0.102409
     47          1           0      -10.234154   -0.288885    2.903943
     48          1           0      -10.778949    1.327127    2.339215
     49          1           0      -12.104061    0.182770    3.267833
     50          1           0      -13.732062    0.707029    0.180999
     51          1           0      -14.024721    0.451823    2.091809
     52          1           0      -12.761590    1.768558    1.545716
     53          1           0       12.472635    1.990537   -0.008534
     54          1           0       13.137622    1.889645    1.677161
     55          1           0      -12.455402   -2.135310   -2.183323
     56          1           0       13.633313   -0.716700    1.038396
     57          1           0       -9.379652   -1.136908    0.433726
     58          1           0       13.752912   -1.292311   -1.106117
     59          1           0       13.196202    0.326989   -1.748862
     60          1           0        9.346166    1.911143    1.391208
     61          1           0       10.164837    2.709513    0.196204
     62          1           0       10.866901    2.917554    1.590927
     63          1           0       12.125637   -0.570421    2.354771
     64          1           0       10.206736   -0.326761    2.663806
     65          1           0       11.262279    1.051711    3.188132
     66          1           0      -10.042707    0.146817   -2.921459
     67          1           0      -11.312131    1.105370   -2.866459
     68          1           0      -11.759571   -0.305085   -3.636238
     69          1           0      -14.739205   -1.953560   -0.413435
     70          1           0        8.849291    0.466231    0.725549
     71          1           0       -8.956086    1.917839   -0.459823
     72          1           0       11.553790   -2.291947   -2.032192
     73          1           0       10.044984   -1.337163   -2.300955
     74          1           0       11.435958   -1.042267   -3.019931
     75          1           0       15.098320    1.009302    0.978603
     76          1           0        9.343167   -2.428339   -0.500767
     77          1           0       -5.513404   -1.007856    0.828881
     78          1           0       -7.308379   -1.102992    1.055051
     79          1           0       -6.730681   -1.485356   -0.626909
     80          1           0       -6.646397    2.642684   -0.386877
     81          1           0        6.631188   -3.957989    1.020476
     82          1           0        6.312530   -3.755008   -0.767673
     83          1           0        7.942734   -4.263250   -0.156455
     84          1           0        7.136186   -0.172934   -0.438666
     85          1           0       -4.032210    0.543110   -0.216124
     86          1           0        4.563527   -2.380098    0.294617
     87          1           0       -4.841613    3.381065   -0.823482
     88          1           0        4.244631    0.866821   -0.205178
     89          1           0       -1.466830    4.032141   -1.951984
     90          1           0       -1.459009    4.299660   -0.208096
     91          1           0       -2.775466    4.713965   -1.319429
     92          1           0       -2.243898    0.745814    0.209303
     93          1           0        2.297605    1.475079   -0.215211
     94          1           0        2.365417   -2.060640    1.324414
     95          1           0        0.929239   -2.127457   -0.206957
     96          1           0        2.928493   -2.789977   -0.364661
     97          1           0        0.186617    2.677430   -0.689746
     98          1           0       -0.232209   -0.433689    0.214286
 ---------------------------------------------------------------------

 SCF Done:  E(RCAM-B3LYP) =  -1706.75236365     A.U. after   16 cycles

 Excitation energies and oscillator strengths:

 Excited State   1:      Singlet-A      1.7623 eV  703.52 nm  f=3.0951  <S**2>=0.000
     155 ->158        -0.13586
     156 ->157         0.70043
     156 <-157        -0.12296
 This state for optimization and/or second-order correction.
 Total Energy, E(TD-HF/TD-DFT) =  -1706.68759898
 Copying the excited state density for this state as the 1-particle RhoCI density.

 The electronic state is 1-A.
 Alpha  occ. eigenvalues --  -19.22136 -19.19805 -10.31143 -10.30389 -10.29323
 Alpha  occ. eigenvalues --  -10.29083 -10.28771 -10.28673 -10.28575 -10.28239
 Alpha  occ. eigenvalues --  -10.28239 -10.27894 -10.27559 -10.27508 -10.27459
 Alpha  occ. eigenvalues --  -10.27372 -10.27359 -10.27338 -10.27261 -10.27189
 Alpha  occ. eigenvalues --  -10.27176 -10.27169 -10.27140 -10.27061 -10.26999
 Alpha  occ. eigenvalues --  -10.26952 -10.26832 -10.26787 -10.26678 -10.26487
 Alpha  occ. eigenvalues --  -10.26210 -10.26159 -10.26000 -10.25926 -10.25739
 Alpha  occ. eigenvalues --  -10.25504 -10.25435 -10.25415 -10.25093 -10.24281
 Alpha  occ. eigenvalues --  -10.24140 -10.23090  -1.07499  -1.05206  -0.94804
 Alpha  occ. eigenvalues --   -0.94681  -0.92669  -0.91398  -0.90347  -0.89421
 Alpha  occ. eigenvalues --   -0.88504  -0.87583  -0.87155  -0.86180  -0.85371
 Alpha  occ. eigenvalues --   -0.83905  -0.82197  -0.81118  -0.80437  -0.78941
 Alpha  occ. eigenvalues --   -0.77276  -0.76895  -0.76703  -0.76178  -0.76148
 Alpha  occ. eigenvalues --   -0.75335  -0.74363  -0.73487  -0.72297  -0.70349
 Alpha  occ. eigenvalues --   -0.69297  -0.68280  -0.66403  -0.64576  -0.64028
 Alpha  occ. eigenvalues --   -0.62843  -0.62406  -0.61024  -0.59482  -0.58701
 Alpha  occ. eigenvalues --   -0.58563  -0.57996  -0.57500  -0.56363  -0.55748
 Alpha  occ. eigenvalues --   -0.55438  -0.54959  -0.54759  -0.54175  -0.53714
 Alpha  occ. eigenvalues --   -0.53086  -0.52756  -0.52215  -0.51760  -0.51455
 Alpha  occ. eigenvalues --   -0.51026  -0.50774  -0.50359  -0.49933  -0.49614
 Alpha  occ. eigenvalues --   -0.48889  -0.48545  -0.48155  -0.48028  -0.47863
 Alpha  occ. eigenvalues --   -0.47506  -0.47212  -0.47142  -0.47059  -0.46855
 Alpha  occ. eigenvalues --   -0.46111  -0.45646  -0.45534  -0.45453  -0.44730
 Alpha  occ. eigenvalues --   -0.44222  -0.43561  -0.43368  -0.43036  -0.42862
 Alpha  occ. eigenvalues --   -0.42754  -0.42093  -0.42055  -0.42045  -0.41884
 Alpha  occ. eigenvalues --   -0.41577  -0.41314  -0.41234  -0.40595  -0.40442
 Alpha  occ. eigenvalues --   -0.40070  -0.39922  -0.39768  -0.39437  -0.39212
 Alpha  occ. eigenvalues --   -0.39055  -0.38655  -0.38009  -0.37860  -0.37282
 Alpha  occ. eigenvalues --   -0.36763  -0.36497  -0.36201  -0.35873  -0.35158
 Alpha  occ. eigenvalues --   -0.34901  -0.34385  -0.33993  -0.32366  -0.31889
 Alpha  occ. eigenvalues --   -0.31639  -0.30622  -0.29014  -0.26839  -0.23627
 Alpha  occ. eigenvalues --   -0.18437
 Alpha virt. eigenvalues --   -0.07505  -0.01799   0.01729   0.04531   0.06298
 Alpha virt. eigenvalues --    0.08602   0.09008   0.09343   0.10433   0.11036
 Alpha virt. eigenvalues --    0.11545   0.11658   0.12009   0.12480   0.12772

 Mulliken charges:
               1
     1  O   -0.566880
     2  O   -0.558274
     3  C   -0.007313
     4  C   -0.152377
     5  C   -0.194456
     6  C    0.157605
     7  C    0.153799
     8  C   -0.038296
     9  C   -0.270713
    10  C   -0.274422
    11  C   -0.154314
    12  C   -0.163132
    13  C    0.112280
    14  C    0.085552
    15  C   -0.068604
    16  C   -0.215740
    17  C    0.027551
    18  C   -0.335626
    19  C   -0.270628
    20  C   -0.379218
    21  C   -0.093300
    22  C   -0.128621
    23  C   -0.357305
    24  C    0.071689
    25  C   -0.089794
    26  C   -0.342171
    27  C    0.037169
    28  C   -0.149742
    29  C   -0.368209
    30  C   -0.083911
    31  C   -0.041873
    32  C   -0.157119
    33  C   -0.113270
    34  C    0.041921
    35  C   -0.092308
    36  C    0.151983
    37  C   -0.368313
    38  C   -0.098664
    39  C   -0.115585
    40  C   -0.366978
    41  C   -0.075562
    42  C   -0.089426
    43  H    0.090149
    44  H    0.114727
    45  H    0.099591
    46  H    0.099684
    47  H    0.059529
    48  H    0.111492
    49  H    0.108081
    50  H    0.086185
    51  H    0.104849
    52  H    0.079198
    53  H    0.121248
    54  H    0.078290
    55  H    0.085647
    56  H    0.077310
    57  H    0.098426
    58  H    0.094479
    59  H    0.133811
    60  H    0.101738
    61  H    0.107841
    62  H    0.103190
    63  H    0.076714
    64  H    0.118052
    65  H    0.104491
    66  H    0.117572
    67  H    0.110651
    68  H    0.104680
    69  H    0.292744
    70  H    0.072618
    71  H    0.084731
    72  H    0.120850
    73  H    0.124386
    74  H    0.109997
    75  H    0.296173
    76  H    0.086717
    77  H    0.099088
    78  H    0.132696
    79  H    0.126803
    80  H    0.081084
    81  H    0.126896
    82  H    0.127283
    83  H    0.086234
    84  H    0.078542
    85  H    0.053045
    86  H    0.095432
    87  H    0.083650
    88  H    0.076456
    89  H    0.137226
    90  H    0.142983
    91  H    0.090303
    92  H    0.071347
    93  H    0.065546
    94  H    0.100584
    95  H    0.101305
    96  H    0.119079
    97  H    0.094430
    98  H    0.076736
 Sum of Mulliken charges =  -0.00000

 Dipole moment (field-independent basis, Debye):
    X=             -0.9794    Y=              0.1825    Z=              0.0688  Tot=              0.9986
 Quadrupole moment (field-independent basis, Debye-Ang):
   XX=           -294.2792   YY=           -248.9758   ZZ=           -262.6086
   XY=             -4.5340   XZ=             36.1503   YZ=              1.2668

 Normal termination of Gaussian 16 at Mon Jul 15 15:53:25 2019.
