 Gaussian 16, Revision A.03,
 Gaussian 16:  ES64L-G16RevA.03 25-Dec-2016

 -------------------------------------
 # td=(NStates=1) CAM-B3LYP/6-31G(d,p)
 -------------------------------------

 --
 TD
 --
 Symbolic Z-matrix:
 Charge =  0 Multiplicity = 1

                         Standard orientation:
 ---------------------------------------------------------------------
 Center     Atomic      Atomic             Coordinates (Angstroms)
 Number     Number       Type             X           Y           Z
 ---------------------------------------------------------------------
      1          8           0      -14.165121   -2.030359    0.459670
      2          8           0       14.774807    0.821923    0.196140
      3          6           0      -11.820808    0.148191    1.271532
      4          6           0      -10.857865    0.284490   -0.011960
      5          6           0      -12.022848   -1.425046    1.497852
      6          6           0      -12.811569   -2.101357    0.411145
      7          6           0      -11.460073   -0.471269   -1.154794
      8          6           0       11.006703    1.087591    1.002252
      9          6           0      -11.108224    0.684533    2.440074
     10          6           0      -13.158588    0.901315    1.089848
     11          6           0       12.461478    1.504176    0.760721
     12          6           0      -12.278477   -1.606542   -1.001036
     13          6           0       13.489551    0.415634    0.378384
     14          6           0       10.695386   -0.019573   -0.050316
     15          6           0       -9.444537   -0.133500    0.072739
     16          6           0       13.040251   -0.208407   -0.896695
     17          6           0       11.558515   -0.633918   -0.855546
     18          6           0       10.157578    2.314762    0.737775
     19          6           0       10.780795    0.589691    2.442353
     20          6           0      -11.195039   -0.086859   -2.595628
     21          6           0       -8.420641    0.822226   -0.129567
     22          6           0        9.253353   -0.449024    0.057766
     23          6           0       11.166302   -1.731872   -1.795029
     24          6           0       -6.982902    0.478020   -0.143236
     25          6           0        8.749532   -1.763516    0.060982
     26          6           0       -6.517807   -0.986891    0.139090
     27          6           0        7.406100   -2.199321    0.136503
     28          6           0       -6.185147    1.495113   -0.324422
     29          6           0        7.096353   -3.609172    0.471371
     30          6           0        6.343647   -1.304612   -0.153468
     31          6           0       -4.768460    1.442680   -0.382487
     32          6           0        4.993842   -1.644649   -0.076766
     33          6           0       -4.017564    2.560825   -0.622168
     34          6           0       -2.601212    2.669285   -0.748256
     35          6           0        3.997460   -0.580752   -0.362490
     36          6           0        2.616754   -0.853829   -0.378120
     37          6           0       -1.969432    4.084123   -0.886012
     38          6           0       -1.787015    1.521890   -0.591807
     39          6           0        1.809974    0.349731   -0.560469
     40          6           0        2.066350   -2.086459   -0.019306
     41          6           0       -0.292308    1.539449   -0.610318
     42          6           0        0.448666    0.357106   -0.441890
     43          1           0      -11.166080    1.381346   -0.461253
     44          1           0      -12.635664   -1.254507    2.486769
     45          1           0      -10.949171   -1.925034    1.581041
     46          1           0      -12.388485   -3.114775    0.541472
     47          1           0      -10.116153    0.234058    2.424229
     48          1           0      -10.949868    1.843387    2.404259
     49          1           0      -11.686492    0.576022    3.123357
     50          1           0      -13.564730    0.711898    0.179863
     51          1           0      -13.990745    0.750297    1.827779
     52          1           0      -12.801459    2.054070    1.266430
     53          1           0       12.459308    2.177467   -0.234040
     54          1           0       12.732741    2.056117    1.514715
     55          1           0      -12.659446   -2.344841   -1.746613
     56          1           0       13.431814   -0.306219    1.102455
     57          1           0       -9.310226   -1.209499    0.415095
     58          1           0       13.602596   -1.046218   -1.231486
     59          1           0       13.166216    0.703293   -1.571651
     60          1           0        9.142511    2.064824    1.097906
     61          1           0       10.293698    2.694663   -0.278578
     62          1           0       10.636669    3.092624    1.478473
     63          1           0       11.619251   -0.011606    2.817034
     64          1           0        9.773168    0.442770    2.521934
     65          1           0       10.984786    1.601084    3.165843
     66          1           0       -9.970462   -0.327450   -2.605808
     67          1           0      -11.369693    1.117624   -2.752391
     68          1           0      -11.783097   -0.598164   -3.243706
     69          1           0      -14.507219   -2.551041   -0.356192
     70          1           0        8.393742    0.313243    0.048439
     71          1           0       -8.696289    1.813492   -0.392638
     72          1           0       12.040865   -2.571111   -1.556258
     73          1           0       10.034255   -2.044948   -1.903178
     74          1           0       11.535085   -1.246076   -2.906198
     75          1           0       15.012287    1.223969    1.035910
     76          1           0        9.555954   -2.542945    0.047293
     77          1           0       -5.420135   -0.992657    0.395262
     78          1           0       -7.339094   -1.388091    0.941805
     79          1           0       -6.598846   -1.447045   -0.834251
     80          1           0       -6.713074    2.569583   -0.106931
     81          1           0        7.255462   -3.845492    1.574267
     82          1           0        6.098913   -3.905805   -0.065893
     83          1           0        7.924795   -4.255029   -0.179236
     84          1           0        6.511694   -0.310611   -0.862305
     85          1           0       -4.017003    0.505768   -0.071013
     86          1           0        4.598315   -2.563119    0.450758
     87          1           0       -4.504925    3.484825   -0.693782
     88          1           0        4.421685    0.353488   -0.731893
     89          1           0       -1.250593    4.084427   -1.504919
     90          1           0       -1.294551    4.073142    0.067154
     91          1           0       -2.716393    4.870132   -1.157078
     92          1           0       -2.329643    0.604612   -0.436309
     93          1           0        2.298734    1.287263   -0.841529
     94          1           0        1.693083   -2.111194    1.344878
     95          1           0        0.941114   -2.057997   -0.462699
     96          1           0        2.870269   -3.004285   -0.260722
     97          1           0        0.185753    2.395003   -0.592306
     98          1           0        0.008845   -0.562836   -0.131628
 ---------------------------------------------------------------------

 SCF Done:  E(RCAM-B3LYP) =  -1706.80995227     A.U. after   16 cycles

 Excitation energies and oscillator strengths:

 Excited State   1:      Singlet-A      1.8313 eV  677.02 nm  f=2.8205  <S**2>=0.000
     155 ->158        -0.13189
     156 ->157         0.70068
     156 <-157        -0.12088
 This state for optimization and/or second-order correction.
 Total Energy, E(TD-HF/TD-DFT) =  -1706.74265280
 Copying the excited state density for this state as the 1-particle RhoCI density.

 The electronic state is 1-A.
 Alpha  occ. eigenvalues --  -19.22286 -19.21853 -10.30104 -10.30021 -10.29103
 Alpha  occ. eigenvalues --  -10.28440 -10.27888 -10.27825 -10.27761 -10.27692
 Alpha  occ. eigenvalues --  -10.27578 -10.27293 -10.27232 -10.27230 -10.27214
 Alpha  occ. eigenvalues --  -10.27134 -10.27092 -10.27034 -10.27004 -10.26981
 Alpha  occ. eigenvalues --  -10.26885 -10.26797 -10.26759 -10.26640 -10.26618
 Alpha  occ. eigenvalues --  -10.26604 -10.26582 -10.26348 -10.26320 -10.26280
 Alpha  occ. eigenvalues --  -10.26105 -10.26007 -10.25751 -10.25732 -10.25703
 Alpha  occ. eigenvalues --  -10.25640 -10.25357 -10.25330 -10.25018 -10.24277
 Alpha  occ. eigenvalues --  -10.24247 -10.21838  -1.12376  -1.10914  -0.93503
 Alpha  occ. eigenvalues --   -0.93022  -0.92263  -0.91710  -0.90417  -0.89809
 Alpha  occ. eigenvalues --   -0.87451  -0.86989  -0.86573  -0.84753  -0.84217
 Alpha  occ. eigenvalues --   -0.82491  -0.81883  -0.80374  -0.79224  -0.78198
 Alpha  occ. eigenvalues --   -0.76820  -0.76257  -0.76117  -0.75510  -0.75405
 Alpha  occ. eigenvalues --   -0.74871  -0.74865  -0.73093  -0.72312  -0.69835
 Alpha  occ. eigenvalues --   -0.68578  -0.66801  -0.65946  -0.65105  -0.63832
 Alpha  occ. eigenvalues --   -0.63231  -0.62548  -0.62029  -0.60215  -0.59305
 Alpha  occ. eigenvalues --   -0.59151  -0.59042  -0.58842  -0.56918  -0.56461
 Alpha  occ. eigenvalues --   -0.56065  -0.54755  -0.54548  -0.54246  -0.53715
 Alpha  occ. eigenvalues --   -0.53299  -0.52734  -0.52538  -0.52009  -0.51034
 Alpha  occ. eigenvalues --   -0.50622  -0.50317  -0.49865  -0.49609  -0.49135
 Alpha  occ. eigenvalues --   -0.48860  -0.48681  -0.48472  -0.47967  -0.47894
 Alpha  occ. eigenvalues --   -0.47665  -0.47188  -0.46662  -0.46439  -0.46058
 Alpha  occ. eigenvalues --   -0.46007  -0.45512  -0.44806  -0.44767  -0.44712
 Alpha  occ. eigenvalues --   -0.44429  -0.44403  -0.44130  -0.43981  -0.43649
 Alpha  occ. eigenvalues --   -0.42769  -0.42658  -0.42209  -0.42143  -0.41855
 Alpha  occ. eigenvalues --   -0.41675  -0.41382  -0.40989  -0.40830  -0.40670
 Alpha  occ. eigenvalues --   -0.40648  -0.40339  -0.40202  -0.39899  -0.38996
 Alpha  occ. eigenvalues --   -0.38985  -0.38428  -0.38045  -0.37844  -0.37300
 Alpha  occ. eigenvalues --   -0.37252  -0.37136  -0.37038  -0.35691  -0.35362
 Alpha  occ. eigenvalues --   -0.34691  -0.34140  -0.33436  -0.32351  -0.30986
 Alpha  occ. eigenvalues --   -0.30111  -0.28790  -0.27544  -0.26717  -0.23590
 Alpha  occ. eigenvalues --   -0.18326
 Alpha virt. eigenvalues --   -0.06862  -0.01204   0.02038   0.05082   0.06980
 Alpha virt. eigenvalues --    0.07516   0.09311   0.09875   0.10455   0.11099
 Alpha virt. eigenvalues --    0.11250   0.11734   0.11981   0.12265   0.12841

 Mulliken charges:
               1
     1  O   -0.530882
     2  O   -0.532856
     3  C    0.002908
     4  C   -0.121799
     5  C   -0.185824
     6  C    0.182541
     7  C    0.082269
     8  C   -0.021878
     9  C   -0.246291
    10  C   -0.297798
    11  C   -0.188429
    12  C   -0.173845
    13  C    0.172160
    14  C    0.064551
    15  C   -0.114722
    16  C   -0.208072
    17  C    0.067545
    18  C   -0.280179
    19  C   -0.276536
    20  C   -0.309562
    21  C   -0.088702
    22  C   -0.139309
    23  C   -0.344974
    24  C    0.108137
    25  C   -0.125200
    26  C   -0.347990
    27  C    0.091136
    28  C   -0.138539
    29  C   -0.360376
    30  C   -0.118379
    31  C   -0.079164
    32  C   -0.120208
    33  C   -0.103617
    34  C    0.073223
    35  C   -0.115713
    36  C    0.147551
    37  C   -0.362674
    38  C   -0.123005
    39  C   -0.109246
    40  C   -0.355447
    41  C   -0.091099
    42  C   -0.070122
    43  H    0.074136
    44  H    0.091099
    45  H    0.080070
    46  H    0.063323
    47  H    0.095841
    48  H    0.070118
    49  H    0.095974
    50  H    0.123724
    51  H    0.106927
    52  H    0.067080
    53  H    0.069265
    54  H    0.072264
    55  H    0.068620
    56  H    0.072680
    57  H    0.101463
    58  H    0.100944
    59  H    0.111221
    60  H    0.101340
    61  H    0.112605
    62  H    0.082205
    63  H    0.115209
    64  H    0.127425
    65  H    0.049922
    66  H    0.095151
    67  H    0.081559
    68  H    0.122504
    69  H    0.314782
    70  H    0.083679
    71  H    0.096392
    72  H    0.092199
    73  H    0.132773
    74  H    0.078649
    75  H    0.304780
    76  H    0.085178
    77  H    0.114342
    78  H    0.105640
    79  H    0.138369
    80  H    0.086001
    81  H    0.129525
    82  H    0.113612
    83  H    0.090166
    84  H    0.081406
    85  H    0.077287
    86  H    0.098742
    87  H    0.071950
    88  H    0.085139
    89  H    0.139845
    90  H    0.119541
    91  H    0.113720
    92  H    0.070616
    93  H    0.081913
    94  H    0.061892
    95  H    0.109836
    96  H    0.105089
    97  H    0.073780
    98  H    0.080903
 Sum of Mulliken charges =  -0.00000

 Dipole moment (field-independent basis, Debye):
    X=              0.4829    Y=             -0.1578    Z=              0.3324  Tot=              0.6071
 Quadrupole moment (field-independent basis, Debye-Ang):
   XX=           -278.5070   YY=           -245.9093   ZZ=           -266.0084
   XY=             10.0933   XZ=             36.1265   YZ=              1.7787

 Normal termination of Gaussian 16 at Tue Jul 16 06:27:59 2019.
