 Gaussian 16, Revision A.03,
 Gaussian 16:  ES64L-G16RevA.03 25-Dec-2016

 -------------------------------------
 # td=(NStates=1) CAM-B3LYP/6-31G(d,p)
 -------------------------------------

 --
 TD
 --
 Symbolic Z-matrix:
 Charge =  0 Multiplicity = 1

                         Standard orientation:
 ---------------------------------------------------------------------
 Center     Atomic      Atomic             Coordinates (Angstroms)
 Number     Number       Type             X           Y           Z
 ---------------------------------------------------------------------
      1          8           0       14.265921   -1.709607   -0.740865
      2          8           0      -14.848635    0.903225   -0.163487
      3          6           0       11.752280    0.310341   -1.201429
      4          6           0       11.038452    0.366178    0.084856
      5          6           0       12.015667   -1.222795   -1.547638
      6          6           0       12.813820   -1.917731   -0.528244
      7          6           0       11.761013   -0.431478    1.248813
      8          6           0      -11.180560    1.136425   -0.994691
      9          6           0       10.985537    0.905239   -2.255187
     10          6           0       13.070305    1.059206   -1.064139
     11          6           0      -12.600464    1.579582   -0.649677
     12          6           0       12.450251   -1.521676    0.964699
     13          6           0      -13.594300    0.390578   -0.425623
     14          6           0      -10.731204    0.061426    0.092857
     15          6           0        9.679711    0.004403    0.037148
     16          6           0      -13.123503   -0.217818    0.977366
     17          6           0      -11.606267   -0.472334    0.953119
     18          6           0      -10.225711    2.357913   -0.894669
     19          6           0      -11.013981    0.577874   -2.351015
     20          6           0       11.426856   -0.149728    2.726082
     21          6           0        8.603088    0.804911    0.185149
     22          6           0       -9.314924   -0.389461   -0.092471
     23          6           0      -11.221396   -1.445791    2.036831
     24          6           0        7.191057    0.375693    0.074245
     25          6           0       -8.885633   -1.601501    0.188822
     26          6           0        6.763431   -1.090202   -0.185949
     27          6           0       -7.496961   -2.080634    0.084598
     28          6           0        6.180383    1.242058    0.535574
     29          6           0       -7.227612   -3.548061   -0.078230
     30          6           0       -6.406894   -1.211020    0.149074
     31          6           0        4.765498    1.174189    0.378237
     32          6           0       -5.080080   -1.484601   -0.077030
     33          6           0        3.969160    2.280688    0.876165
     34          6           0        2.604582    2.335066    0.845264
     35          6           0       -4.038460   -0.563896    0.087503
     36          6           0       -2.667343   -0.882680   -0.091550
     37          6           0        1.962837    3.587912    1.123992
     38          6           0        1.789343    1.298255    0.462099
     39          6           0       -1.767324    0.262967    0.125788
     40          6           0       -2.222070   -2.280154   -0.460197
     41          6           0        0.509608    1.360848    0.377580
     42          6           0       -0.355283    0.220948    0.071159
     43          1           0       11.097436    1.381501    0.382782
     44          1           0       12.522702   -1.322859   -2.594234
     45          1           0       11.119905   -1.790066   -1.641980
     46          1           0       12.763545   -3.055794   -0.427493
     47          1           0        9.980010    0.450347   -2.692907
     48          1           0       10.828303    1.840290   -1.863335
     49          1           0       11.556092    0.835393   -3.269469
     50          1           0       13.489566    0.460242   -0.011979
     51          1           0       13.750609    0.973814   -1.797021
     52          1           0       13.008514    2.103498   -0.612271
     53          1           0      -12.557922    2.108220    0.385839
     54          1           0      -12.968805    2.126302   -1.409889
     55          1           0       12.868559   -2.136475    1.823324
     56          1           0      -13.614225   -0.285909   -1.192091
     57          1           0        9.456471   -0.968626   -0.420167
     58          1           0      -13.869446   -1.195875    1.107993
     59          1           0      -13.381838    0.484325    1.726756
     60          1           0       -9.190114    2.057688   -1.343235
     61          1           0      -10.276300    2.754965    0.114184
     62          1           0      -10.449857    3.242281   -1.645172
     63          1           0      -11.777862   -0.333361   -2.425389
     64          1           0       -9.959467    0.150437   -2.563818
     65          1           0      -11.203106    1.527545   -2.934032
     66          1           0       10.220422    0.209230    2.780740
     67          1           0       12.026592    0.828057    3.158303
     68          1           0       11.671687   -0.967093    3.409591
     69          1           0       14.590295   -1.889344    0.144169
     70          1           0       -8.642721    0.373397   -0.444716
     71          1           0        8.777921    1.691478    0.419090
     72          1           0      -11.006930   -2.456513    1.637555
     73          1           0      -10.382029   -1.096240    2.648378
     74          1           0      -11.864293   -1.545180    2.967564
     75          1           0      -14.898398    1.430077   -1.077427
     76          1           0       -9.524733   -2.397444    0.246386
     77          1           0        5.708635   -1.454692   -0.347665
     78          1           0        7.141671   -1.485254   -1.131937
     79          1           0        6.958330   -1.845407    0.593119
     80          1           0        6.695150    2.315387    0.668550
     81          1           0       -7.241574   -3.950284   -1.132393
     82          1           0       -6.127903   -3.902117    0.286920
     83          1           0       -7.961921   -4.268344    0.395214
     84          1           0       -6.734074   -0.099404    0.205993
     85          1           0        4.378097    0.330997   -0.139007
     86          1           0       -4.728531   -2.474051   -0.315663
     87          1           0        4.675797    3.056556    1.256982
     88          1           0       -4.373571    0.522326    0.327486
     89          1           0        1.024338    3.598007    1.789830
     90          1           0        1.435227    4.065888    0.236875
     91          1           0        2.712974    4.460800    1.540906
     92          1           0        2.434329    0.305692    0.205769
     93          1           0       -2.238706    1.376840    0.503861
     94          1           0       -2.647911   -2.739611   -1.442288
     95          1           0       -1.309769   -2.487388   -0.556931
     96          1           0       -2.603418   -2.942716    0.319072
     97          1           0       -0.212290    2.180665    0.633723
     98          1           0        0.078809   -0.787970    0.014697
 ---------------------------------------------------------------------

 SCF Done:  E(RCAM-B3LYP) =  -1706.91581190     A.U. after   17 cycles

 Excitation energies and oscillator strengths:

 Excited State   1:      Singlet-A      1.6860 eV  735.36 nm  f=2.9573  <S**2>=0.000
     155 ->158        -0.11555
     156 ->157         0.71199
     156 <-157        -0.15524
 This state for optimization and/or second-order correction.
 Total Energy, E(TD-HF/TD-DFT) =  -1706.85385107
 Copying the excited state density for this state as the 1-particle RhoCI density.

 The electronic state is 1-A.
 Alpha  occ. eigenvalues --  -19.22105 -19.20161 -10.31281 -10.29516 -10.29088
 Alpha  occ. eigenvalues --  -10.28924 -10.28532 -10.28436 -10.27576 -10.27438
 Alpha  occ. eigenvalues --  -10.27260 -10.27145 -10.27105 -10.27102 -10.27083
 Alpha  occ. eigenvalues --  -10.27029 -10.26964 -10.26738 -10.26724 -10.26592
 Alpha  occ. eigenvalues --  -10.26454 -10.26435 -10.26298 -10.26272 -10.26270
 Alpha  occ. eigenvalues --  -10.26121 -10.26039 -10.26015 -10.26011 -10.25954
 Alpha  occ. eigenvalues --  -10.25896 -10.25748 -10.25738 -10.25719 -10.25538
 Alpha  occ. eigenvalues --  -10.25464 -10.25129 -10.25101 -10.24946 -10.24874
 Alpha  occ. eigenvalues --  -10.24273 -10.24177  -1.10441  -1.07665  -0.95617
 Alpha  occ. eigenvalues --   -0.93357  -0.93304  -0.91343  -0.90121  -0.89686
 Alpha  occ. eigenvalues --   -0.87438  -0.87250  -0.86859  -0.85631  -0.84694
 Alpha  occ. eigenvalues --   -0.82800  -0.82035  -0.80924  -0.79747  -0.79290
 Alpha  occ. eigenvalues --   -0.77182  -0.76508  -0.75853  -0.75666  -0.75284
 Alpha  occ. eigenvalues --   -0.75225  -0.74986  -0.74456  -0.72113  -0.70462
 Alpha  occ. eigenvalues --   -0.68693  -0.67218  -0.66632  -0.65729  -0.64438
 Alpha  occ. eigenvalues --   -0.63150  -0.62770  -0.61883  -0.60687  -0.60556
 Alpha  occ. eigenvalues --   -0.59912  -0.58461  -0.58263  -0.57600  -0.55923
 Alpha  occ. eigenvalues --   -0.55622  -0.55528  -0.55065  -0.54565  -0.54023
 Alpha  occ. eigenvalues --   -0.53567  -0.52866  -0.52699  -0.51668  -0.51380
 Alpha  occ. eigenvalues --   -0.50730  -0.50550  -0.49541  -0.49347  -0.49148
 Alpha  occ. eigenvalues --   -0.48850  -0.48623  -0.48256  -0.47803  -0.47421
 Alpha  occ. eigenvalues --   -0.47237  -0.47136  -0.47041  -0.46276  -0.46261
 Alpha  occ. eigenvalues --   -0.45734  -0.45703  -0.45438  -0.45191  -0.44773
 Alpha  occ. eigenvalues --   -0.44636  -0.44470  -0.44073  -0.43929  -0.43632
 Alpha  occ. eigenvalues --   -0.43467  -0.42647  -0.42509  -0.42368  -0.41939
 Alpha  occ. eigenvalues --   -0.41655  -0.41456  -0.41214  -0.41050  -0.40844
 Alpha  occ. eigenvalues --   -0.40262  -0.40006  -0.39766  -0.39588  -0.39405
 Alpha  occ. eigenvalues --   -0.39109  -0.38928  -0.38496  -0.38225  -0.38077
 Alpha  occ. eigenvalues --   -0.37730  -0.36936  -0.36691  -0.36479  -0.35802
 Alpha  occ. eigenvalues --   -0.35755  -0.34335  -0.33309  -0.32405  -0.31872
 Alpha  occ. eigenvalues --   -0.31148  -0.29515  -0.29192  -0.27115  -0.23913
 Alpha  occ. eigenvalues --   -0.17917
 Alpha virt. eigenvalues --   -0.07730  -0.00991   0.02546   0.05313   0.06775
 Alpha virt. eigenvalues --    0.08835   0.10541   0.10670   0.11514   0.11862
 Alpha virt. eigenvalues --    0.12317   0.12814   0.13098   0.13581   0.13993

 Mulliken charges:
               1
     1  O   -0.548684
     2  O   -0.536474
     3  C    0.018558
     4  C   -0.138899
     5  C   -0.184939
     6  C    0.142511
     7  C    0.125510
     8  C   -0.019209
     9  C   -0.275478
    10  C   -0.271134
    11  C   -0.185974
    12  C   -0.174784
    13  C    0.156977
    14  C    0.079696
    15  C   -0.044225
    16  C   -0.223010
    17  C    0.021251
    18  C   -0.301917
    19  C   -0.277785
    20  C   -0.349784
    21  C   -0.058057
    22  C   -0.098693
    23  C   -0.370738
    24  C    0.085104
    25  C   -0.082343
    26  C   -0.388973
    27  C    0.090216
    28  C   -0.133625
    29  C   -0.387298
    30  C   -0.115330
    31  C   -0.065097
    32  C   -0.082566
    33  C   -0.151966
    34  C    0.169405
    35  C   -0.104849
    36  C    0.090155
    37  C   -0.399058
    38  C   -0.087338
    39  C   -0.129413
    40  C   -0.360214
    41  C   -0.091335
    42  C   -0.095490
    43  H    0.090827
    44  H    0.102726
    45  H    0.108117
    46  H    0.080295
    47  H    0.084349
    48  H    0.098833
    49  H    0.085672
    50  H    0.077283
    51  H    0.117576
    52  H    0.084994
    53  H    0.100696
    54  H    0.069399
    55  H    0.079710
    56  H    0.087525
    57  H    0.080777
    58  H    0.088305
    59  H    0.130793
    60  H    0.093776
    61  H    0.113290
    62  H    0.082441
    63  H    0.085207
    64  H    0.107245
    65  H    0.094361
    66  H    0.096724
    67  H    0.091439
    68  H    0.121404
    69  H    0.300676
    70  H    0.086867
    71  H    0.051558
    72  H    0.117485
    73  H    0.121333
    74  H    0.096270
    75  H    0.298356
    76  H    0.076733
    77  H    0.104142
    78  H    0.112348
    79  H    0.125625
    80  H    0.064949
    81  H    0.119703
    82  H    0.097997
    83  H    0.106531
    84  H    0.071075
    85  H    0.096456
    86  H    0.079161
    87  H    0.095262
    88  H    0.082644
    89  H    0.112643
    90  H    0.122407
    91  H    0.087577
    92  H    0.073480
    93  H    0.070462
    94  H    0.112399
    95  H    0.117306
    96  H    0.128490
    97  H    0.088838
    98  H    0.082759
 Sum of Mulliken charges =  -0.00000

 Dipole moment (field-independent basis, Debye):
    X=             -0.6053    Y=             -0.8853    Z=             -0.1453  Tot=              1.0823
 Quadrupole moment (field-independent basis, Debye-Ang):
   XX=           -305.7133   YY=           -243.6825   ZZ=           -262.1930
   XY=             -5.1076   XZ=             37.7914   YZ=             -0.6074

 Normal termination of Gaussian 16 at Sat Jul 13 22:57:04 2019.
