 Gaussian 16, Revision A.03,
 Gaussian 16:  ES64L-G16RevA.03 25-Dec-2016

 -------------------------------------
 # td=(NStates=1) CAM-B3LYP/6-31G(d,p)
 -------------------------------------

 --
 TD
 --
 Symbolic Z-matrix:
 Charge =  0 Multiplicity = 1

                         Standard orientation:
 ---------------------------------------------------------------------
 Center     Atomic      Atomic             Coordinates (Angstroms)
 Number     Number       Type             X           Y           Z
 ---------------------------------------------------------------------
      1          8           0      -14.096701   -1.908161    0.524383
      2          8           0       14.877102    0.773263    0.143500
      3          6           0      -11.837211    0.260383    1.134236
      4          6           0      -10.949323    0.276863   -0.114254
      5          6           0      -12.181988   -1.252129    1.530086
      6          6           0      -12.833880   -2.004061    0.445360
      7          6           0      -11.517813   -0.624756   -1.200193
      8          6           0       11.138473    1.115511    0.878424
      9          6           0      -11.092851    0.765620    2.305695
     10          6           0      -13.135833    1.038630    0.923307
     11          6           0       12.540383    1.559613    0.711163
     12          6           0      -12.252006   -1.665754   -0.958133
     13          6           0       13.528013    0.370150    0.391788
     14          6           0       10.624195    0.040211   -0.200946
     15          6           0       -9.571469   -0.018911    0.034257
     16          6           0       13.073595   -0.254961   -0.947760
     17          6           0       11.596596   -0.589465   -0.943981
     18          6           0       10.268194    2.385952    0.746470
     19          6           0       11.004736    0.619756    2.352425
     20          6           0      -11.175710   -0.174247   -2.596511
     21          6           0       -8.496036    0.826088   -0.294995
     22          6           0        9.241638   -0.452314    0.029905
     23          6           0       11.310673   -1.508931   -1.968907
     24          6           0       -7.140314    0.437239   -0.076218
     25          6           0        8.815993   -1.773475   -0.197576
     26          6           0       -6.590535   -1.012047    0.264615
     27          6           0        7.432414   -2.044353   -0.043616
     28          6           0       -6.212644    1.326490   -0.495377
     29          6           0        7.200765   -3.586042    0.184227
     30          6           0        6.324212   -1.282537   -0.163418
     31          6           0       -4.859549    1.307507   -0.432899
     32          6           0        4.930440   -1.521487    0.059500
     33          6           0       -4.005769    2.357928   -0.746091
     34          6           0       -2.566688    2.521265   -0.690688
     35          6           0        4.030103   -0.524557   -0.028371
     36          6           0        2.601244   -0.717197    0.123100
     37          6           0       -2.006425    3.766000   -1.007372
     38          6           0       -1.751137    1.470473   -0.501973
     39          6           0        1.733883    0.314828   -0.127107
     40          6           0        2.092266   -2.128034    0.621902
     41          6           0       -0.379688    1.498851   -0.482465
     42          6           0        0.311323    0.323829   -0.168109
     43          1           0      -10.882407    1.290961   -0.536253
     44          1           0      -12.788149   -1.340097    2.295610
     45          1           0      -11.051736   -1.627171    2.032147
     46          1           0      -12.620620   -3.166272    0.639840
     47          1           0      -10.021747    0.398062    2.289792
     48          1           0      -11.036097    1.907937    2.247829
     49          1           0      -11.430769    0.605043    3.367950
     50          1           0      -13.853883    0.755544    0.048271
     51          1           0      -13.918748    0.840142    1.756581
     52          1           0      -12.938839    1.972651    0.863417
     53          1           0       12.642255    2.229393   -0.094572
     54          1           0       12.875705    2.192867    1.655629
     55          1           0      -12.596068   -2.295737   -1.835952
     56          1           0       13.624232   -0.419376    1.070376
     57          1           0       -9.484265   -1.166854    0.141151
     58          1           0       13.693527   -1.181584   -0.932008
     59          1           0       13.355694    0.341110   -1.771445
     60          1           0        9.183896    2.169824    1.199432
     61          1           0       10.100333    2.726991   -0.373426
     62          1           0       10.550638    3.332543    1.405809
     63          1           0       11.682753   -0.258986    2.555349
     64          1           0       10.007299    0.305302    2.732566
     65          1           0       11.368453    1.444912    3.030585
     66          1           0      -10.097124   -0.114213   -2.715137
     67          1           0      -11.671964    0.924699   -2.702088
     68          1           0      -11.739115   -0.761170   -3.264913
     69          1           0      -14.469969   -2.119867   -0.368368
     70          1           0        8.430911    0.199288    0.267208
     71          1           0       -8.697852    1.839650   -0.631015
     72          1           0       11.323130   -2.509523   -1.544247
     73          1           0       10.300225   -1.459162   -2.444968
     74          1           0       11.935391   -1.629921   -2.791406
     75          1           0       15.251081    0.906430    1.085525
     76          1           0        9.464785   -2.557915   -0.449792
     77          1           0       -5.510282   -1.086793    0.262434
     78          1           0       -6.834332   -1.313622    1.229657
     79          1           0       -6.813600   -1.847850   -0.484927
     80          1           0       -6.690923    2.306489   -0.559061
     81          1           0        6.884544   -3.878999    1.147376
     82          1           0        6.483182   -3.996876   -0.407213
     83          1           0        8.238730   -4.316594   -0.164128
     84          1           0        6.558044   -0.283572   -0.467277
     85          1           0       -4.259029    0.520708   -0.047952
     86          1           0        4.650835   -2.565951    0.095777
     87          1           0       -4.703029    3.283344   -1.321999
     88          1           0        4.241770    0.755106   -0.353752
     89          1           0       -1.464891    3.616832   -1.967511
     90          1           0       -1.449128    4.382932   -0.118531
     91          1           0       -2.806519    4.491882   -1.132718
     92          1           0       -2.294987    0.458063   -0.397718
     93          1           0        2.128002    1.397976   -0.436025
     94          1           0        2.295819   -2.188612    1.649204
     95          1           0        1.030892   -1.968289    0.365560
     96          1           0        2.226076   -2.963069   -0.275426
     97          1           0        0.280987    2.389650   -0.383202
     98          1           0       -0.379953   -0.576636    0.097901
 ---------------------------------------------------------------------

 SCF Done:  E(RCAM-B3LYP) =  -1706.93569755     A.U. after   15 cycles

 Excitation energies and oscillator strengths:

 Excited State   1:      Singlet-A      2.2766 eV  544.60 nm  f=3.2118  <S**2>=0.000
     155 ->158         0.16335
     156 ->157         0.68574
 This state for optimization and/or second-order correction.
 Total Energy, E(TD-HF/TD-DFT) =  -1706.85203364
 Copying the excited state density for this state as the 1-particle RhoCI density.

 The electronic state is 1-A.
 Alpha  occ. eigenvalues --  -19.21980 -19.21361 -10.30370 -10.29785 -10.28341
 Alpha  occ. eigenvalues --  -10.28046 -10.27938 -10.27694 -10.27504 -10.27434
 Alpha  occ. eigenvalues --  -10.27368 -10.27180 -10.26944 -10.26911 -10.26821
 Alpha  occ. eigenvalues --  -10.26756 -10.26745 -10.26654 -10.26593 -10.26546
 Alpha  occ. eigenvalues --  -10.26533 -10.26478 -10.26378 -10.25980 -10.25928
 Alpha  occ. eigenvalues --  -10.25812 -10.25690 -10.25675 -10.25652 -10.25582
 Alpha  occ. eigenvalues --  -10.25553 -10.25393 -10.25110 -10.25086 -10.25054
 Alpha  occ. eigenvalues --  -10.25045 -10.25023 -10.24752 -10.24441 -10.24278
 Alpha  occ. eigenvalues --  -10.23826 -10.23397  -1.15546  -1.08348  -0.94317
 Alpha  occ. eigenvalues --   -0.93131  -0.93088  -0.91527  -0.91045  -0.89924
 Alpha  occ. eigenvalues --   -0.87926  -0.87332  -0.87121  -0.85733  -0.84411
 Alpha  occ. eigenvalues --   -0.82894  -0.82276  -0.80336  -0.79943  -0.78148
 Alpha  occ. eigenvalues --   -0.77171  -0.76124  -0.76071  -0.75757  -0.75582
 Alpha  occ. eigenvalues --   -0.75145  -0.74961  -0.74036  -0.73097  -0.70138
 Alpha  occ. eigenvalues --   -0.68949  -0.67542  -0.66318  -0.65667  -0.63649
 Alpha  occ. eigenvalues --   -0.63009  -0.62801  -0.61810  -0.60547  -0.60423
 Alpha  occ. eigenvalues --   -0.59539  -0.59263  -0.58921  -0.57451  -0.56329
 Alpha  occ. eigenvalues --   -0.55357  -0.55078  -0.54818  -0.54187  -0.53875
 Alpha  occ. eigenvalues --   -0.53474  -0.53148  -0.52102  -0.51551  -0.51448
 Alpha  occ. eigenvalues --   -0.50566  -0.50560  -0.50296  -0.50062  -0.49518
 Alpha  occ. eigenvalues --   -0.49100  -0.48877  -0.48537  -0.48260  -0.48115
 Alpha  occ. eigenvalues --   -0.48021  -0.47885  -0.47544  -0.47048  -0.46689
 Alpha  occ. eigenvalues --   -0.46099  -0.45540  -0.45229  -0.45076  -0.44763
 Alpha  occ. eigenvalues --   -0.44625  -0.44203  -0.43889  -0.43483  -0.43177
 Alpha  occ. eigenvalues --   -0.42143  -0.41937  -0.41525  -0.41096  -0.41068
 Alpha  occ. eigenvalues --   -0.40973  -0.40795  -0.40583  -0.40461  -0.40344
 Alpha  occ. eigenvalues --   -0.40217  -0.40190  -0.39740  -0.39317  -0.38921
 Alpha  occ. eigenvalues --   -0.38717  -0.38558  -0.38470  -0.37885  -0.37752
 Alpha  occ. eigenvalues --   -0.37587  -0.37549  -0.37446  -0.36532  -0.35987
 Alpha  occ. eigenvalues --   -0.35086  -0.34844  -0.33865  -0.32178  -0.31518
 Alpha  occ. eigenvalues --   -0.31173  -0.29451  -0.29138  -0.26613  -0.23486
 Alpha  occ. eigenvalues --   -0.19918
 Alpha virt. eigenvalues --   -0.05618  -0.01334   0.01896   0.05825   0.07588
 Alpha virt. eigenvalues --    0.09149   0.10189   0.10786   0.11496   0.11928
 Alpha virt. eigenvalues --    0.12218   0.12792   0.12962   0.13242   0.13397

 Mulliken charges:
               1
     1  O   -0.487839
     2  O   -0.565162
     3  C    0.029245
     4  C   -0.116446
     5  C   -0.159021
     6  C    0.181345
     7  C    0.133080
     8  C    0.010397
     9  C   -0.313123
    10  C   -0.289206
    11  C   -0.175498
    12  C   -0.198322
    13  C    0.147477
    14  C    0.051810
    15  C   -0.088889
    16  C   -0.229389
    17  C    0.058897
    18  C   -0.300568
    19  C   -0.298565
    20  C   -0.344124
    21  C   -0.123355
    22  C   -0.110712
    23  C   -0.389039
    24  C    0.121528
    25  C   -0.081938
    26  C   -0.372186
    27  C    0.081629
    28  C   -0.128101
    29  C   -0.374239
    30  C   -0.123313
    31  C   -0.048569
    32  C   -0.097067
    33  C   -0.141990
    34  C    0.130189
    35  C   -0.078106
    36  C    0.069872
    37  C   -0.391101
    38  C   -0.117960
    39  C   -0.133496
    40  C   -0.360245
    41  C   -0.090425
    42  C   -0.076891
    43  H    0.077727
    44  H    0.112427
    45  H    0.051821
    46  H    0.017888
    47  H    0.108648
    48  H    0.076547
    49  H    0.099487
    50  H    0.089085
    51  H    0.094989
    52  H    0.103408
    53  H    0.108942
    54  H    0.066543
    55  H    0.064587
    56  H    0.086634
    57  H    0.094707
    58  H    0.109378
    59  H    0.135726
    60  H    0.080986
    61  H    0.095505
    62  H    0.088505
    63  H    0.091936
    64  H    0.105176
    65  H    0.091595
    66  H    0.129857
    67  H    0.090636
    68  H    0.110665
    69  H    0.312970
    70  H    0.094853
    71  H    0.095066
    72  H    0.118816
    73  H    0.121450
    74  H    0.115742
    75  H    0.303840
    76  H    0.090552
    77  H    0.110999
    78  H    0.125975
    79  H    0.111487
    80  H    0.077593
    81  H    0.126845
    82  H    0.127178
    83  H    0.053616
    84  H    0.072026
    85  H    0.078178
    86  H    0.099630
    87  H    0.046971
    88  H    0.062269
    89  H    0.132495
    90  H    0.101754
    91  H    0.113301
    92  H    0.074589
    93  H    0.075367
    94  H    0.148371
    95  H    0.110981
    96  H    0.108952
    97  H    0.102830
    98  H    0.091317
 Sum of Mulliken charges =  -0.00000

 Dipole moment (field-independent basis, Debye):
    X=              0.2182    Y=             -0.8845    Z=             -0.2923  Tot=              0.9567
 Quadrupole moment (field-independent basis, Debye-Ang):
   XX=           -264.2854   YY=           -249.7717   ZZ=           -260.4182
   XY=             -8.4403   XZ=             35.9387   YZ=              3.1845

 Normal termination of Gaussian 16 at Mon Jul 15 22:25:39 2019.
