 Gaussian 16, Revision A.03,
 Gaussian 16:  ES64L-G16RevA.03 25-Dec-2016

 -------------------------------------
 # td=(NStates=1) CAM-B3LYP/6-31G(d,p)
 -------------------------------------

 --
 TD
 --
 Symbolic Z-matrix:
 Charge =  0 Multiplicity = 1

                         Standard orientation:
 ---------------------------------------------------------------------
 Center     Atomic      Atomic             Coordinates (Angstroms)
 Number     Number       Type             X           Y           Z
 ---------------------------------------------------------------------
      1          8           0      -14.222413   -1.842254    0.526640
      2          8           0       14.790551    1.022397   -0.002865
      3          6           0      -11.745043    0.159773    1.131726
      4          6           0      -11.003942    0.312479   -0.148198
      5          6           0      -12.188486   -1.444717    1.441308
      6          6           0      -12.831461   -2.132415    0.284962
      7          6           0      -11.555760   -0.506079   -1.205608
      8          6           0       11.087643    0.985397    1.058658
      9          6           0      -11.021999    0.660953    2.342538
     10          6           0      -13.123151    0.965336    0.999954
     11          6           0       12.466600    1.514159    0.700312
     12          6           0      -12.365983   -1.630688   -1.049985
     13          6           0       13.537725    0.450917    0.396319
     14          6           0       10.677788   -0.191020   -0.037722
     15          6           0       -9.457242   -0.027632   -0.035539
     16          6           0       13.030535   -0.226642   -0.977160
     17          6           0       11.566789   -0.655290   -0.947513
     18          6           0       10.132477    2.111513    0.936457
     19          6           0       11.011297    0.423861    2.409271
     20          6           0      -11.152052   -0.122168   -2.601802
     21          6           0       -8.394353    0.761104   -0.230602
     22          6           0        9.328517   -0.608929    0.083532
     23          6           0       11.109217   -1.422341   -2.206302
     24          6           0       -6.991055    0.545405   -0.119265
     25          6           0        8.792265   -1.860709   -0.185978
     26          6           0       -6.604432   -0.851349    0.160918
     27          6           0        7.366018   -2.159455   -0.004797
     28          6           0       -6.194669    1.597366   -0.344844
     29          6           0        7.089371   -3.581773    0.096557
     30          6           0        6.395272   -1.166372   -0.096006
     31          6           0       -4.806661    1.579797   -0.307287
     32          6           0        5.014299   -1.497427    0.142052
     33          6           0       -3.920008    2.585860   -0.712035
     34          6           0       -2.568620    2.583758   -0.756073
     35          6           0        4.016978   -0.520615   -0.077433
     36          6           0        2.632182   -0.812747   -0.009275
     37          6           0       -1.831755    3.880280   -0.916089
     38          6           0       -1.799756    1.428208   -0.441961
     39          6           0        1.857812    0.323169   -0.187451
     40          6           0        2.020295   -2.067355    0.421909
     41          6           0       -0.314252    1.435896   -0.307890
     42          6           0        0.392559    0.310049   -0.143737
     43          1           0      -11.270044    1.306870   -0.387696
     44          1           0      -12.950446   -1.533925    2.272990
     45          1           0      -11.246380   -1.898584    1.752606
     46          1           0      -12.522104   -3.219308    0.497284
     47          1           0      -10.166734   -0.027138    2.448087
     48          1           0      -10.737942    1.675492    2.164432
     49          1           0      -11.751644    0.796825    3.263670
     50          1           0      -13.770600    0.469270    0.191186
     51          1           0      -13.748600    0.888601    1.945671
     52          1           0      -12.928900    2.067916    0.788306
     53          1           0       12.351081    2.418236   -0.322331
     54          1           0       12.739372    2.086060    1.518483
     55          1           0      -12.581281   -2.167331   -1.964933
     56          1           0       13.570435   -0.381939    1.156925
     57          1           0       -9.244659   -0.977234    0.294151
     58          1           0       13.777417   -0.899742   -1.216590
     59          1           0       13.129391    0.437483   -1.886532
     60          1           0        8.995209    1.989834    1.301231
     61          1           0       10.009863    2.269692   -0.241583
     62          1           0       10.438628    3.103865    1.398488
     63          1           0       11.708966   -0.603482    2.397149
     64          1           0       10.003884    0.184711    2.606516
     65          1           0       11.321792    1.188804    3.235047
     66          1           0      -10.157800    0.132477   -2.702946
     67          1           0      -11.639041    0.870193   -2.918660
     68          1           0      -11.590623   -0.895221   -3.394781
     69          1           0      -14.638954   -2.735681   -0.118704
     70          1           0        8.499933    0.168811    0.523907
     71          1           0       -8.637535    1.778701   -0.393034
     72          1           0       11.182343   -2.622657   -2.140450
     73          1           0       10.008682   -1.452352   -2.441190
     74          1           0       11.676633   -1.023179   -2.984764
     75          1           0       15.189823    1.742071    0.623368
     76          1           0        9.597825   -2.632545   -0.165726
     77          1           0       -5.562808   -0.918506    0.483321
     78          1           0       -7.140694   -1.304349    1.046218
     79          1           0       -6.859804   -1.536592   -0.744398
     80          1           0       -6.499985    2.592880   -0.436562
     81          1           0        7.099678   -3.872909    1.204033
     82          1           0        6.033185   -3.742751   -0.316961
     83          1           0        7.966245   -4.141154   -0.025644
     84          1           0        6.634897   -0.182422   -0.450433
     85          1           0       -4.361935    0.362174   -0.380981
     86          1           0        4.729399   -2.565218    0.491227
     87          1           0       -4.183856    3.453438   -1.123098
     88          1           0        4.302621    0.464129   -0.528259
     89          1           0       -0.825847    3.843413   -1.582027
     90          1           0       -1.453104    4.139076    0.121792
     91          1           0       -2.393975    4.578928   -1.183752
     92          1           0       -2.358442    0.335976   -0.133552
     93          1           0        2.140424    1.266272   -0.357037
     94          1           0        1.850843   -2.234255    1.769671
     95          1           0        0.859720   -2.043285    0.025921
     96          1           0        2.595149   -2.909028   -0.007218
     97          1           0        0.309016    2.347644   -0.648026
     98          1           0        0.026419   -0.657549    0.150461
 ---------------------------------------------------------------------

 SCF Done:  E(RCAM-B3LYP) =  -1706.88911760     A.U. after   15 cycles

 Excitation energies and oscillator strengths:

 Excited State   1:      Singlet-A      2.1040 eV  589.27 nm  f=2.9083  <S**2>=0.000
     155 ->158         0.16930
     156 ->157         0.68507
 This state for optimization and/or second-order correction.
 Total Energy, E(TD-HF/TD-DFT) =  -1706.81179640
 Copying the excited state density for this state as the 1-particle RhoCI density.

 The electronic state is 1-A.
 Alpha  occ. eigenvalues --  -19.22915 -19.22109 -10.32075 -10.30436 -10.29218
 Alpha  occ. eigenvalues --  -10.28061 -10.27699 -10.27587 -10.27481 -10.27134
 Alpha  occ. eigenvalues --  -10.27122 -10.27076 -10.26961 -10.26823 -10.26766
 Alpha  occ. eigenvalues --  -10.26765 -10.26724 -10.26634 -10.26630 -10.26518
 Alpha  occ. eigenvalues --  -10.26304 -10.26234 -10.26153 -10.26095 -10.25956
 Alpha  occ. eigenvalues --  -10.25913 -10.25818 -10.25720 -10.25651 -10.25591
 Alpha  occ. eigenvalues --  -10.25475 -10.25422 -10.25395 -10.25363 -10.25363
 Alpha  occ. eigenvalues --  -10.25262 -10.25141 -10.25000 -10.24795 -10.24375
 Alpha  occ. eigenvalues --  -10.24118 -10.23930  -1.07859  -1.06931  -0.93456
 Alpha  occ. eigenvalues --   -0.93426  -0.92476  -0.91988  -0.90965  -0.90476
 Alpha  occ. eigenvalues --   -0.87603  -0.86752  -0.85518  -0.84925  -0.84354
 Alpha  occ. eigenvalues --   -0.82544  -0.82092  -0.80106  -0.79739  -0.77493
 Alpha  occ. eigenvalues --   -0.77393  -0.76195  -0.76173  -0.75667  -0.75404
 Alpha  occ. eigenvalues --   -0.74938  -0.74344  -0.73841  -0.72603  -0.70817
 Alpha  occ. eigenvalues --   -0.68822  -0.66635  -0.65606  -0.64753  -0.63568
 Alpha  occ. eigenvalues --   -0.62585  -0.62084  -0.62050  -0.60246  -0.60065
 Alpha  occ. eigenvalues --   -0.59558  -0.57581  -0.57361  -0.56602  -0.55997
 Alpha  occ. eigenvalues --   -0.55750  -0.55143  -0.54870  -0.54136  -0.53934
 Alpha  occ. eigenvalues --   -0.53556  -0.52671  -0.52175  -0.51353  -0.50880
 Alpha  occ. eigenvalues --   -0.49942  -0.49548  -0.49449  -0.49300  -0.48963
 Alpha  occ. eigenvalues --   -0.48353  -0.48234  -0.47941  -0.47832  -0.47493
 Alpha  occ. eigenvalues --   -0.47151  -0.46473  -0.46281  -0.46160  -0.46008
 Alpha  occ. eigenvalues --   -0.45892  -0.45227  -0.44965  -0.44741  -0.44344
 Alpha  occ. eigenvalues --   -0.44336  -0.44109  -0.44063  -0.43887  -0.43763
 Alpha  occ. eigenvalues --   -0.43174  -0.43154  -0.42899  -0.42304  -0.42227
 Alpha  occ. eigenvalues --   -0.41403  -0.41334  -0.40945  -0.40862  -0.40421
 Alpha  occ. eigenvalues --   -0.40100  -0.39873  -0.39712  -0.39258  -0.39040
 Alpha  occ. eigenvalues --   -0.38766  -0.38569  -0.37643  -0.37362  -0.37284
 Alpha  occ. eigenvalues --   -0.36942  -0.36907  -0.36191  -0.35136  -0.35106
 Alpha  occ. eigenvalues --   -0.34366  -0.33859  -0.33822  -0.33117  -0.31687
 Alpha  occ. eigenvalues --   -0.31528  -0.29452  -0.28260  -0.26983  -0.22876
 Alpha  occ. eigenvalues --   -0.19310
 Alpha virt. eigenvalues --   -0.05752  -0.01747   0.02455   0.04978   0.06579
 Alpha virt. eigenvalues --    0.07871   0.08800   0.10059   0.11083   0.11229
 Alpha virt. eigenvalues --    0.11662   0.12285   0.12370   0.12901   0.13163

 Mulliken charges:
               1
     1  O   -0.519191
     2  O   -0.575760
     3  C    0.002237
     4  C   -0.102947
     5  C   -0.195112
     6  C    0.106961
     7  C    0.128273
     8  C    0.009646
     9  C   -0.277733
    10  C   -0.316759
    11  C   -0.159448
    12  C   -0.114811
    13  C    0.178647
    14  C    0.054662
    15  C   -0.114509
    16  C   -0.225396
    17  C    0.034670
    18  C   -0.302621
    19  C   -0.268904
    20  C   -0.355861
    21  C   -0.075711
    22  C   -0.098656
    23  C   -0.352486
    24  C    0.137361
    25  C   -0.149170
    26  C   -0.383605
    27  C    0.107454
    28  C   -0.097587
    29  C   -0.377271
    30  C   -0.117789
    31  C   -0.088174
    32  C   -0.116444
    33  C   -0.092987
    34  C    0.073320
    35  C   -0.113600
    36  C    0.123248
    37  C   -0.345896
    38  C   -0.119566
    39  C   -0.101561
    40  C   -0.341667
    41  C   -0.112938
    42  C   -0.054261
    43  H    0.101052
    44  H    0.113845
    45  H    0.079540
    46  H    0.079566
    47  H    0.096005
    48  H    0.097317
    49  H    0.085746
    50  H    0.125719
    51  H    0.095184
    52  H    0.076308
    53  H    0.049864
    54  H    0.082340
    55  H    0.070526
    56  H    0.092336
    57  H    0.076210
    58  H    0.121003
    59  H    0.115562
    60  H    0.085268
    61  H    0.096019
    62  H    0.099825
    63  H    0.073730
    64  H    0.120896
    65  H    0.084923
    66  H    0.129126
    67  H    0.100098
    68  H    0.091911
    69  H    0.288750
    70  H    0.075854
    71  H    0.066112
    72  H    0.090557
    73  H    0.126191
    74  H    0.112182
    75  H    0.310991
    76  H    0.090558
    77  H    0.111780
    78  H    0.116310
    79  H    0.120374
    80  H    0.087560
    81  H    0.110414
    82  H    0.119343
    83  H    0.123803
    84  H    0.092165
    85  H    0.056794
    86  H    0.088541
    87  H    0.068416
    88  H    0.089496
    89  H    0.100877
    90  H    0.127521
    91  H    0.104238
    92  H    0.073716
    93  H    0.066075
    94  H    0.080612
    95  H    0.101003
    96  H    0.115808
    97  H    0.081770
    98  H    0.074211
 Sum of Mulliken charges =  -0.00000

 Dipole moment (field-independent basis, Debye):
    X=              2.2785    Y=             -0.5070    Z=              0.1588  Tot=              2.3396
 Quadrupole moment (field-independent basis, Debye-Ang):
   XX=           -277.2939   YY=           -237.7607   ZZ=           -264.6398
   XY=             21.7275   XZ=             30.5672   YZ=              0.1408

 Normal termination of Gaussian 16 at Mon Jul 15 12:28:42 2019.
