 Gaussian 16, Revision A.03,
 Gaussian 16:  ES64L-G16RevA.03 25-Dec-2016

 -------------------------------------
 # td=(NStates=1) CAM-B3LYP/6-31G(d,p)
 -------------------------------------

 --
 TD
 --
 Symbolic Z-matrix:
 Charge =  0 Multiplicity = 1

                         Standard orientation:
 ---------------------------------------------------------------------
 Center     Atomic      Atomic             Coordinates (Angstroms)
 Number     Number       Type             X           Y           Z
 ---------------------------------------------------------------------
      1          8           0      -14.244998   -1.803071    0.456809
      2          8           0       14.799983    0.961374   -0.071253
      3          6           0      -11.791340    0.162453    1.129638
      4          6           0      -10.953818    0.356958   -0.070694
      5          6           0      -12.122641   -1.240590    1.450555
      6          6           0      -12.859415   -1.937976    0.255291
      7          6           0      -11.503023   -0.520286   -1.257978
      8          6           0       11.139068    1.125383    0.907144
      9          6           0      -11.013641    0.678047    2.414841
     10          6           0      -13.000997    0.993397    1.013051
     11          6           0       12.562367    1.594278    0.613854
     12          6           0      -12.363947   -1.501558   -1.164452
     13          6           0       13.587806    0.404038    0.193048
     14          6           0       10.728308    0.000844   -0.063116
     15          6           0       -9.527424   -0.107272   -0.079721
     16          6           0       13.041954   -0.236421   -1.003867
     17          6           0       11.591833   -0.583425   -0.888769
     18          6           0       10.216735    2.403345    0.652387
     19          6           0       11.105924    0.625026    2.409517
     20          6           0      -11.111342    0.043640   -2.504335
     21          6           0       -8.579979    0.716501   -0.321792
     22          6           0        9.303464   -0.412932    0.171674
     23          6           0       11.146787   -1.578393   -2.042579
     24          6           0       -7.214116    0.359882   -0.211747
     25          6           0        8.832437   -1.712184    0.026509
     26          6           0       -6.689570   -0.976709    0.154845
     27          6           0        7.504156   -2.175849    0.037380
     28          6           0       -6.196697    1.426195   -0.431852
     29          6           0        7.206014   -3.654120    0.189009
     30          6           0        6.443039   -1.251310   -0.141120
     31          6           0       -4.893932    1.391032   -0.329285
     32          6           0        5.010296   -1.492572    0.168200
     33          6           0       -4.016254    2.410847   -0.562265
     34          6           0       -2.633457    2.467203   -0.684612
     35          6           0        3.991700   -0.515093    0.089322
     36          6           0        2.621046   -0.763292    0.145129
     37          6           0       -1.900772    3.788332   -0.935457
     38          6           0       -1.806249    1.360624   -0.423590
     39          6           0        1.722715    0.238098   -0.075335
     40          6           0        2.155602   -2.237782    0.556579
     41          6           0       -0.482730    1.301648   -0.391613
     42          6           0        0.284487    0.208755   -0.113399
     43          1           0      -10.889189    1.392983   -0.261884
     44          1           0      -12.809559   -1.533961    2.273140
     45          1           0      -11.404606   -2.051962    1.799630
     46          1           0      -12.547115   -3.039716    0.151316
     47          1           0       -9.986539    0.132517    2.512757
     48          1           0      -10.656109    1.912536    2.308641
     49          1           0      -11.714732    0.646636    3.390892
     50          1           0      -13.493148    0.577774    0.007218
     51          1           0      -13.616596    1.214267    1.968420
     52          1           0      -12.800428    2.079711    0.787604
     53          1           0       12.538497    2.201295   -0.253316
     54          1           0       12.910149    2.018559    1.476146
     55          1           0      -12.595802   -2.268600   -1.914139
     56          1           0       13.634556   -0.340545    0.877485
     57          1           0       -9.365142   -1.338396   -0.055800
     58          1           0       13.771755   -1.057881   -1.392060
     59          1           0       13.412262    0.418860   -1.830358
     60          1           0        9.023866    2.398923    0.992090
     61          1           0       10.217969    2.630711   -0.458972
     62          1           0       10.628675    3.304718    1.225319
     63          1           0       11.844821   -0.080952    2.385330
     64          1           0        9.968777    0.174567    2.544033
     65          1           0       11.098007    1.562302    3.078996
     66          1           0      -10.127647    0.117435   -2.619735
     67          1           0      -11.431264    0.992712   -2.560377
     68          1           0      -11.590674   -0.271124   -3.405020
     69          1           0      -14.549731   -2.486451   -0.359478
     70          1           0        8.381829    0.427430    0.325143
     71          1           0       -8.700475    1.690647   -0.606216
     72          1           0       11.247316   -2.764150   -1.876984
     73          1           0       10.059774   -1.580021   -2.265238
     74          1           0       11.599897   -1.482444   -3.005496
     75          1           0       15.147370    1.262746    0.742785
     76          1           0        9.358356   -2.601992   -0.193731
     77          1           0       -5.557294   -1.322241   -0.375958
     78          1           0       -6.810996   -1.218368    1.321847
     79          1           0       -7.697537   -1.642298   -0.369825
     80          1           0       -6.592673    2.432246   -0.851304
     81          1           0        6.927183   -3.706877    1.282924
     82          1           0        6.405572   -3.961797   -0.515529
     83          1           0        7.998655   -4.274169    0.021811
     84          1           0        6.716830   -0.275309   -0.267654
     85          1           0       -4.489067    0.420549    0.176680
     86          1           0        4.879252   -2.375048    0.501985
     87          1           0       -4.455872    3.412660   -0.772607
     88          1           0        4.062358    0.521765   -0.429753
     89          1           0       -1.364298    3.717110   -1.913146
     90          1           0       -1.355013    4.159117   -0.144350
     91          1           0       -2.796812    4.513092   -0.754798
     92          1           0       -2.316588    0.482695   -0.055251
     93          1           0        2.113878    1.205017   -0.375388
     94          1           0        2.700754   -2.609888    1.466538
     95          1           0        1.089515   -2.375518    0.917696
     96          1           0        2.484123   -3.143133   -0.157452
     97          1           0       -0.006270    2.273595   -0.767619
     98          1           0       -0.147070   -0.711320   -0.093793
 ---------------------------------------------------------------------

 SCF Done:  E(RCAM-B3LYP) =  -1706.84599834     A.U. after   16 cycles

 Excitation energies and oscillator strengths:

 Excited State   1:      Singlet-A      1.8396 eV  673.99 nm  f=3.1458  <S**2>=0.000
     155 ->158         0.14488
     156 ->157         0.69853
     156 <-157        -0.11800
 This state for optimization and/or second-order correction.
 Total Energy, E(TD-HF/TD-DFT) =  -1706.77839587
 Copying the excited state density for this state as the 1-particle RhoCI density.

 The electronic state is 1-A.
 Alpha  occ. eigenvalues --  -19.22501 -19.21472 -10.30618 -10.30094 -10.29102
 Alpha  occ. eigenvalues --  -10.28337 -10.28086 -10.27706 -10.27591 -10.27373
 Alpha  occ. eigenvalues --  -10.27343 -10.27280 -10.27080 -10.26968 -10.26943
 Alpha  occ. eigenvalues --  -10.26913 -10.26894 -10.26651 -10.26555 -10.26424
 Alpha  occ. eigenvalues --  -10.26342 -10.26249 -10.26227 -10.26056 -10.25995
 Alpha  occ. eigenvalues --  -10.25955 -10.25867 -10.25798 -10.25793 -10.25692
 Alpha  occ. eigenvalues --  -10.25674 -10.25587 -10.25543 -10.25372 -10.25200
 Alpha  occ. eigenvalues --  -10.25186 -10.25054 -10.24888 -10.24818 -10.24736
 Alpha  occ. eigenvalues --  -10.23541 -10.22017  -1.12555  -1.08388  -0.95293
 Alpha  occ. eigenvalues --   -0.93131  -0.92589  -0.91534  -0.90932  -0.90080
 Alpha  occ. eigenvalues --   -0.88451  -0.88028  -0.86105  -0.85779  -0.84354
 Alpha  occ. eigenvalues --   -0.82969  -0.82085  -0.80523  -0.79461  -0.78164
 Alpha  occ. eigenvalues --   -0.77406  -0.76014  -0.75918  -0.75352  -0.75310
 Alpha  occ. eigenvalues --   -0.75285  -0.74418  -0.73126  -0.72954  -0.70360
 Alpha  occ. eigenvalues --   -0.69574  -0.67407  -0.66888  -0.65890  -0.63993
 Alpha  occ. eigenvalues --   -0.63591  -0.63004  -0.62047  -0.60939  -0.60791
 Alpha  occ. eigenvalues --   -0.59731  -0.59176  -0.58154  -0.57110  -0.56397
 Alpha  occ. eigenvalues --   -0.55885  -0.55441  -0.55020  -0.54304  -0.53922
 Alpha  occ. eigenvalues --   -0.53613  -0.53230  -0.52359  -0.52035  -0.51071
 Alpha  occ. eigenvalues --   -0.50811  -0.50558  -0.50040  -0.49859  -0.49569
 Alpha  occ. eigenvalues --   -0.49217  -0.49161  -0.48399  -0.48179  -0.47694
 Alpha  occ. eigenvalues --   -0.47184  -0.46661  -0.46366  -0.46141  -0.45842
 Alpha  occ. eigenvalues --   -0.45614  -0.45583  -0.45321  -0.44890  -0.44634
 Alpha  occ. eigenvalues --   -0.44191  -0.44115  -0.43990  -0.43582  -0.43370
 Alpha  occ. eigenvalues --   -0.42866  -0.42851  -0.42163  -0.41973  -0.41656
 Alpha  occ. eigenvalues --   -0.41328  -0.41281  -0.41065  -0.40735  -0.40424
 Alpha  occ. eigenvalues --   -0.39745  -0.39728  -0.39401  -0.39049  -0.38777
 Alpha  occ. eigenvalues --   -0.38669  -0.38448  -0.38412  -0.37986  -0.37851
 Alpha  occ. eigenvalues --   -0.37564  -0.37079  -0.36522  -0.36496  -0.35872
 Alpha  occ. eigenvalues --   -0.35398  -0.34814  -0.33017  -0.32111  -0.31489
 Alpha  occ. eigenvalues --   -0.31325  -0.29614  -0.29468  -0.27187  -0.23007
 Alpha  occ. eigenvalues --   -0.18463
 Alpha virt. eigenvalues --   -0.07012  -0.02038   0.02666   0.05901   0.07151
 Alpha virt. eigenvalues --    0.08977   0.09341   0.10390   0.11470   0.11887
 Alpha virt. eigenvalues --    0.12430   0.13004   0.13377   0.13467   0.13815

 Mulliken charges:
               1
     1  O   -0.514366
     2  O   -0.537218
     3  C    0.036580
     4  C   -0.119936
     5  C   -0.181935
     6  C    0.100873
     7  C    0.108353
     8  C   -0.020350
     9  C   -0.284699
    10  C   -0.283259
    11  C   -0.192868
    12  C   -0.164253
    13  C    0.162870
    14  C    0.064136
    15  C   -0.110705
    16  C   -0.246911
    17  C    0.073182
    18  C   -0.304478
    19  C   -0.287755
    20  C   -0.351328
    21  C   -0.016816
    22  C   -0.127355
    23  C   -0.372105
    24  C    0.094245
    25  C   -0.063696
    26  C   -0.344727
    27  C    0.040459
    28  C   -0.128707
    29  C   -0.368171
    30  C   -0.100843
    31  C   -0.041484
    32  C   -0.076343
    33  C   -0.136691
    34  C    0.070868
    35  C   -0.127798
    36  C    0.150347
    37  C   -0.372409
    38  C   -0.093579
    39  C   -0.145249
    40  C   -0.381832
    41  C   -0.064617
    42  C   -0.082394
    43  H    0.099213
    44  H    0.120928
    45  H    0.092690
    46  H    0.056589
    47  H    0.098417
    48  H    0.047217
    49  H    0.090259
    50  H    0.108540
    51  H    0.098988
    52  H    0.084366
    53  H    0.108429
    54  H    0.080765
    55  H    0.084550
    56  H    0.082805
    57  H    0.091421
    58  H    0.097214
    59  H    0.121386
    60  H    0.074569
    61  H    0.107989
    62  H    0.094371
    63  H    0.113630
    64  H    0.090251
    65  H    0.098810
    66  H    0.119345
    67  H    0.124457
    68  H    0.103268
    69  H    0.298688
    70  H    0.089977
    71  H    0.086694
    72  H    0.084238
    73  H    0.120416
    74  H    0.115199
    75  H    0.304464
    76  H    0.076777
    77  H    0.106078
    78  H    0.122295
    79  H    0.065180
    80  H    0.062569
    81  H    0.128812
    82  H    0.124908
    83  H    0.116285
    84  H    0.065091
    85  H    0.078316
    86  H    0.067555
    87  H    0.070542
    88  H    0.080872
    89  H    0.132018
    90  H    0.141401
    91  H    0.088964
    92  H    0.066138
    93  H    0.075855
    94  H    0.115708
    95  H    0.108199
    96  H    0.103535
    97  H    0.072405
    98  H    0.083317
 Sum of Mulliken charges =  -0.00000

 Dipole moment (field-independent basis, Debye):
    X=              0.7451    Y=             -1.1914    Z=             -0.2259  Tot=              1.4232
 Quadrupole moment (field-independent basis, Debye-Ang):
   XX=           -268.9019   YY=           -241.7651   ZZ=           -262.2496
   XY=              6.3778   XZ=             33.5657   YZ=              1.9256

 Normal termination of Gaussian 16 at Sat Jul 13 08:31:26 2019.
