 Gaussian 16, Revision A.03,
 Gaussian 16:  ES64L-G16RevA.03 25-Dec-2016

 -------------------------------------
 # td=(NStates=1) CAM-B3LYP/6-31G(d,p)
 -------------------------------------

 --
 TD
 --
 Symbolic Z-matrix:
 Charge =  0 Multiplicity = 1

                         Standard orientation:
 ---------------------------------------------------------------------
 Center     Atomic      Atomic             Coordinates (Angstroms)
 Number     Number       Type             X           Y           Z
 ---------------------------------------------------------------------
      1          8           0      -14.148149   -1.986628    0.375534
      2          8           0       14.868730    1.109762   -0.011338
      3          6           0      -11.847929    0.077023    1.283996
      4          6           0      -11.004632    0.399129   -0.048965
      5          6           0      -12.080347   -1.416722    1.381376
      6          6           0      -12.766632   -2.063230    0.181187
      7          6           0      -11.637097   -0.387240   -1.249451
      8          6           0       11.097187    1.020604    1.023849
      9          6           0      -11.070005    0.626188    2.491816
     10          6           0      -13.213824    0.722993    1.127558
     11          6           0       12.521108    1.548639    0.687669
     12          6           0      -12.329298   -1.476074   -1.131074
     13          6           0       13.583326    0.525689    0.403946
     14          6           0       10.672226   -0.026550   -0.040538
     15          6           0       -9.612402    0.009606    0.026952
     16          6           0       13.077515   -0.134141   -0.879346
     17          6           0       11.610799   -0.593036   -0.928127
     18          6           0       10.109555    2.282489    0.973826
     19          6           0       11.013556    0.441947    2.432049
     20          6           0      -11.128921    0.187414   -2.559415
     21          6           0       -8.505129    0.849395   -0.037867
     22          6           0        9.282596   -0.573666   -0.028454
     23          6           0       11.325191   -1.598629   -2.006832
     24          6           0       -7.084428    0.512301   -0.029801
     25          6           0        8.814762   -1.896198    0.026912
     26          6           0       -6.818307   -0.942507    0.224189
     27          6           0        7.392321   -2.209136    0.084867
     28          6           0       -6.165544    1.481197   -0.221549
     29          6           0        7.043442   -3.610907    0.316353
     30          6           0        6.415608   -1.266065   -0.172210
     31          6           0       -4.758476    1.386676   -0.179551
     32          6           0        5.040183   -1.578027   -0.217418
     33          6           0       -3.956861    2.491111   -0.574949
     34          6           0       -2.579279    2.619066   -0.626401
     35          6           0        4.026452   -0.618470   -0.381268
     36          6           0        2.682414   -0.876677   -0.186713
     37          6           0       -1.945168    3.928295   -0.992063
     38          6           0       -1.719770    1.503725   -0.352746
     39          6           0        1.850695    0.260195   -0.459394
     40          6           0        2.111499   -2.235868    0.113053
     41          6           0       -0.369895    1.460067   -0.498350
     42          6           0        0.410471    0.376271   -0.373141
     43          1           0      -11.354131    1.429168   -0.271952
     44          1           0      -12.750898   -1.618254    2.145077
     45          1           0      -11.313836   -1.939093    1.266697
     46          1           0      -12.505149   -3.189805    0.120033
     47          1           0      -10.188516    0.090932    2.660218
     48          1           0      -10.883953    1.698360    2.477770
     49          1           0      -11.549377    0.312575    3.361559
     50          1           0      -13.756512    0.444225    0.142175
     51          1           0      -13.888045    0.257351    1.776093
     52          1           0      -13.291149    1.805252    1.033454
     53          1           0       12.613562    2.101310   -0.239254
     54          1           0       12.992056    1.992635    1.640092
     55          1           0      -12.743188   -2.020477   -1.973377
     56          1           0       13.651079   -0.265682    1.285033
     57          1           0       -9.468023   -1.057951    0.313709
     58          1           0       13.836497   -1.032739   -1.072515
     59          1           0       13.245074    0.826786   -1.660373
     60          1           0        9.212089    2.443665    1.575547
     61          1           0        9.831176    2.549969   -0.173148
     62          1           0       10.732064    3.162451    1.216237
     63          1           0       11.902825   -0.345033    2.602665
     64          1           0        9.956720   -0.188508    2.511808
     65          1           0       11.111687    1.130344    3.288408
     66          1           0       -9.958570    0.028593   -2.844882
     67          1           0      -11.404562    1.409057   -2.758554
     68          1           0      -12.060878   -0.075912   -3.461781
     69          1           0      -14.729106   -2.305788   -0.396375
     70          1           0        8.497487    0.095794    0.157757
     71          1           0       -8.566128    1.920944   -0.290587
     72          1           0       11.680343   -2.623618   -1.544839
     73          1           0       10.079228   -1.486314   -2.213366
     74          1           0       11.899103   -1.430951   -2.920639
     75          1           0       15.104242    1.435762    0.929100
     76          1           0        9.649697   -2.567339   -0.074073
     77          1           0       -5.733533   -1.254950    0.634210
     78          1           0       -7.322141   -1.417749    1.081564
     79          1           0       -7.023540   -1.559017   -0.736459
     80          1           0       -6.500412    2.647327   -0.506032
     81          1           0        6.496855   -3.830570    1.265411
     82          1           0        6.509175   -3.968020   -0.429756
     83          1           0        8.069989   -4.243960    0.329641
     84          1           0        6.648856   -0.273859   -0.349156
     85          1           0       -4.469886    0.332141    0.056768
     86          1           0        4.821217   -2.540178   -0.068511
     87          1           0       -4.664759    3.340569   -0.737994
     88          1           0        4.454711    0.581015   -0.286521
     89          1           0       -1.286416    3.891022   -1.903891
     90          1           0       -1.424988    4.392289   -0.162819
     91          1           0       -2.623562    4.778323   -1.280995
     92          1           0       -2.304715    0.548525   -0.009599
     93          1           0        2.422395    1.036688   -0.580312
     94          1           0        2.388971   -2.510116    1.346024
     95          1           0        0.995785   -2.208749    0.085137
     96          1           0        2.561786   -2.994905   -0.452978
     97          1           0       -0.012658    2.418092   -0.656036
     98          1           0       -0.272465   -0.377973    0.217167
 ---------------------------------------------------------------------

 SCF Done:  E(RCAM-B3LYP) =  -1706.91495091     A.U. after   15 cycles

 Excitation energies and oscillator strengths:

 Excited State   1:      Singlet-A      1.9383 eV  639.66 nm  f=3.1429  <S**2>=0.000
     155 ->158        -0.14792
     156 ->157         0.69510
     156 <-157        -0.10064
 This state for optimization and/or second-order correction.
 Total Energy, E(TD-HF/TD-DFT) =  -1706.84372056
 Copying the excited state density for this state as the 1-particle RhoCI density.

 The electronic state is 1-A.
 Alpha  occ. eigenvalues --  -19.23025 -19.21210 -10.31228 -10.30679 -10.29384
 Alpha  occ. eigenvalues --  -10.29328 -10.27832 -10.27717 -10.27707 -10.27701
 Alpha  occ. eigenvalues --  -10.27442 -10.27420 -10.27324 -10.27268 -10.27257
 Alpha  occ. eigenvalues --  -10.27233 -10.27127 -10.27123 -10.27090 -10.27062
 Alpha  occ. eigenvalues --  -10.26968 -10.26801 -10.26572 -10.26530 -10.26529
 Alpha  occ. eigenvalues --  -10.26518 -10.26320 -10.26148 -10.26112 -10.26015
 Alpha  occ. eigenvalues --  -10.25987 -10.25944 -10.25892 -10.25811 -10.25534
 Alpha  occ. eigenvalues --  -10.25401 -10.25057 -10.24931 -10.24453 -10.22555
 Alpha  occ. eigenvalues --  -10.22543 -10.22203  -1.09071  -1.08732  -0.93458
 Alpha  occ. eigenvalues --   -0.92928  -0.92286  -0.91806  -0.90765  -0.90059
 Alpha  occ. eigenvalues --   -0.87346  -0.86601  -0.86108  -0.85205  -0.84818
 Alpha  occ. eigenvalues --   -0.83217  -0.82456  -0.80488  -0.80014  -0.78434
 Alpha  occ. eigenvalues --   -0.76393  -0.76361  -0.76209  -0.75425  -0.75292
 Alpha  occ. eigenvalues --   -0.74975  -0.74201  -0.74086  -0.72828  -0.70323
 Alpha  occ. eigenvalues --   -0.68655  -0.67591  -0.66244  -0.63784  -0.63696
 Alpha  occ. eigenvalues --   -0.63019  -0.62517  -0.62207  -0.60945  -0.60085
 Alpha  occ. eigenvalues --   -0.59786  -0.58847  -0.58660  -0.58116  -0.56381
 Alpha  occ. eigenvalues --   -0.55438  -0.54546  -0.54205  -0.53972  -0.53601
 Alpha  occ. eigenvalues --   -0.53356  -0.52843  -0.51931  -0.51231  -0.50939
 Alpha  occ. eigenvalues --   -0.50504  -0.49870  -0.49633  -0.49100  -0.48986
 Alpha  occ. eigenvalues --   -0.48911  -0.48493  -0.48335  -0.48227  -0.47825
 Alpha  occ. eigenvalues --   -0.47779  -0.46885  -0.46766  -0.46213  -0.46145
 Alpha  occ. eigenvalues --   -0.45875  -0.45524  -0.44963  -0.44746  -0.44616
 Alpha  occ. eigenvalues --   -0.44545  -0.44431  -0.43596  -0.43425  -0.42896
 Alpha  occ. eigenvalues --   -0.42845  -0.42636  -0.42405  -0.41848  -0.41463
 Alpha  occ. eigenvalues --   -0.41271  -0.41166  -0.41032  -0.40725  -0.40627
 Alpha  occ. eigenvalues --   -0.40079  -0.40063  -0.39828  -0.39284  -0.38834
 Alpha  occ. eigenvalues --   -0.38792  -0.38627  -0.38438  -0.37910  -0.37720
 Alpha  occ. eigenvalues --   -0.37564  -0.37220  -0.36477  -0.36154  -0.35912
 Alpha  occ. eigenvalues --   -0.35233  -0.34513  -0.33344  -0.32875  -0.31850
 Alpha  occ. eigenvalues --   -0.31052  -0.30404  -0.28641  -0.26776  -0.23233
 Alpha  occ. eigenvalues --   -0.18828
 Alpha virt. eigenvalues --   -0.06568  -0.01556   0.02720   0.05317   0.07135
 Alpha virt. eigenvalues --    0.08265   0.10476   0.10790   0.11281   0.11857
 Alpha virt. eigenvalues --    0.12119   0.12564   0.12970   0.13248   0.13647

 Mulliken charges:
               1
     1  O   -0.556106
     2  O   -0.535450
     3  C    0.023049
     4  C   -0.130194
     5  C   -0.155856
     6  C    0.134044
     7  C    0.105262
     8  C    0.031372
     9  C   -0.298997
    10  C   -0.315883
    11  C   -0.165411
    12  C   -0.108775
    13  C    0.108287
    14  C    0.047822
    15  C   -0.075910
    16  C   -0.218168
    17  C    0.064697
    18  C   -0.325192
    19  C   -0.295845
    20  C   -0.331475
    21  C   -0.096961
    22  C   -0.132121
    23  C   -0.349838
    24  C    0.122926
    25  C   -0.102133
    26  C   -0.382137
    27  C    0.078229
    28  C   -0.136300
    29  C   -0.379282
    30  C   -0.086001
    31  C   -0.046677
    32  C   -0.080503
    33  C   -0.149341
    34  C    0.108764
    35  C   -0.133391
    36  C    0.124743
    37  C   -0.398462
    38  C   -0.116655
    39  C   -0.102332
    40  C   -0.354509
    41  C   -0.040143
    42  C   -0.111578
    43  H    0.096138
    44  H    0.116903
    45  H    0.089708
    46  H    0.058628
    47  H    0.103158
    48  H    0.103461
    49  H    0.097304
    50  H    0.098579
    51  H    0.114029
    52  H    0.089037
    53  H    0.114874
    54  H    0.063460
    55  H    0.071161
    56  H    0.074490
    57  H    0.092397
    58  H    0.091083
    59  H    0.099615
    60  H    0.113607
    61  H    0.085238
    62  H    0.108129
    63  H    0.077204
    64  H    0.097931
    65  H    0.109188
    66  H    0.128406
    67  H    0.080995
    68  H    0.059522
    69  H    0.305271
    70  H    0.079607
    71  H    0.075121
    72  H    0.107835
    73  H    0.105202
    74  H    0.121757
    75  H    0.307272
    76  H    0.091368
    77  H    0.085743
    78  H    0.124875
    79  H    0.122409
    80  H    0.063291
    81  H    0.123048
    82  H    0.141017
    83  H    0.090821
    84  H    0.076757
    85  H    0.086462
    86  H    0.070414
    87  H    0.084020
    88  H    0.071144
    89  H    0.124210
    90  H    0.131978
    91  H    0.106552
    92  H    0.069154
    93  H    0.070149
    94  H    0.079952
    95  H    0.123046
    96  H    0.132782
    97  H    0.079429
    98  H    0.077501
 Sum of Mulliken charges =  -0.00000

 Dipole moment (field-independent basis, Debye):
    X=              0.2336    Y=             -0.9665    Z=              0.9005  Tot=              1.3415
 Quadrupole moment (field-independent basis, Debye-Ang):
   XX=           -269.8338   YY=           -243.0105   ZZ=           -264.4682
   XY=              7.3434   XZ=             38.2733   YZ=              1.1336

 Normal termination of Gaussian 16 at Mon Jul 15 03:09:26 2019.
