 Gaussian 16, Revision A.03,
 Gaussian 16:  ES64L-G16RevA.03 25-Dec-2016

 -------------------------------------
 # td=(NStates=1) CAM-B3LYP/6-31G(d,p)
 -------------------------------------

 --
 TD
 --
 Symbolic Z-matrix:
 Charge =  0 Multiplicity = 1

                         Standard orientation:
 ---------------------------------------------------------------------
 Center     Atomic      Atomic             Coordinates (Angstroms)
 Number     Number       Type             X           Y           Z
 ---------------------------------------------------------------------
      1          8           0      -14.160793   -1.835611    0.706563
      2          8           0       14.837917    0.927856    0.005243
      3          6           0      -11.767726    0.211663    1.101950
      4          6           0      -10.975451    0.206912   -0.195159
      5          6           0      -11.953631   -1.272377    1.521234
      6          6           0      -12.789312   -2.032814    0.439718
      7          6           0      -11.555851   -0.607216   -1.274215
      8          6           0       11.147309    0.941693    0.974525
      9          6           0      -11.056097    0.919934    2.365430
     10          6           0      -13.143948    0.883757    1.081599
     11          6           0       12.514361    1.548445    0.686174
     12          6           0      -12.395058   -1.579271   -1.022372
     13          6           0       13.466101    0.458006    0.288607
     14          6           0       10.668781   -0.051568   -0.061514
     15          6           0       -9.604961   -0.107702    0.006224
     16          6           0       12.996748   -0.163814   -0.993147
     17          6           0       11.521448   -0.507451   -0.949637
     18          6           0       10.146846    2.133135    1.038090
     19          6           0       11.073445    0.461194    2.399570
     20          6           0      -11.142697   -0.133514   -2.700030
     21          6           0       -8.540531    0.724465   -0.234235
     22          6           0        9.244264   -0.502691    0.148088
     23          6           0       11.109085   -1.410041   -2.200076
     24          6           0       -7.068616    0.500044   -0.213526
     25          6           0        8.845090   -1.762902   -0.025133
     26          6           0       -6.600400   -0.937340    0.048228
     27          6           0        7.402516   -2.184888    0.125493
     28          6           0       -6.164002    1.469625   -0.335150
     29          6           0        7.144503   -3.593881    0.442016
     30          6           0        6.372913   -1.265832   -0.194520
     31          6           0       -4.829565    1.347037   -0.348603
     32          6           0        4.976669   -1.534539   -0.021472
     33          6           0       -3.954955    2.509908   -0.624552
     34          6           0       -2.639683    2.456047   -0.676481
     35          6           0        4.019085   -0.605414   -0.163628
     36          6           0        2.672462   -0.799328   -0.110900
     37          6           0       -1.919864    3.900035   -0.977974
     38          6           0       -1.761370    1.465265   -0.525316
     39          6           0        1.856083    0.361189   -0.208987
     40          6           0        2.046951   -2.127837    0.122304
     41          6           0       -0.342196    1.524809   -0.449896
     42          6           0        0.434059    0.347285   -0.240700
     43          1           0      -11.154288    1.193001   -0.548410
     44          1           0      -12.767703   -1.322975    2.427530
     45          1           0      -10.983678   -1.865683    1.797766
     46          1           0      -12.611157   -3.092476    0.674910
     47          1           0       -9.868142    0.624945    2.199856
     48          1           0      -11.260163    1.976199    2.427703
     49          1           0      -11.609804    0.191745    3.334976
     50          1           0      -13.639484    0.552724    0.067339
     51          1           0      -13.722000    0.519076    2.024798
     52          1           0      -13.073200    2.035944    1.193651
     53          1           0       12.675695    2.462994   -0.081441
     54          1           0       12.861258    2.019361    1.551400
     55          1           0      -13.051225   -2.091999   -1.643017
     56          1           0       13.530592   -0.355500    1.139435
     57          1           0       -9.173497   -1.130574    0.316516
     58          1           0       13.652687   -0.996176   -1.081756
     59          1           0       13.260546    0.424330   -1.890485
     60          1           0        9.219507    1.884115    1.577133
     61          1           0        9.755319    2.563918   -0.031699
     62          1           0       10.701049    3.030670    1.664847
     63          1           0       11.905533   -0.261690    2.701194
     64          1           0       10.189203    0.062819    2.802304
     65          1           0       11.195080    1.208354    3.138262
     66          1           0      -10.026615   -0.339268   -2.782867
     67          1           0      -11.326803    1.053026   -2.926021
     68          1           0      -11.650425   -0.984967   -3.276431
     69          1           0      -14.751205   -1.989685    0.011752
     70          1           0        8.665127    0.306669    0.599703
     71          1           0       -8.718340    1.760012   -0.529237
     72          1           0       11.440880   -2.381713   -1.887147
     73          1           0        9.874247   -1.487174   -2.343327
     74          1           0       11.472690   -1.114838   -3.128816
     75          1           0       15.191524    1.280061    0.782423
     76          1           0        9.527078   -2.603398   -0.166685
     77          1           0       -5.623823   -1.022374   -0.106022
     78          1           0       -6.892493   -1.579966    1.049793
     79          1           0       -7.116968   -1.575339   -0.739274
     80          1           0       -6.739017    2.378477   -0.611159
     81          1           0        6.722823   -3.773868    1.487825
     82          1           0        6.297504   -3.865370   -0.335440
     83          1           0        8.118242   -4.270237    0.282923
     84          1           0        6.771006   -0.383381   -0.428605
     85          1           0       -4.174004    0.448941   -0.314298
     86          1           0        4.728171   -2.549553    0.302639
     87          1           0       -4.651452    3.373941   -0.759336
     88          1           0        4.684446    0.292576   -0.355740
     89          1           0       -1.345056    4.016827   -1.884707
     90          1           0       -1.271500    4.284132   -0.029988
     91          1           0       -2.684921    4.697723   -0.787493
     92          1           0       -2.271708    0.582355   -0.472060
     93          1           0        2.186022    1.430867   -0.474751
     94          1           0        2.243387   -2.535657    1.198435
     95          1           0        0.873852   -2.036797    0.141030
     96          1           0        2.275052   -2.947195   -0.671708
     97          1           0        0.076132    2.563824   -0.515977
     98          1           0       -0.069804   -0.539905   -0.038860
 ---------------------------------------------------------------------

 SCF Done:  E(RCAM-B3LYP) =  -1706.94544325     A.U. after   15 cycles

 Excitation energies and oscillator strengths:

 Excited State   1:      Singlet-A      1.9643 eV  631.18 nm  f=3.0498  <S**2>=0.000
     155 ->158        -0.13312
     156 ->157         0.70017
     156 <-157        -0.11141
 This state for optimization and/or second-order correction.
 Total Energy, E(TD-HF/TD-DFT) =  -1706.87325549
 Copying the excited state density for this state as the 1-particle RhoCI density.

 The electronic state is 1-A.
 Alpha  occ. eigenvalues --  -19.20465 -19.20455 -10.30836 -10.30779 -10.28046
 Alpha  occ. eigenvalues --  -10.27934 -10.27887 -10.27661 -10.27451 -10.27445
 Alpha  occ. eigenvalues --  -10.27416 -10.27387 -10.27218 -10.27168 -10.27136
 Alpha  occ. eigenvalues --  -10.27092 -10.26938 -10.26684 -10.26628 -10.26573
 Alpha  occ. eigenvalues --  -10.26569 -10.26508 -10.26467 -10.26456 -10.26342
 Alpha  occ. eigenvalues --  -10.26324 -10.26220 -10.26081 -10.25832 -10.25737
 Alpha  occ. eigenvalues --  -10.25656 -10.25647 -10.25512 -10.25506 -10.25465
 Alpha  occ. eigenvalues --  -10.25317 -10.25274 -10.25167 -10.24988 -10.24860
 Alpha  occ. eigenvalues --  -10.24683 -10.24188  -1.10010  -1.08438  -0.94709
 Alpha  occ. eigenvalues --   -0.94259  -0.92785  -0.92271  -0.90873  -0.89973
 Alpha  occ. eigenvalues --   -0.87178  -0.86898  -0.86197  -0.85793  -0.84977
 Alpha  occ. eigenvalues --   -0.83147  -0.81694  -0.80160  -0.79661  -0.77825
 Alpha  occ. eigenvalues --   -0.76782  -0.76430  -0.75872  -0.75762  -0.75628
 Alpha  occ. eigenvalues --   -0.74763  -0.74721  -0.73160  -0.72175  -0.71024
 Alpha  occ. eigenvalues --   -0.68901  -0.67746  -0.67055  -0.64825  -0.64441
 Alpha  occ. eigenvalues --   -0.63744  -0.62859  -0.62807  -0.60960  -0.60031
 Alpha  occ. eigenvalues --   -0.59213  -0.58601  -0.58037  -0.57841  -0.56606
 Alpha  occ. eigenvalues --   -0.56214  -0.55195  -0.54848  -0.54426  -0.54028
 Alpha  occ. eigenvalues --   -0.53659  -0.53065  -0.52094  -0.51748  -0.51621
 Alpha  occ. eigenvalues --   -0.50392  -0.49979  -0.49467  -0.49343  -0.48878
 Alpha  occ. eigenvalues --   -0.48602  -0.48492  -0.48311  -0.48230  -0.47742
 Alpha  occ. eigenvalues --   -0.47358  -0.46989  -0.46717  -0.46251  -0.45928
 Alpha  occ. eigenvalues --   -0.45657  -0.45365  -0.45135  -0.44945  -0.44346
 Alpha  occ. eigenvalues --   -0.44251  -0.44110  -0.43727  -0.43167  -0.42824
 Alpha  occ. eigenvalues --   -0.42742  -0.42478  -0.42251  -0.42118  -0.41684
 Alpha  occ. eigenvalues --   -0.41336  -0.41131  -0.40738  -0.40562  -0.40405
 Alpha  occ. eigenvalues --   -0.40241  -0.40012  -0.39804  -0.39509  -0.39259
 Alpha  occ. eigenvalues --   -0.38990  -0.38878  -0.38136  -0.37944  -0.37587
 Alpha  occ. eigenvalues --   -0.37094  -0.36271  -0.36186  -0.35821  -0.35536
 Alpha  occ. eigenvalues --   -0.34957  -0.34168  -0.33769  -0.32416  -0.31919
 Alpha  occ. eigenvalues --   -0.31438  -0.30384  -0.29550  -0.27530  -0.23885
 Alpha  occ. eigenvalues --   -0.18930
 Alpha virt. eigenvalues --   -0.06745  -0.01195   0.03029   0.05654   0.07602
 Alpha virt. eigenvalues --    0.09088   0.11504   0.11748   0.12167   0.12428
 Alpha virt. eigenvalues --    0.13035   0.13228   0.13524   0.13743   0.13853

 Mulliken charges:
               1
     1  O   -0.544548
     2  O   -0.569758
     3  C    0.022254
     4  C   -0.121527
     5  C   -0.193957
     6  C    0.151418
     7  C    0.104069
     8  C   -0.027876
     9  C   -0.277267
    10  C   -0.272504
    11  C   -0.177259
    12  C   -0.142005
    13  C    0.141526
    14  C    0.117566
    15  C   -0.073663
    16  C   -0.202503
    17  C   -0.014584
    18  C   -0.298895
    19  C   -0.309479
    20  C   -0.342439
    21  C   -0.098250
    22  C   -0.091734
    23  C   -0.352954
    24  C    0.100939
    25  C   -0.111745
    26  C   -0.364667
    27  C    0.074242
    28  C   -0.101736
    29  C   -0.376562
    30  C   -0.099169
    31  C   -0.093918
    32  C   -0.094319
    33  C   -0.139892
    34  C    0.110185
    35  C   -0.076781
    36  C    0.094805
    37  C   -0.385837
    38  C   -0.085306
    39  C   -0.113610
    40  C   -0.371745
    41  C   -0.096764
    42  C   -0.076731
    43  H    0.105022
    44  H    0.094970
    45  H    0.090195
    46  H    0.080601
    47  H    0.088422
    48  H    0.103964
    49  H    0.061820
    50  H    0.085026
    51  H    0.107587
    52  H    0.075630
    53  H    0.093230
    54  H    0.087850
    55  H    0.073147
    56  H    0.073342
    57  H    0.090928
    58  H    0.118598
    59  H    0.122446
    60  H    0.105697
    61  H    0.086229
    62  H    0.079627
    63  H    0.084925
    64  H    0.116912
    65  H    0.105664
    66  H    0.126792
    67  H    0.106909
    68  H    0.107803
    69  H    0.298348
    70  H    0.091518
    71  H    0.061802
    72  H    0.120035
    73  H    0.091936
    74  H    0.118587
    75  H    0.296872
    76  H    0.096261
    77  H    0.114715
    78  H    0.096463
    79  H    0.106340
    80  H    0.080963
    81  H    0.124440
    82  H    0.115386
    83  H    0.095772
    84  H    0.069267
    85  H    0.095919
    86  H    0.074566
    87  H    0.093092
    88  H    0.083375
    89  H    0.131880
    90  H    0.090406
    91  H    0.101488
    92  H    0.054361
    93  H    0.089123
    94  H    0.118479
    95  H    0.101824
    96  H    0.120469
    97  H    0.095155
    98  H    0.080808
 Sum of Mulliken charges =  -0.00000

 Dipole moment (field-independent basis, Debye):
    X=              0.1167    Y=             -1.0444    Z=             -0.1397  Tot=              1.0601
 Quadrupole moment (field-independent basis, Debye-Ang):
   XX=           -268.5768   YY=           -246.8207   ZZ=           -264.8293
   XY=              5.1103   XZ=             46.6662   YZ=              1.3439

 Normal termination of Gaussian 16 at Sat Jul 13 06:56:32 2019.
