 Gaussian 16, Revision A.03,
 Gaussian 16:  ES64L-G16RevA.03 25-Dec-2016

 -------------------------------------
 # td=(NStates=1) CAM-B3LYP/6-31G(d,p)
 -------------------------------------

 --
 TD
 --
 Symbolic Z-matrix:
 Charge =  0 Multiplicity = 1

                         Standard orientation:
 ---------------------------------------------------------------------
 Center     Atomic      Atomic             Coordinates (Angstroms)
 Number     Number       Type             X           Y           Z
 ---------------------------------------------------------------------
      1          8           0      -14.121739   -1.818737    0.575823
      2          8           0       14.844373    0.953237    0.274962
      3          6           0      -11.783524    0.129019    1.380007
      4          6           0      -11.089537    0.388875    0.101321
      5          6           0      -11.920381   -1.372916    1.427847
      6          6           0      -12.687005   -2.048576    0.301566
      7          6           0      -11.718379   -0.213578   -1.202874
      8          6           0       11.077783    1.247325    0.957489
      9          6           0      -11.064603    0.589220    2.494305
     10          6           0      -13.199598    0.804090    1.278877
     11          6           0       12.603376    1.665123    0.646037
     12          6           0      -12.427450   -1.404864   -1.051428
     13          6           0       13.530358    0.457369    0.338277
     14          6           0       10.663783    0.112829   -0.041068
     15          6           0       -9.611344    0.103021    0.015017
     16          6           0       13.051844   -0.269585   -0.810591
     17          6           0       11.470762   -0.621595   -0.835704
     18          6           0       10.201124    2.403850    0.693637
     19          6           0       11.058941    0.943716    2.507824
     20          6           0      -11.443507    0.417011   -2.473418
     21          6           0       -8.578400    0.973471   -0.110161
     22          6           0        9.270861   -0.295780    0.012634
     23          6           0       11.104164   -1.631089   -1.884034
     24          6           0       -7.184747    0.504839   -0.234602
     25          6           0        8.787353   -1.584874    0.023257
     26          6           0       -6.894405   -0.920509    0.007730
     27          6           0        7.500712   -2.107186    0.037742
     28          6           0       -6.270001    1.522916   -0.527113
     29          6           0        7.323211   -3.537041    0.322225
     30          6           0        6.507353   -1.284549   -0.250434
     31          6           0       -4.820048    1.352054   -0.542699
     32          6           0        5.073946   -1.691344   -0.156358
     33          6           0       -3.971875    2.384316   -0.762152
     34          6           0       -2.536440    2.380630   -0.756715
     35          6           0        4.019335   -0.771008   -0.293502
     36          6           0        2.657671   -1.094402   -0.160412
     37          6           0       -1.812073    3.677428   -0.973567
     38          6           0       -1.774718    1.247192   -0.534521
     39          6           0        1.775649   -0.025466   -0.316283
     40          6           0        2.160441   -2.523941    0.166649
     41          6           0       -0.337275    1.131297   -0.645692
     42          6           0        0.326155   -0.003853   -0.282778
     43          1           0      -11.142160    1.443465   -0.007908
     44          1           0      -12.287290   -1.674169    2.511725
     45          1           0      -10.830794   -1.833083    1.458736
     46          1           0      -12.447239   -3.104900    0.388128
     47          1           0       -9.856725    0.269600    2.391774
     48          1           0      -10.770623    1.599607    2.711582
     49          1           0      -11.315709    0.106371    3.493032
     50          1           0      -13.661679    0.422020    0.333992
     51          1           0      -13.942429    0.682684    1.964097
     52          1           0      -13.264757    1.830811    1.158638
     53          1           0       12.730837    2.168391   -0.400267
     54          1           0       12.721341    2.584974    1.365082
     55          1           0      -12.788856   -2.023855   -1.839707
     56          1           0       13.390339   -0.197223    1.204123
     57          1           0       -9.379742   -0.960953   -0.046570
     58          1           0       13.541122   -1.197604   -1.010785
     59          1           0       13.326396    0.484301   -1.670368
     60          1           0        9.204126    2.252914    1.212083
     61          1           0       10.087747    2.764901   -0.408968
     62          1           0       10.580147    3.288256    1.266306
     63          1           0       11.750077    0.090789    2.743563
     64          1           0       10.062779    0.580863    2.830295
     65          1           0       11.460010    1.817653    3.137825
     66          1           0      -10.354330   -0.180487   -2.840245
     67          1           0      -11.523394    1.512855   -2.338059
     68          1           0      -12.338028    0.012002   -3.302296
     69          1           0      -14.460224   -2.110933   -0.139272
     70          1           0        8.520008    0.454040    0.159593
     71          1           0       -8.781661    2.096508   -0.041377
     72          1           0       11.359786   -2.797259   -1.544104
     73          1           0       10.071106   -1.563456   -2.002684
     74          1           0       11.779914   -1.347472   -2.791048
     75          1           0       15.097815    1.144036    1.305222
     76          1           0        9.435040   -2.444159   -0.154039
     77          1           0       -5.968951   -1.309397   -0.431094
     78          1           0       -6.969159   -1.201568    1.248378
     79          1           0       -7.772969   -1.480658   -0.593333
     80          1           0       -6.599619    2.538128   -0.602017
     81          1           0        7.063186   -3.512957    1.568331
     82          1           0        6.530510   -4.060310   -0.307065
     83          1           0        8.303695   -3.964223    0.067912
     84          1           0        6.836461   -0.169703   -0.584930
     85          1           0       -4.310730    0.496739   -0.462828
     86          1           0        4.805995   -2.646507    0.202844
     87          1           0       -4.266093    3.404296   -0.648954
     88          1           0        4.315349    0.258205   -0.579034
     89          1           0       -1.143745    3.858363   -1.831408
     90          1           0       -1.030774    4.015034   -0.108632
     91          1           0       -2.421088    4.583620   -1.029421
     92          1           0       -2.160927    0.132316   -0.216060
     93          1           0        2.191367    0.939734   -0.727149
     94          1           0        2.871921   -2.805974    1.019808
     95          1           0        1.180225   -2.588660    0.491392
     96          1           0        2.536222   -3.066547   -0.835977
     97          1           0        0.402749    1.952650   -0.772476
     98          1           0       -0.384698   -0.820676    0.029324
 ---------------------------------------------------------------------

 SCF Done:  E(RCAM-B3LYP) =  -1706.95118787     A.U. after   14 cycles

 Excitation energies and oscillator strengths:

 Excited State   1:      Singlet-A      2.4079 eV  514.92 nm  f=3.0537  <S**2>=0.000
     155 ->158        -0.17346
     156 ->157         0.68203
 This state for optimization and/or second-order correction.
 Total Energy, E(TD-HF/TD-DFT) =  -1706.86270098
 Copying the excited state density for this state as the 1-particle RhoCI density.

 The electronic state is 1-A.
 Alpha  occ. eigenvalues --  -19.22000 -19.19332 -10.30723 -10.30094 -10.29180
 Alpha  occ. eigenvalues --  -10.28441 -10.28017 -10.27963 -10.27939 -10.27682
 Alpha  occ. eigenvalues --  -10.27616 -10.27611 -10.27588 -10.27360 -10.27306
 Alpha  occ. eigenvalues --  -10.26882 -10.26882 -10.26831 -10.26819 -10.26617
 Alpha  occ. eigenvalues --  -10.26518 -10.26477 -10.26424 -10.26326 -10.26321
 Alpha  occ. eigenvalues --  -10.26168 -10.26129 -10.25945 -10.25925 -10.25895
 Alpha  occ. eigenvalues --  -10.25801 -10.25796 -10.25750 -10.25614 -10.25563
 Alpha  occ. eigenvalues --  -10.25555 -10.25487 -10.25412 -10.25321 -10.25265
 Alpha  occ. eigenvalues --  -10.24444 -10.21254  -1.10828  -1.08509  -0.94778
 Alpha  occ. eigenvalues --   -0.93318  -0.91921  -0.91655  -0.90834  -0.89923
 Alpha  occ. eigenvalues --   -0.87452  -0.87195  -0.86764  -0.85070  -0.84637
 Alpha  occ. eigenvalues --   -0.83064  -0.81823  -0.80521  -0.79927  -0.77624
 Alpha  occ. eigenvalues --   -0.76298  -0.76270  -0.76222  -0.75867  -0.75344
 Alpha  occ. eigenvalues --   -0.75273  -0.74489  -0.74124  -0.73062  -0.70140
 Alpha  occ. eigenvalues --   -0.68736  -0.67692  -0.66014  -0.64365  -0.64303
 Alpha  occ. eigenvalues --   -0.63268  -0.62640  -0.61791  -0.60859  -0.59707
 Alpha  occ. eigenvalues --   -0.59110  -0.58990  -0.58541  -0.56863  -0.55758
 Alpha  occ. eigenvalues --   -0.55019  -0.54848  -0.54697  -0.54005  -0.53823
 Alpha  occ. eigenvalues --   -0.53465  -0.53296  -0.52543  -0.51938  -0.51030
 Alpha  occ. eigenvalues --   -0.50460  -0.50180  -0.49578  -0.49211  -0.48791
 Alpha  occ. eigenvalues --   -0.48337  -0.48057  -0.47744  -0.47671  -0.47490
 Alpha  occ. eigenvalues --   -0.47145  -0.47083  -0.46579  -0.46293  -0.46186
 Alpha  occ. eigenvalues --   -0.45756  -0.45662  -0.45376  -0.45173  -0.44894
 Alpha  occ. eigenvalues --   -0.44360  -0.44221  -0.44033  -0.43364  -0.43082
 Alpha  occ. eigenvalues --   -0.43028  -0.42967  -0.42369  -0.42036  -0.41957
 Alpha  occ. eigenvalues --   -0.41489  -0.40881  -0.40709  -0.40628  -0.40389
 Alpha  occ. eigenvalues --   -0.40179  -0.39806  -0.39712  -0.39609  -0.39393
 Alpha  occ. eigenvalues --   -0.39263  -0.39058  -0.38458  -0.38315  -0.37957
 Alpha  occ. eigenvalues --   -0.37439  -0.37064  -0.36514  -0.36191  -0.35555
 Alpha  occ. eigenvalues --   -0.35110  -0.34830  -0.33654  -0.32484  -0.31617
 Alpha  occ. eigenvalues --   -0.30621  -0.29530  -0.28463  -0.26826  -0.23695
 Alpha  occ. eigenvalues --   -0.20154
 Alpha virt. eigenvalues --   -0.05036  -0.00980   0.02509   0.04561   0.06449
 Alpha virt. eigenvalues --    0.08766   0.09847   0.10617   0.11473   0.11632
 Alpha virt. eigenvalues --    0.12130   0.12333   0.12448   0.12879   0.13416

 Mulliken charges:
               1
     1  O   -0.506681
     2  O   -0.557783
     3  C    0.069280
     4  C   -0.124666
     5  C   -0.171631
     6  C    0.105620
     7  C    0.102786
     8  C   -0.005525
     9  C   -0.315515
    10  C   -0.299413
    11  C   -0.187412
    12  C   -0.137163
    13  C    0.167733
    14  C    0.090491
    15  C   -0.094612
    16  C   -0.216706
    17  C    0.034628
    18  C   -0.295487
    19  C   -0.303330
    20  C   -0.327662
    21  C   -0.082189
    22  C   -0.146146
    23  C   -0.348453
    24  C    0.115052
    25  C   -0.098657
    26  C   -0.353773
    27  C    0.121938
    28  C   -0.128614
    29  C   -0.348538
    30  C   -0.126741
    31  C   -0.042771
    32  C   -0.128436
    33  C   -0.110780
    34  C    0.096992
    35  C   -0.096554
    36  C    0.096679
    37  C   -0.388738
    38  C   -0.142749
    39  C   -0.158153
    40  C   -0.346932
    41  C   -0.064105
    42  C   -0.073545
    43  H    0.081414
    44  H    0.088110
    45  H    0.075438
    46  H    0.092255
    47  H    0.060456
    48  H    0.108362
    49  H    0.097714
    50  H    0.108843
    51  H    0.108957
    52  H    0.083441
    53  H    0.078258
    54  H    0.077388
    55  H    0.079462
    56  H    0.070353
    57  H    0.082158
    58  H    0.111682
    59  H    0.096219
    60  H    0.096698
    61  H    0.103494
    62  H    0.089535
    63  H    0.101120
    64  H    0.109497
    65  H    0.099311
    66  H    0.112171
    67  H    0.125182
    68  H    0.086944
    69  H    0.275808
    70  H    0.080400
    71  H    0.084575
    72  H    0.089276
    73  H    0.137355
    74  H    0.108264
    75  H    0.316842
    76  H    0.063399
    77  H    0.120219
    78  H    0.105357
    79  H    0.102457
    80  H    0.085838
    81  H    0.103101
    82  H    0.120558
    83  H    0.107856
    84  H    0.077595
    85  H    0.071394
    86  H    0.083482
    87  H    0.073169
    88  H    0.085490
    89  H    0.127851
    90  H    0.098798
    91  H    0.110359
    92  H    0.073531
    93  H    0.081453
    94  H    0.114151
    95  H    0.124329
    96  H    0.120778
    97  H    0.083559
    98  H    0.076552
 Sum of Mulliken charges =  -0.00000

 Dipole moment (field-independent basis, Debye):
    X=              0.2914    Y=             -1.0034    Z=              0.1203  Tot=              1.0517
 Quadrupole moment (field-independent basis, Debye-Ang):
   XX=           -299.2851   YY=           -243.7240   ZZ=           -262.5810
   XY=             -1.6708   XZ=             41.5116   YZ=              3.7524

 Normal termination of Gaussian 16 at Sun Jul 14 00:27:50 2019.
