 Gaussian 16, Revision A.03,
 Gaussian 16:  ES64L-G16RevA.03 25-Dec-2016

 -------------------------------------
 # td=(NStates=1) CAM-B3LYP/6-31G(d,p)
 -------------------------------------

 --
 TD
 --
 Symbolic Z-matrix:
 Charge =  0 Multiplicity = 1

                         Standard orientation:
 ---------------------------------------------------------------------
 Center     Atomic      Atomic             Coordinates (Angstroms)
 Number     Number       Type             X           Y           Z
 ---------------------------------------------------------------------
      1          8           0      -14.248451   -1.946167    0.557836
      2          8           0       14.788299    0.884709    0.421937
      3          6           0      -11.724135    0.021335    1.364745
      4          6           0      -10.924597    0.196340    0.076821
      5          6           0      -12.164934   -1.460489    1.439890
      6          6           0      -12.843338   -2.074791    0.281221
      7          6           0      -11.617051   -0.326783   -1.095479
      8          6           0       11.134796    1.028273    1.192396
      9          6           0      -10.905830    0.425680    2.541828
     10          6           0      -12.915431    0.930083    1.567857
     11          6           0       12.553870    1.513974    0.882893
     12          6           0      -12.481670   -1.363233   -0.976430
     13          6           0       13.441940    0.454260    0.484187
     14          6           0       10.636547    0.063636    0.147513
     15          6           0       -9.404671   -0.016446    0.123638
     16          6           0       12.979324   -0.280497   -0.679658
     17          6           0       11.490788   -0.502256   -0.801456
     18          6           0       10.146518    2.259932    1.117335
     19          6           0       10.955324    0.189134    2.433992
     20          6           0      -11.392500    0.303484   -2.426119
     21          6           0       -8.431922    0.834881   -0.174280
     22          6           0        9.273535   -0.374695    0.048631
     23          6           0       11.167334   -1.266470   -2.039797
     24          6           0       -6.983810    0.440819   -0.161682
     25          6           0        8.838971   -1.696437   -0.144275
     26          6           0       -6.568520   -1.029529   -0.042420
     27          6           0        7.489504   -2.024179   -0.206762
     28          6           0       -6.168505    1.552370   -0.295239
     29          6           0        7.172486   -3.566343    0.031716
     30          6           0        6.344514   -1.258563   -0.309705
     31          6           0       -4.771938    1.382698   -0.390055
     32          6           0        5.021197   -1.585396   -0.202411
     33          6           0       -3.975549    2.426245   -0.657295
     34          6           0       -2.562654    2.496883   -0.814458
     35          6           0        4.043007   -0.576037   -0.324688
     36          6           0        2.666027   -0.738922   -0.346841
     37          6           0       -1.920119    3.919955   -1.160935
     38          6           0       -1.803173    1.434989   -0.647481
     39          6           0        1.737655    0.258790   -0.613988
     40          6           0        2.155924   -2.172723   -0.106625
     41          6           0       -0.353714    1.420361   -0.745763
     42          6           0        0.375412    0.192416   -0.463373
     43          1           0      -11.126412    1.414726    0.023785
     44          1           0      -12.733923   -1.381829    2.469788
     45          1           0      -11.083681   -1.897065    1.850718
     46          1           0      -12.750978   -3.215271    0.119668
     47          1           0       -9.915631   -0.030307    2.455865
     48          1           0      -10.872691    1.613315    2.692693
     49          1           0      -11.422791   -0.106645    3.326635
     50          1           0      -13.551903    0.305491    0.673604
     51          1           0      -13.446314    0.657487    2.451647
     52          1           0      -12.767910    2.000204    1.252805
     53          1           0       12.437562    2.288539    0.019097
     54          1           0       12.894987    2.099168    1.634197
     55          1           0      -12.945626   -1.777509   -1.963730
     56          1           0       13.435563   -0.329979    1.306989
     57          1           0       -9.172773   -1.141466    0.292768
     58          1           0       13.409014   -1.166732   -0.963959
     59          1           0       13.209722    0.359586   -1.515964
     60          1           0        9.141235    2.214648    1.484744
     61          1           0       10.095453    2.388337    0.039743
     62          1           0       10.558587    3.108603    1.834311
     63          1           0       11.615729   -0.633684    2.498607
     64          1           0       10.029971   -0.364876    2.601662
     65          1           0       11.169695    0.782735    3.383057
     66          1           0      -10.278945    0.247486   -2.675544
     67          1           0      -11.895110    1.373099   -2.636827
     68          1           0      -11.756456   -0.303169   -3.256953
     69          1           0      -14.580820   -1.819060   -0.544669
     70          1           0        8.673142    0.347657    0.502173
     71          1           0       -8.538350    1.873200   -0.327427
     72          1           0       11.331372   -2.426017   -1.733839
     73          1           0       10.040141   -1.257168   -2.281071
     74          1           0       11.763534   -0.940599   -2.917884
     75          1           0       14.913543    1.373159    1.136543
     76          1           0        9.554909   -2.486847   -0.254220
     77          1           0       -5.487009   -1.116627    0.145730
     78          1           0       -7.037906   -1.315971    0.930641
     79          1           0       -7.043400   -1.572254   -0.775199
     80          1           0       -6.584605    2.414155   -0.253619
     81          1           0        6.709508   -3.996666    0.962034
     82          1           0        6.442363   -3.983506   -0.800252
     83          1           0        8.039123   -4.084236   -0.233456
     84          1           0        6.600449   -0.232644   -0.386133
     85          1           0       -4.333348    0.449347   -0.328482
     86          1           0        4.511046   -2.499353   -0.104190
     87          1           0       -4.529015    3.416634   -0.672931
     88          1           0        4.282541    0.587489   -0.382218
     89          1           0       -1.292948    3.990079   -2.131690
     90          1           0       -1.273551    4.126137   -0.303673
     91          1           0       -2.606768    4.824413   -1.245462
     92          1           0       -2.297741    0.384511   -0.561070
     93          1           0        2.115725    1.364159   -0.602884
     94          1           0        2.506958   -2.580782    0.942768
     95          1           0        1.016370   -2.205483   -0.229628
     96          1           0        2.488280   -2.909245   -0.870638
     97          1           0        0.168474    2.357539   -1.067243
     98          1           0       -0.410835   -0.691728   -0.294302
 ---------------------------------------------------------------------

 SCF Done:  E(RCAM-B3LYP) =  -1706.95563830     A.U. after   15 cycles

 Excitation energies and oscillator strengths:

 Excited State   1:      Singlet-A      2.0455 eV  606.12 nm  f=3.1026  <S**2>=0.000
     155 ->158        -0.14883
     156 ->157         0.69344
 This state for optimization and/or second-order correction.
 Total Energy, E(TD-HF/TD-DFT) =  -1706.88046584
 Copying the excited state density for this state as the 1-particle RhoCI density.

 The electronic state is 1-A.
 Alpha  occ. eigenvalues --  -19.22302 -19.20366 -10.31575 -10.30050 -10.28153
 Alpha  occ. eigenvalues --  -10.28066 -10.27714 -10.27661 -10.27559 -10.27349
 Alpha  occ. eigenvalues --  -10.27222 -10.27112 -10.27111 -10.26999 -10.26971
 Alpha  occ. eigenvalues --  -10.26967 -10.26908 -10.26809 -10.26794 -10.26708
 Alpha  occ. eigenvalues --  -10.26666 -10.26627 -10.26560 -10.26325 -10.26264
 Alpha  occ. eigenvalues --  -10.26239 -10.26149 -10.25985 -10.25983 -10.25816
 Alpha  occ. eigenvalues --  -10.25791 -10.25698 -10.25500 -10.25363 -10.25256
 Alpha  occ. eigenvalues --  -10.25080 -10.24854 -10.24812 -10.24427 -10.24369
 Alpha  occ. eigenvalues --  -10.23988 -10.23957  -1.12055  -1.07421  -0.95057
 Alpha  occ. eigenvalues --   -0.94561  -0.92411  -0.91769  -0.90611  -0.89938
 Alpha  occ. eigenvalues --   -0.88068  -0.87897  -0.87358  -0.86199  -0.84958
 Alpha  occ. eigenvalues --   -0.83087  -0.82065  -0.80723  -0.79592  -0.78095
 Alpha  occ. eigenvalues --   -0.77603  -0.77270  -0.76869  -0.76251  -0.75438
 Alpha  occ. eigenvalues --   -0.75013  -0.74822  -0.74342  -0.73136  -0.70762
 Alpha  occ. eigenvalues --   -0.69518  -0.67626  -0.66710  -0.66098  -0.64552
 Alpha  occ. eigenvalues --   -0.63795  -0.62907  -0.62415  -0.60890  -0.60171
 Alpha  occ. eigenvalues --   -0.59570  -0.59181  -0.57546  -0.57065  -0.56318
 Alpha  occ. eigenvalues --   -0.55771  -0.55225  -0.55169  -0.54776  -0.54193
 Alpha  occ. eigenvalues --   -0.53405  -0.52831  -0.52418  -0.52141  -0.51753
 Alpha  occ. eigenvalues --   -0.51371  -0.50801  -0.50122  -0.49437  -0.49201
 Alpha  occ. eigenvalues --   -0.49138  -0.48893  -0.48105  -0.47866  -0.47710
 Alpha  occ. eigenvalues --   -0.47614  -0.47380  -0.47223  -0.46756  -0.46424
 Alpha  occ. eigenvalues --   -0.46107  -0.45931  -0.45642  -0.45521  -0.45058
 Alpha  occ. eigenvalues --   -0.44347  -0.44129  -0.43977  -0.43822  -0.43642
 Alpha  occ. eigenvalues --   -0.43558  -0.43383  -0.42986  -0.42709  -0.42393
 Alpha  occ. eigenvalues --   -0.41790  -0.41745  -0.41663  -0.41470  -0.41107
 Alpha  occ. eigenvalues --   -0.40426  -0.40009  -0.39618  -0.39295  -0.39155
 Alpha  occ. eigenvalues --   -0.38995  -0.38922  -0.38604  -0.38213  -0.38028
 Alpha  occ. eigenvalues --   -0.37794  -0.37751  -0.37016  -0.36614  -0.35870
 Alpha  occ. eigenvalues --   -0.35261  -0.34559  -0.32860  -0.32110  -0.32086
 Alpha  occ. eigenvalues --   -0.31434  -0.29510  -0.29251  -0.26586  -0.23463
 Alpha  occ. eigenvalues --   -0.18903
 Alpha virt. eigenvalues --   -0.06127  -0.01021   0.02443   0.04216   0.06716
 Alpha virt. eigenvalues --    0.09048   0.10326   0.10973   0.11393   0.11807
 Alpha virt. eigenvalues --    0.12603   0.12708   0.13365   0.13460   0.13662

 Mulliken charges:
               1
     1  O   -0.535920
     2  O   -0.543084
     3  C   -0.023112
     4  C   -0.125802
     5  C   -0.170637
     6  C    0.168096
     7  C    0.159492
     8  C   -0.001023
     9  C   -0.274124
    10  C   -0.270166
    11  C   -0.189632
    12  C   -0.181163
    13  C    0.178690
    14  C    0.023171
    15  C   -0.111418
    16  C   -0.216680
    17  C    0.055980
    18  C   -0.321195
    19  C   -0.312294
    20  C   -0.364417
    21  C   -0.063283
    22  C   -0.106134
    23  C   -0.361623
    24  C    0.073561
    25  C   -0.108322
    26  C   -0.365026
    27  C    0.086416
    28  C   -0.089315
    29  C   -0.376404
    30  C   -0.103572
    31  C   -0.036879
    32  C   -0.064877
    33  C   -0.144571
    34  C    0.113643
    35  C   -0.114386
    36  C    0.120270
    37  C   -0.379126
    38  C   -0.134345
    39  C   -0.143441
    40  C   -0.381837
    41  C   -0.099785
    42  C   -0.072793
    43  H    0.062701
    44  H    0.100034
    45  H    0.066100
    46  H    0.091706
    47  H    0.092044
    48  H    0.087971
    49  H    0.092685
    50  H    0.070165
    51  H    0.114567
    52  H    0.094676
    53  H    0.092609
    54  H    0.092762
    55  H    0.076847
    56  H    0.065308
    57  H    0.080346
    58  H    0.117582
    59  H    0.112202
    60  H    0.117286
    61  H    0.119129
    62  H    0.084542
    63  H    0.112253
    64  H    0.120961
    65  H    0.076594
    66  H    0.116642
    67  H    0.109475
    68  H    0.109790
    69  H    0.292585
    70  H    0.079532
    71  H    0.086476
    72  H    0.097409
    73  H    0.125023
    74  H    0.115679
    75  H    0.290238
    76  H    0.092676
    77  H    0.115921
    78  H    0.124789
    79  H    0.138758
    80  H    0.064829
    81  H    0.118639
    82  H    0.089761
    83  H    0.102841
    84  H    0.072113
    85  H    0.067742
    86  H    0.090818
    87  H    0.068381
    88  H    0.062487
    89  H    0.115369
    90  H    0.130145
    91  H    0.107878
    92  H    0.076419
    93  H    0.084883
    94  H    0.110675
    95  H    0.097016
    96  H    0.121850
    97  H    0.094208
    98  H    0.094953
 Sum of Mulliken charges =  -0.00000

 Dipole moment (field-independent basis, Debye):
    X=              0.8583    Y=              0.6647    Z=             -0.7226  Tot=              1.3041
 Quadrupole moment (field-independent basis, Debye-Ang):
   XX=           -302.3333   YY=           -245.9610   ZZ=           -261.5482
   XY=              1.2607   XZ=             41.1708   YZ=              4.1926

 Normal termination of Gaussian 16 at Sun Jul 14 05:18:25 2019.
