 Gaussian 16, Revision A.03,
 Gaussian 16:  ES64L-G16RevA.03 25-Dec-2016

 -------------------------------------
 # td=(NStates=1) CAM-B3LYP/6-31G(d,p)
 -------------------------------------

 --
 TD
 --
 Symbolic Z-matrix:
 Charge =  0 Multiplicity = 1

                         Standard orientation:
 ---------------------------------------------------------------------
 Center     Atomic      Atomic             Coordinates (Angstroms)
 Number     Number       Type             X           Y           Z
 ---------------------------------------------------------------------
      1          8           0      -14.115579   -2.076462    0.537150
      2          8           0       14.787655    0.971347   -0.060694
      3          6           0      -11.807336    0.087493    1.178015
      4          6           0      -10.995055    0.297104   -0.166367
      5          6           0      -12.061530   -1.452576    1.409204
      6          6           0      -12.719924   -2.069965    0.243959
      7          6           0      -11.538934   -0.472653   -1.327492
      8          6           0       11.055623    1.001772    0.929288
      9          6           0      -11.035198    0.528231    2.389009
     10          6           0      -13.145714    0.871259    1.130826
     11          6           0       12.569305    1.543848    0.641492
     12          6           0      -12.481238   -1.366909   -1.085778
     13          6           0       13.489372    0.448201    0.257988
     14          6           0       10.704105   -0.106780   -0.008480
     15          6           0       -9.500698    0.021276    0.072426
     16          6           0       12.970698   -0.331221   -0.955475
     17          6           0       11.499539   -0.609397   -0.869379
     18          6           0       10.146111    2.243643    0.845528
     19          6           0       11.074038    0.613967    2.564276
     20          6           0      -11.256418    0.113201   -2.640257
     21          6           0       -8.465179    0.811971   -0.176261
     22          6           0        9.203887   -0.473973    0.167513
     23          6           0       11.077373   -1.592216   -2.001505
     24          6           0       -7.020198    0.549274    0.041020
     25          6           0        8.816332   -1.718923   -0.035932
     26          6           0       -6.726242   -0.944088    0.226951
     27          6           0        7.459736   -2.132081    0.051554
     28          6           0       -6.227652    1.495581   -0.232973
     29          6           0        7.232358   -3.584880    0.176884
     30          6           0        6.407762   -1.224876   -0.232825
     31          6           0       -4.811200    1.379762   -0.241003
     32          6           0        4.977550   -1.470508    0.023145
     33          6           0       -4.030024    2.471481   -0.519225
     34          6           0       -2.637759    2.488174   -0.665124
     35          6           0        4.020804   -0.517527   -0.300847
     36          6           0        2.618579   -0.717522   -0.071243
     37          6           0       -1.953694    3.917380   -0.936153
     38          6           0       -1.767889    1.460036   -0.428689
     39          6           0        1.785531    0.348765   -0.375221
     40          6           0        2.286317   -2.199023    0.326976
     41          6           0       -0.414964    1.375587   -0.568267
     42          6           0        0.373268    0.319212   -0.223550
     43          1           0      -11.080953    1.361339   -0.506432
     44          1           0      -12.608100   -1.497522    2.284072
     45          1           0      -11.125084   -2.074251    1.726949
     46          1           0      -12.346193   -3.202938   -0.003014
     47          1           0      -10.073498   -0.262902    2.548385
     48          1           0      -10.829711    1.577060    2.279112
     49          1           0      -11.606910    0.524472    3.412712
     50          1           0      -13.725812    0.733520    0.173740
     51          1           0      -13.904102    0.712246    1.917516
     52          1           0      -12.971893    2.053505    1.150403
     53          1           0       12.509872    2.222825   -0.155812
     54          1           0       12.816747    2.018197    1.562730
     55          1           0      -12.962614   -1.653378   -2.050539
     56          1           0       13.493040   -0.194092    1.139044
     57          1           0       -9.173810   -1.001005    0.239045
     58          1           0       13.637204   -1.230462   -1.031321
     59          1           0       12.978574    0.378589   -1.938128
     60          1           0        9.312351    1.994003    1.480489
     61          1           0       10.028085    2.385006   -0.199121
     62          1           0       10.560876    3.015719    1.412429
     63          1           0       11.643986   -0.273693    2.602372
     64          1           0       10.130552    0.295158    2.752465
     65          1           0       11.622325    1.396382    3.227789
     66          1           0      -10.129739   -0.151486   -2.835305
     67          1           0      -11.563605    1.074388   -2.828809
     68          1           0      -11.667345   -0.581516   -3.375804
     69          1           0      -14.539074   -1.845965   -0.540521
     70          1           0        8.598238    0.315481    0.383889
     71          1           0       -8.676835    1.903874   -0.378347
     72          1           0       11.588092   -2.618434   -1.564992
     73          1           0       10.096540   -1.500242   -2.209832
     74          1           0       11.535379   -1.505898   -3.105947
     75          1           0       15.131537    1.598043    0.634495
     76          1           0        9.781185   -2.408496   -0.092710
     77          1           0       -5.660464   -1.231374    0.288960
     78          1           0       -7.125327   -1.239659    1.189460
     79          1           0       -7.009214   -1.661432   -0.563612
     80          1           0       -6.591605    2.500284   -0.605380
     81          1           0        6.999438   -3.721401    1.278488
     82          1           0        6.353921   -4.109394   -0.287969
     83          1           0        8.076607   -4.110462   -0.031807
     84          1           0        6.482253   -0.023172   -0.687353
     85          1           0       -4.373915    0.337908   -0.061759
     86          1           0        4.651006   -2.367974    0.506000
     87          1           0       -4.509458    3.450958   -0.628735
     88          1           0        4.399490    0.502105   -0.554599
     89          1           0       -1.519637    3.783903   -1.787966
     90          1           0       -0.988155    4.395597   -0.115981
     91          1           0       -2.526274    4.762784   -1.000579
     92          1           0       -2.235084    0.447188   -0.095596
     93          1           0        2.275732    1.177282   -0.997565
     94          1           0        2.852649   -2.475181    1.252776
     95          1           0        1.150581   -2.239702    0.471377
     96          1           0        2.390652   -2.743109   -0.584134
     97          1           0        0.055016    2.271404   -0.797553
     98          1           0       -0.032778   -0.835753    0.206861
 ---------------------------------------------------------------------

 SCF Done:  E(RCAM-B3LYP) =  -1706.93628741     A.U. after   14 cycles

 Excitation energies and oscillator strengths:

 Excited State   1:      Singlet-A      2.3408 eV  529.66 nm  f=3.0152  <S**2>=0.000
     155 ->158        -0.15673
     156 ->157         0.68986
 This state for optimization and/or second-order correction.
 Total Energy, E(TD-HF/TD-DFT) =  -1706.85026306
 Copying the excited state density for this state as the 1-particle RhoCI density.

 The electronic state is 1-A.
 Alpha  occ. eigenvalues --  -19.22201 -19.20535 -10.31479 -10.29502 -10.28222
 Alpha  occ. eigenvalues --  -10.28215 -10.27782 -10.27726 -10.27409 -10.27383
 Alpha  occ. eigenvalues --  -10.27287 -10.27048 -10.26971 -10.26916 -10.26490
 Alpha  occ. eigenvalues --  -10.26459 -10.26455 -10.26355 -10.26347 -10.26266
 Alpha  occ. eigenvalues --  -10.26229 -10.26159 -10.26091 -10.25960 -10.25895
 Alpha  occ. eigenvalues --  -10.25775 -10.25756 -10.25656 -10.25406 -10.25395
 Alpha  occ. eigenvalues --  -10.25382 -10.25349 -10.25346 -10.25257 -10.25215
 Alpha  occ. eigenvalues --  -10.25188 -10.25082 -10.24877 -10.24662 -10.24333
 Alpha  occ. eigenvalues --  -10.23550 -10.23332  -1.07588  -1.06866  -0.93584
 Alpha  occ. eigenvalues --   -0.93562  -0.92361  -0.91600  -0.90776  -0.89948
 Alpha  occ. eigenvalues --   -0.87595  -0.87230  -0.86385  -0.85079  -0.84453
 Alpha  occ. eigenvalues --   -0.82777  -0.81567  -0.80499  -0.80195  -0.78475
 Alpha  occ. eigenvalues --   -0.77401  -0.76859  -0.76445  -0.76128  -0.75660
 Alpha  occ. eigenvalues --   -0.75213  -0.75118  -0.74249  -0.73301  -0.70694
 Alpha  occ. eigenvalues --   -0.68675  -0.66685  -0.66107  -0.65101  -0.63989
 Alpha  occ. eigenvalues --   -0.62750  -0.62309  -0.61406  -0.59974  -0.59831
 Alpha  occ. eigenvalues --   -0.59418  -0.58000  -0.57758  -0.56768  -0.55468
 Alpha  occ. eigenvalues --   -0.55404  -0.54799  -0.54418  -0.54115  -0.53791
 Alpha  occ. eigenvalues --   -0.52982  -0.52557  -0.52239  -0.51907  -0.51571
 Alpha  occ. eigenvalues --   -0.51096  -0.50732  -0.50271  -0.49671  -0.49439
 Alpha  occ. eigenvalues --   -0.49230  -0.48929  -0.48677  -0.48156  -0.47953
 Alpha  occ. eigenvalues --   -0.47669  -0.47566  -0.46821  -0.46192  -0.46004
 Alpha  occ. eigenvalues --   -0.45451  -0.45328  -0.45231  -0.45024  -0.44728
 Alpha  occ. eigenvalues --   -0.44168  -0.43781  -0.43609  -0.43352  -0.43096
 Alpha  occ. eigenvalues --   -0.43055  -0.42705  -0.42430  -0.42230  -0.42070
 Alpha  occ. eigenvalues --   -0.41819  -0.41564  -0.41224  -0.40342  -0.40226
 Alpha  occ. eigenvalues --   -0.40084  -0.39847  -0.39767  -0.39425  -0.39270
 Alpha  occ. eigenvalues --   -0.38689  -0.38457  -0.38149  -0.37961  -0.37757
 Alpha  occ. eigenvalues --   -0.37632  -0.37160  -0.36952  -0.36055  -0.35896
 Alpha  occ. eigenvalues --   -0.35446  -0.34717  -0.33853  -0.31947  -0.31551
 Alpha  occ. eigenvalues --   -0.31273  -0.29513  -0.29123  -0.27635  -0.24091
 Alpha  occ. eigenvalues --   -0.19856
 Alpha virt. eigenvalues --   -0.05316  -0.00463   0.03769   0.05065   0.07191
 Alpha virt. eigenvalues --    0.09376   0.10655   0.10916   0.11768   0.12199
 Alpha virt. eigenvalues --    0.12376   0.12589   0.12766   0.12984   0.13090

 Mulliken charges:
               1
     1  O   -0.549934
     2  O   -0.577007
     3  C    0.024743
     4  C   -0.135905
     5  C   -0.171535
     6  C    0.197408
     7  C    0.125348
     8  C   -0.074229
     9  C   -0.277853
    10  C   -0.298801
    11  C   -0.191276
    12  C   -0.183562
    13  C    0.186303
    14  C    0.073507
    15  C   -0.087626
    16  C   -0.206056
    17  C    0.017872
    18  C   -0.288631
    19  C   -0.324892
    20  C   -0.358359
    21  C   -0.099199
    22  C   -0.069850
    23  C   -0.338084
    24  C    0.123064
    25  C   -0.122423
    26  C   -0.387278
    27  C    0.063586
    28  C   -0.111183
    29  C   -0.370320
    30  C   -0.123870
    31  C   -0.068681
    32  C   -0.077939
    33  C   -0.129652
    34  C    0.066269
    35  C   -0.111074
    36  C    0.082392
    37  C   -0.348660
    38  C   -0.101898
    39  C   -0.128745
    40  C   -0.364790
    41  C   -0.076066
    42  C   -0.075845
    43  H    0.088865
    44  H    0.129328
    45  H    0.078174
    46  H    0.062553
    47  H    0.077261
    48  H    0.102262
    49  H    0.086682
    50  H    0.095768
    51  H    0.115080
    52  H    0.069681
    53  H    0.095245
    54  H    0.076545
    55  H    0.070052
    56  H    0.073191
    57  H    0.079342
    58  H    0.113433
    59  H    0.103706
    60  H    0.101521
    61  H    0.109993
    62  H    0.105298
    63  H    0.107298
    64  H    0.113672
    65  H    0.095297
    66  H    0.116022
    67  H    0.132389
    68  H    0.103406
    69  H    0.296719
    70  H    0.089771
    71  H    0.059441
    72  H    0.092994
    73  H    0.137795
    74  H    0.089884
    75  H    0.304743
    76  H    0.095891
    77  H    0.100334
    78  H    0.127992
    79  H    0.129489
    80  H    0.085261
    81  H    0.114652
    82  H    0.118569
    83  H    0.126662
    84  H    0.068970
    85  H    0.089004
    86  H    0.082561
    87  H    0.084431
    88  H    0.079554
    89  H    0.141586
    90  H    0.058800
    91  H    0.113753
    92  H    0.063209
    93  H    0.092671
    94  H    0.131630
    95  H    0.091808
    96  H    0.149464
    97  H    0.086073
    98  H    0.064955
 Sum of Mulliken charges =  -0.00000

 Dipole moment (field-independent basis, Debye):
    X=              0.1905    Y=              0.0788    Z=             -0.7348  Tot=              0.7632
 Quadrupole moment (field-independent basis, Debye-Ang):
   XX=           -292.4388   YY=           -246.4369   ZZ=           -259.7813
   XY=             -8.9498   XZ=             42.4093   YZ=              0.2685

 Normal termination of Gaussian 16 at Sun Jul 14 23:48:38 2019.
