 Gaussian 16, Revision A.03,
 Gaussian 16:  ES64L-G16RevA.03 25-Dec-2016

 -------------------------------------
 # td=(NStates=1) CAM-B3LYP/6-31G(d,p)
 -------------------------------------

 --
 TD
 --
 Symbolic Z-matrix:
 Charge =  0 Multiplicity = 1

                         Standard orientation:
 ---------------------------------------------------------------------
 Center     Atomic      Atomic             Coordinates (Angstroms)
 Number     Number       Type             X           Y           Z
 ---------------------------------------------------------------------
      1          8           0      -14.174316   -2.097281    0.521210
      2          8           0       14.772895    0.852999    0.100946
      3          6           0      -11.839581    0.062380    1.193671
      4          6           0      -11.011524    0.350589   -0.052881
      5          6           0      -11.996973   -1.434498    1.450803
      6          6           0      -12.683234   -2.158058    0.308240
      7          6           0      -11.603336   -0.403795   -1.212498
      8          6           0       11.140840    0.912279    1.106159
      9          6           0      -11.064480    0.489069    2.428977
     10          6           0      -13.129513    0.812264    1.178040
     11          6           0       12.516875    1.472486    0.812558
     12          6           0      -12.311002   -1.507404   -1.016896
     13          6           0       13.456072    0.349561    0.335111
     14          6           0       10.715673   -0.089895    0.047965
     15          6           0       -9.496173   -0.111088   -0.022996
     16          6           0       13.057732   -0.138930   -1.026981
     17          6           0       11.571227   -0.611783   -0.992443
     18          6           0       10.075136    2.127644    1.212500
     19          6           0       11.086735    0.239084    2.458553
     20          6           0      -11.292085    0.149639   -2.616500
     21          6           0       -8.467772    0.720748   -0.069868
     22          6           0        9.298279   -0.458669    0.119803
     23          6           0       11.235623   -1.411324   -2.087501
     24          6           0       -7.077105    0.445428   -0.103040
     25          6           0        8.727228   -1.699169   -0.058496
     26          6           0       -6.621594   -0.954599    0.192930
     27          6           0        7.338160   -2.064658    0.019245
     28          6           0       -6.170639    1.525113   -0.208085
     29          6           0        7.032079   -3.525455    0.058147
     30          6           0        6.438761   -1.096732   -0.156170
     31          6           0       -4.813384    1.336532   -0.271603
     32          6           0        5.038902   -1.372147   -0.115111
     33          6           0       -4.082026    2.503416   -0.669246
     34          6           0       -2.660199    2.618259   -0.680098
     35          6           0        4.096191   -0.429223   -0.270780
     36          6           0        2.669700   -0.634748   -0.287157
     37          6           0       -2.025088    3.956179   -1.022273
     38          6           0       -1.780819    1.523102   -0.454821
     39          6           0        1.822520    0.444953   -0.334957
     40          6           0        2.157614   -2.158613   -0.026303
     41          6           0       -0.430255    1.493320   -0.504434
     42          6           0        0.401244    0.326177   -0.324434
     43          1           0      -11.024969    1.469535   -0.131507
     44          1           0      -12.346116   -1.609742    2.282909
     45          1           0      -10.986776   -2.087292    1.571855
     46          1           0      -12.384129   -3.053352    0.430734
     47          1           0      -10.191443   -0.011279    2.516362
     48          1           0      -10.542267    1.600422    2.312318
     49          1           0      -11.572556    0.862182    3.420886
     50          1           0      -13.728556    0.622755    0.238395
     51          1           0      -13.724075    0.678123    2.217845
     52          1           0      -12.983858    1.899294    0.928927
     53          1           0       12.340939    2.118182    0.066822
     54          1           0       12.829060    1.885287    1.754293
     55          1           0      -12.565815   -2.193373   -1.891296
     56          1           0       13.453857   -0.359660    1.000333
     57          1           0       -9.283711   -1.092660   -0.097795
     58          1           0       13.694878   -1.017985   -1.255683
     59          1           0       13.236954    0.562204   -1.667428
     60          1           0        9.091184    1.998878    1.675531
     61          1           0        9.939728    2.439225    0.283001
     62          1           0       10.686849    2.956996    1.847108
     63          1           0       11.798437   -0.563895    2.785167
     64          1           0       10.031513   -0.199691    2.493281
     65          1           0       11.238595    1.114992    3.038861
     66          1           0      -10.088446    0.490471   -2.660567
     67          1           0      -11.845643    1.061281   -2.688140
     68          1           0      -11.742660   -0.403455   -3.280146
     69          1           0      -14.716473   -2.351427   -0.295938
     70          1           0        8.764929    0.281699    0.763342
     71          1           0       -8.807503    1.723913   -0.297612
     72          1           0       11.689039   -2.386822   -1.861238
     73          1           0       10.185481   -1.574167   -2.313344
     74          1           0       11.793467   -1.038036   -2.964717
     75          1           0       15.171872    1.142108    0.948079
     76          1           0        9.595119   -2.611938   -0.101948
     77          1           0       -5.623577   -1.301355    0.235537
     78          1           0       -7.141269   -1.185233    1.099046
     79          1           0       -6.987460   -1.639750   -0.626628
     80          1           0       -6.779829    2.548842   -0.321951
     81          1           0        6.682329   -3.760489    1.144378
     82          1           0        6.449972   -3.652725   -0.824054
     83          1           0        8.141651   -4.158734   -0.006868
     84          1           0        6.533751   -0.010474   -0.376072
     85          1           0       -4.264628    0.332195    0.014021
     86          1           0        4.755907   -2.427181    0.182393
     87          1           0       -4.494984    3.433216   -1.137544
     88          1           0        4.411642    0.736399   -0.559940
     89          1           0       -1.785230    4.080829   -2.193748
     90          1           0       -1.008563    4.153278   -0.442840
     91          1           0       -2.805306    4.856578   -0.814051
     92          1           0       -2.288771    0.505049   -0.058784
     93          1           0        2.200417    1.345364   -0.779537
     94          1           0        2.567150   -2.684925    1.031505
     95          1           0        1.091219   -2.051147    0.013389
     96          1           0        2.546056   -2.870556   -0.881048
     97          1           0       -0.017022    2.416803   -0.860276
     98          1           0        0.102156   -0.649092    0.094367
 ---------------------------------------------------------------------

 SCF Done:  E(RCAM-B3LYP) =  -1706.89372015     A.U. after   15 cycles

 Excitation energies and oscillator strengths:

 Excited State   1:      Singlet-A      1.9512 eV  635.43 nm  f=3.0397  <S**2>=0.000
     155 ->158         0.14070
     156 ->157         0.69661
     156 <-157        -0.10575
 This state for optimization and/or second-order correction.
 Total Energy, E(TD-HF/TD-DFT) =  -1706.82201593
 Copying the excited state density for this state as the 1-particle RhoCI density.

 The electronic state is 1-A.
 Alpha  occ. eigenvalues --  -19.20599 -19.19967 -10.29043 -10.28632 -10.28586
 Alpha  occ. eigenvalues --  -10.28320 -10.28021 -10.27961 -10.27717 -10.27709
 Alpha  occ. eigenvalues --  -10.27403 -10.27317 -10.27251 -10.27147 -10.27090
 Alpha  occ. eigenvalues --  -10.27056 -10.26973 -10.26972 -10.26940 -10.26919
 Alpha  occ. eigenvalues --  -10.26563 -10.26559 -10.26451 -10.26216 -10.25911
 Alpha  occ. eigenvalues --  -10.25896 -10.25789 -10.25658 -10.25484 -10.25466
 Alpha  occ. eigenvalues --  -10.25419 -10.25318 -10.25302 -10.25220 -10.25173
 Alpha  occ. eigenvalues --  -10.24885 -10.24392 -10.24289 -10.24268 -10.23778
 Alpha  occ. eigenvalues --  -10.23747 -10.23467  -1.08605  -1.04849  -0.94153
 Alpha  occ. eigenvalues --   -0.93552  -0.91949  -0.91773  -0.90748  -0.89597
 Alpha  occ. eigenvalues --   -0.88087  -0.87156  -0.86704  -0.85498  -0.84505
 Alpha  occ. eigenvalues --   -0.83505  -0.82235  -0.80879  -0.80445  -0.77554
 Alpha  occ. eigenvalues --   -0.77214  -0.76673  -0.76151  -0.76133  -0.75631
 Alpha  occ. eigenvalues --   -0.74843  -0.74780  -0.74330  -0.72163  -0.70574
 Alpha  occ. eigenvalues --   -0.68979  -0.68664  -0.66849  -0.65166  -0.63508
 Alpha  occ. eigenvalues --   -0.63149  -0.62425  -0.61534  -0.60328  -0.59674
 Alpha  occ. eigenvalues --   -0.59321  -0.59118  -0.57500  -0.56672  -0.55870
 Alpha  occ. eigenvalues --   -0.55731  -0.55080  -0.54578  -0.54159  -0.53778
 Alpha  occ. eigenvalues --   -0.53641  -0.53271  -0.52097  -0.51852  -0.51475
 Alpha  occ. eigenvalues --   -0.51065  -0.50250  -0.50140  -0.49869  -0.49596
 Alpha  occ. eigenvalues --   -0.49220  -0.48803  -0.48380  -0.47555  -0.47193
 Alpha  occ. eigenvalues --   -0.47004  -0.46775  -0.46597  -0.46471  -0.46134
 Alpha  occ. eigenvalues --   -0.45712  -0.45271  -0.45076  -0.44861  -0.44738
 Alpha  occ. eigenvalues --   -0.44440  -0.44272  -0.43863  -0.43782  -0.43557
 Alpha  occ. eigenvalues --   -0.43324  -0.42689  -0.42672  -0.42342  -0.41916
 Alpha  occ. eigenvalues --   -0.41224  -0.40913  -0.40803  -0.40485  -0.40183
 Alpha  occ. eigenvalues --   -0.39966  -0.39768  -0.39552  -0.39218  -0.39179
 Alpha  occ. eigenvalues --   -0.38663  -0.38482  -0.38445  -0.38029  -0.37849
 Alpha  occ. eigenvalues --   -0.37581  -0.37531  -0.36686  -0.36527  -0.35811
 Alpha  occ. eigenvalues --   -0.35035  -0.34703  -0.33716  -0.32264  -0.31943
 Alpha  occ. eigenvalues --   -0.31553  -0.29760  -0.28889  -0.26220  -0.22784
 Alpha  occ. eigenvalues --   -0.18725
 Alpha virt. eigenvalues --   -0.06433  -0.01244   0.02424   0.05885   0.06950
 Alpha virt. eigenvalues --    0.09010   0.10701   0.10950   0.11948   0.12276
 Alpha virt. eigenvalues --    0.12681   0.13034   0.13357   0.13453   0.13638

 Mulliken charges:
               1
     1  O   -0.585023
     2  O   -0.573207
     3  C    0.037041
     4  C   -0.139883
     5  C   -0.148291
     6  C    0.183865
     7  C    0.116256
     8  C   -0.069676
     9  C   -0.301485
    10  C   -0.280961
    11  C   -0.167491
    12  C   -0.166475
    13  C    0.173941
    14  C    0.065524
    15  C   -0.087350
    16  C   -0.210031
    17  C    0.048879
    18  C   -0.314756
    19  C   -0.269788
    20  C   -0.332751
    21  C   -0.089685
    22  C   -0.117085
    23  C   -0.372437
    24  C    0.103202
    25  C   -0.129504
    26  C   -0.382228
    27  C    0.075940
    28  C   -0.101211
    29  C   -0.357471
    30  C   -0.086730
    31  C   -0.087716
    32  C   -0.090608
    33  C   -0.120353
    34  C    0.094699
    35  C   -0.118377
    36  C    0.086622
    37  C   -0.375168
    38  C   -0.085882
    39  C   -0.112888
    40  C   -0.344179
    41  C   -0.092542
    42  C   -0.100685
    43  H    0.086063
    44  H    0.105833
    45  H    0.063113
    46  H    0.089241
    47  H    0.114386
    48  H    0.045905
    49  H    0.097458
    50  H    0.105542
    51  H    0.095459
    52  H    0.085083
    53  H    0.104261
    54  H    0.075416
    55  H    0.066881
    56  H    0.084165
    57  H    0.078392
    58  H    0.102798
    59  H    0.130213
    60  H    0.116137
    61  H    0.124618
    62  H    0.077210
    63  H    0.092660
    64  H    0.097222
    65  H    0.096042
    66  H    0.102427
    67  H    0.119785
    68  H    0.113077
    69  H    0.300718
    70  H    0.081037
    71  H    0.071711
    72  H    0.118442
    73  H    0.125061
    74  H    0.110811
    75  H    0.298011
    76  H    0.064310
    77  H    0.115044
    78  H    0.131504
    79  H    0.112222
    80  H    0.086535
    81  H    0.126069
    82  H    0.143306
    83  H    0.083593
    84  H    0.090002
    85  H    0.109881
    86  H    0.085374
    87  H    0.090310
    88  H    0.060949
    89  H    0.110325
    90  H    0.115283
    91  H    0.095354
    92  H    0.053958
    93  H    0.086540
    94  H    0.095905
    95  H    0.108408
    96  H    0.117622
    97  H    0.081748
    98  H    0.086528
 Sum of Mulliken charges =  -0.00000

 Dipole moment (field-independent basis, Debye):
    X=              0.8875    Y=             -0.7316    Z=             -0.6047  Tot=              1.2994
 Quadrupole moment (field-independent basis, Debye-Ang):
   XX=           -281.2108   YY=           -244.6044   ZZ=           -261.4154
   XY=             -1.5419   XZ=             39.5551   YZ=              0.2079

 Normal termination of Gaussian 16 at Mon Jul 15 17:02:27 2019.
