 Gaussian 16, Revision A.03,
 Gaussian 16:  ES64L-G16RevA.03 25-Dec-2016

 -------------------------------------
 # td=(NStates=1) CAM-B3LYP/6-31G(d,p)
 -------------------------------------

 --
 TD
 --
 Symbolic Z-matrix:
 Charge =  0 Multiplicity = 1

                         Standard orientation:
 ---------------------------------------------------------------------
 Center     Atomic      Atomic             Coordinates (Angstroms)
 Number     Number       Type             X           Y           Z
 ---------------------------------------------------------------------
      1          8           0      -14.297834   -1.645083    0.503445
      2          8           0       14.952596    0.881011    0.311578
      3          6           0      -11.826363    0.309355    1.270914
      4          6           0      -11.050765    0.296935   -0.075245
      5          6           0      -12.094536   -1.175759    1.564765
      6          6           0      -12.826428   -1.948966    0.395084
      7          6           0      -11.594878   -0.544794   -1.246043
      8          6           0       11.132235    1.095743    1.036546
      9          6           0      -11.047318    0.819798    2.405433
     10          6           0      -13.178437    0.898149    1.131271
     11          6           0       12.615788    1.478155    0.925875
     12          6           0      -12.394988   -1.574879   -1.020446
     13          6           0       13.553268    0.387572    0.547504
     14          6           0       10.817954    0.043226    0.010504
     15          6           0       -9.622737   -0.121499    0.276248
     16          6           0       13.184366   -0.062537   -0.765023
     17          6           0       11.686042   -0.550289   -0.768675
     18          6           0       10.237452    2.353914    0.922485
     19          6           0       10.979228    0.483627    2.400953
     20          6           0      -11.170985    0.008494   -2.526892
     21          6           0       -8.512343    0.690310   -0.038684
     22          6           0        9.297283   -0.292483    0.013454
     23          6           0       11.419579   -1.460245   -1.936873
     24          6           0       -7.109019    0.403568   -0.005776
     25          6           0        8.800676   -1.577773   -0.005161
     26          6           0       -6.711984   -0.974765    0.577305
     27          6           0        7.446987   -2.023586   -0.056869
     28          6           0       -6.176359    1.320677   -0.337462
     29          6           0        7.230138   -3.559228    0.253844
     30          6           0        6.387071   -1.245566   -0.212380
     31          6           0       -4.783843    1.179029   -0.463743
     32          6           0        4.970479   -1.606140   -0.238027
     33          6           0       -4.018641    2.376178   -0.834008
     34          6           0       -2.581863    2.525833   -0.858556
     35          6           0        3.997081   -0.657186   -0.400460
     36          6           0        2.612723   -0.910081   -0.389158
     37          6           0       -1.974052    3.777666   -1.260076
     38          6           0       -1.799593    1.393573   -0.739470
     39          6           0        1.647292    0.105413   -0.425447
     40          6           0        2.049836   -2.298374   -0.105932
     41          6           0       -0.421795    1.395139   -0.725572
     42          6           0        0.186731    0.207210   -0.379612
     43          1           0      -10.995040    1.527332   -0.554956
     44          1           0      -12.505204   -1.463419    2.536328
     45          1           0      -11.071471   -1.684622    1.573849
     46          1           0      -12.509066   -3.043699    0.192206
     47          1           0      -10.193280    0.135583    2.598412
     48          1           0      -10.733363    1.779950    2.364395
     49          1           0      -11.715242    0.559781    3.406190
     50          1           0      -13.807630    0.573660    0.362117
     51          1           0      -13.698392    0.725088    2.179055
     52          1           0      -12.931865    1.993080    1.192210
     53          1           0       12.607786    2.217218    0.126484
     54          1           0       12.910996    2.092662    1.800609
     55          1           0      -12.779721   -1.998980   -1.771177
     56          1           0       13.749890   -0.318903    1.381287
     57          1           0       -9.464948   -0.997858    0.645639
     58          1           0       13.764762   -1.045533   -1.028942
     59          1           0       13.438304    0.687339   -1.417128
     60          1           0        9.256761    2.164092    1.291900
     61          1           0       10.280848    2.511088   -0.155364
     62          1           0       10.574377    3.308935    1.337068
     63          1           0       11.599217   -0.292490    2.459596
     64          1           0       10.019004    0.045030    2.431094
     65          1           0       11.103757    1.107843    3.139452
     66          1           0      -10.100373    0.240142   -2.508051
     67          1           0      -11.700638    0.888835   -2.721262
     68          1           0      -11.415636   -0.521910   -3.431667
     69          1           0      -14.862957   -2.271712    0.066021
     70          1           0        8.724379    0.608121    0.291717
     71          1           0       -8.743239    1.751459   -0.304725
     72          1           0       11.661835   -2.598747   -1.733155
     73          1           0       10.354225   -1.202800   -2.238979
     74          1           0       11.970028   -1.326550   -2.923715
     75          1           0       15.181082    1.449861    1.110612
     76          1           0        9.373378   -2.443706    0.036115
     77          1           0       -5.631504   -1.146646    0.851774
     78          1           0       -7.328923   -1.126786    1.674168
     79          1           0       -7.120049   -1.719352   -0.216235
     80          1           0       -6.535066    2.261232   -0.631172
     81          1           0        6.966146   -3.595892    1.362343
     82          1           0        6.369601   -3.885585   -0.390324
     83          1           0        8.192907   -4.182956    0.247517
     84          1           0        6.668853   -0.071516   -0.402296
     85          1           0       -4.357020    0.288222    0.026933
     86          1           0        4.753530   -2.543519   -0.204351
     87          1           0       -4.669625    3.366032   -0.833122
     88          1           0        4.198424    0.343929   -0.557621
     89          1           0       -1.661183    3.536580   -2.130870
     90          1           0       -1.257787    4.234439   -0.509263
     91          1           0       -2.817736    4.580131   -1.337142
     92          1           0       -2.230937    0.213564   -0.928254
     93          1           0        2.060201    1.134181   -0.411763
     94          1           0        2.330661   -2.920498    0.757225
     95          1           0        0.990919   -2.330121   -0.383336
     96          1           0        2.503825   -3.092299   -0.798794
     97          1           0        0.250454    2.352140   -0.801536
     98          1           0       -0.388046   -0.531358   -0.136878
 ---------------------------------------------------------------------

 SCF Done:  E(RCAM-B3LYP) =  -1706.93390454     A.U. after   15 cycles

 Excitation energies and oscillator strengths:

 Excited State   1:      Singlet-A      2.1447 eV  578.09 nm  f=2.9208  <S**2>=0.000
     155 ->158         0.14660
     156 ->157         0.69265
 This state for optimization and/or second-order correction.
 Total Energy, E(TD-HF/TD-DFT) =  -1706.85508691
 Copying the excited state density for this state as the 1-particle RhoCI density.

 The electronic state is 1-A.
 Alpha  occ. eigenvalues --  -19.20827 -19.20014 -10.32213 -10.29515 -10.28451
 Alpha  occ. eigenvalues --  -10.28203 -10.28184 -10.27483 -10.27467 -10.27437
 Alpha  occ. eigenvalues --  -10.27253 -10.27164 -10.27088 -10.26951 -10.26819
 Alpha  occ. eigenvalues --  -10.26793 -10.26745 -10.26360 -10.26327 -10.26301
 Alpha  occ. eigenvalues --  -10.26227 -10.26192 -10.26105 -10.25920 -10.25864
 Alpha  occ. eigenvalues --  -10.25780 -10.25757 -10.25708 -10.25685 -10.25680
 Alpha  occ. eigenvalues --  -10.25622 -10.25515 -10.25501 -10.25141 -10.24717
 Alpha  occ. eigenvalues --  -10.24527 -10.24421 -10.24398 -10.23874 -10.23244
 Alpha  occ. eigenvalues --  -10.22805 -10.20949  -1.07029  -1.05970  -0.94384
 Alpha  occ. eigenvalues --   -0.93962  -0.92726  -0.91522  -0.90680  -0.89836
 Alpha  occ. eigenvalues --   -0.88184  -0.87473  -0.87187  -0.85187  -0.84840
 Alpha  occ. eigenvalues --   -0.82876  -0.82396  -0.80358  -0.79568  -0.78132
 Alpha  occ. eigenvalues --   -0.77953  -0.76105  -0.76088  -0.75933  -0.75870
 Alpha  occ. eigenvalues --   -0.75613  -0.75331  -0.74753  -0.73053  -0.70671
 Alpha  occ. eigenvalues --   -0.69192  -0.67721  -0.66773  -0.65437  -0.64516
 Alpha  occ. eigenvalues --   -0.63984  -0.63404  -0.62954  -0.61739  -0.59729
 Alpha  occ. eigenvalues --   -0.59126  -0.58202  -0.58030  -0.57231  -0.56055
 Alpha  occ. eigenvalues --   -0.55692  -0.54720  -0.54610  -0.54335  -0.53620
 Alpha  occ. eigenvalues --   -0.52997  -0.52679  -0.52500  -0.51870  -0.51646
 Alpha  occ. eigenvalues --   -0.51067  -0.50498  -0.50303  -0.50021  -0.49652
 Alpha  occ. eigenvalues --   -0.49135  -0.48966  -0.48890  -0.48513  -0.48043
 Alpha  occ. eigenvalues --   -0.47794  -0.47092  -0.46835  -0.46588  -0.46419
 Alpha  occ. eigenvalues --   -0.46073  -0.45700  -0.45272  -0.44956  -0.44564
 Alpha  occ. eigenvalues --   -0.44148  -0.43883  -0.43666  -0.43320  -0.43191
 Alpha  occ. eigenvalues --   -0.43122  -0.42902  -0.42696  -0.42502  -0.42142
 Alpha  occ. eigenvalues --   -0.41972  -0.41609  -0.41214  -0.41086  -0.40638
 Alpha  occ. eigenvalues --   -0.40546  -0.40321  -0.39749  -0.39630  -0.39088
 Alpha  occ. eigenvalues --   -0.38879  -0.38524  -0.38069  -0.37818  -0.37639
 Alpha  occ. eigenvalues --   -0.37558  -0.37369  -0.36384  -0.36124  -0.35864
 Alpha  occ. eigenvalues --   -0.34756  -0.34162  -0.33418  -0.31893  -0.31781
 Alpha  occ. eigenvalues --   -0.31431  -0.29672  -0.29178  -0.27119  -0.23624
 Alpha  occ. eigenvalues --   -0.19656
 Alpha virt. eigenvalues --   -0.06024  -0.01283   0.02706   0.05604   0.07495
 Alpha virt. eigenvalues --    0.08875   0.10245   0.11021   0.11970   0.12610
 Alpha virt. eigenvalues --    0.12729   0.12988   0.13443   0.13833   0.13852

 Mulliken charges:
               1
     1  O   -0.554633
     2  O   -0.586702
     3  C    0.027855
     4  C   -0.133176
     5  C   -0.179623
     6  C    0.103567
     7  C    0.146705
     8  C   -0.033870
     9  C   -0.276730
    10  C   -0.263162
    11  C   -0.205668
    12  C   -0.105954
    13  C    0.166022
    14  C    0.079136
    15  C   -0.064470
    16  C   -0.194811
    17  C    0.019694
    18  C   -0.325423
    19  C   -0.272836
    20  C   -0.373647
    21  C   -0.118055
    22  C   -0.139091
    23  C   -0.365947
    24  C    0.121761
    25  C   -0.061423
    26  C   -0.358011
    27  C    0.078620
    28  C   -0.120535
    29  C   -0.373913
    30  C   -0.120129
    31  C   -0.067659
    32  C   -0.063333
    33  C   -0.139784
    34  C    0.066412
    35  C   -0.088814
    36  C    0.125887
    37  C   -0.360900
    38  C   -0.119576
    39  C   -0.156038
    40  C   -0.386461
    41  C   -0.065944
    42  C   -0.057792
    43  H    0.045065
    44  H    0.110949
    45  H    0.074989
    46  H    0.089459
    47  H    0.102178
    48  H    0.110414
    49  H    0.070029
    50  H    0.137797
    51  H    0.076362
    52  H    0.069726
    53  H    0.094873
    54  H    0.074304
    55  H    0.059415
    56  H    0.092414
    57  H    0.082048
    58  H    0.091064
    59  H    0.134731
    60  H    0.111766
    61  H    0.111274
    62  H    0.106144
    63  H    0.102539
    64  H    0.097594
    65  H    0.100795
    66  H    0.122613
    67  H    0.129147
    68  H    0.102329
    69  H    0.301828
    70  H    0.091155
    71  H    0.073863
    72  H    0.100300
    73  H    0.118406
    74  H    0.110028
    75  H    0.293748
    76  H    0.078197
    77  H    0.109818
    78  H    0.086908
    79  H    0.117705
    80  H    0.072299
    81  H    0.124112
    82  H    0.120236
    83  H    0.105108
    84  H    0.064145
    85  H    0.093250
    86  H    0.063031
    87  H    0.081477
    88  H    0.077103
    89  H    0.154186
    90  H    0.121853
    91  H    0.096163
    92  H    0.083626
    93  H    0.067161
    94  H    0.125929
    95  H    0.110660
    96  H    0.091181
    97  H    0.094253
    98  H    0.070702
 Sum of Mulliken charges =  -0.00000

 Dipole moment (field-independent basis, Debye):
    X=             -1.4511    Y=             -0.5942    Z=              0.4202  Tot=              1.6234
 Quadrupole moment (field-independent basis, Debye-Ang):
   XX=           -300.4294   YY=           -238.2914   ZZ=           -260.6252
   XY=             23.1859   XZ=             33.3317   YZ=              0.6856

 Normal termination of Gaussian 16 at Sat Jul 13 03:12:00 2019.
