 Gaussian 16, Revision A.03,
 Gaussian 16:  ES64L-G16RevA.03 25-Dec-2016

 -------------------------------------
 # td=(NStates=1) CAM-B3LYP/6-31G(d,p)
 -------------------------------------

 --
 TD
 --
 Symbolic Z-matrix:
 Charge =  0 Multiplicity = 1

                         Standard orientation:
 ---------------------------------------------------------------------
 Center     Atomic      Atomic             Coordinates (Angstroms)
 Number     Number       Type             X           Y           Z
 ---------------------------------------------------------------------
      1          8           0      -14.188143   -1.932580    0.470471
      2          8           0       14.786125    0.989082    0.015873
      3          6           0      -11.787519    0.205645    1.129167
      4          6           0      -11.007415    0.315660   -0.071269
      5          6           0      -12.085838   -1.282464    1.421989
      6          6           0      -12.766450   -2.109544    0.306855
      7          6           0      -11.579367   -0.519133   -1.266522
      8          6           0       11.170681    0.956130    1.015016
      9          6           0      -11.082593    0.765067    2.491285
     10          6           0      -13.162813    0.865550    1.030647
     11          6           0       12.482490    1.552159    0.766985
     12          6           0      -12.366653   -1.502678   -1.071476
     13          6           0       13.524348    0.510538    0.263561
     14          6           0       10.739211    0.027977   -0.061040
     15          6           0       -9.451263   -0.054651    0.079155
     16          6           0       13.086678   -0.094426   -1.009153
     17          6           0       11.569513   -0.585728   -0.904748
     18          6           0       10.122759    2.196002    0.983070
     19          6           0       11.052309    0.346691    2.348933
     20          6           0      -11.270197    0.070882   -2.625007
     21          6           0       -8.458356    0.803405   -0.103476
     22          6           0        9.312240   -0.369706    0.043468
     23          6           0       11.173571   -1.507423   -2.076886
     24          6           0       -7.047851    0.397191   -0.060879
     25          6           0        8.867854   -1.674516    0.096793
     26          6           0       -6.755102   -1.051622    0.148518
     27          6           0        7.421404   -2.159535    0.114781
     28          6           0       -6.139807    1.453954   -0.296943
     29          6           0        7.159123   -3.525584    0.337834
     30          6           0        6.375548   -1.211170   -0.183776
     31          6           0       -4.743463    1.336091   -0.301411
     32          6           0        5.006111   -1.569687   -0.028390
     33          6           0       -3.937149    2.509118   -0.553719
     34          6           0       -2.586610    2.566167   -0.569733
     35          6           0        4.015432   -0.639200   -0.372705
     36          6           0        2.602839   -0.873388   -0.262569
     37          6           0       -1.933204    3.835771   -0.973821
     38          6           0       -1.749263    1.453223   -0.358443
     39          6           0        1.764794    0.229977   -0.409203
     40          6           0        2.174505   -2.173996    0.253684
     41          6           0       -0.378474    1.429501   -0.431328
     42          6           0        0.323486    0.300037   -0.225018
     43          1           0      -11.059510    1.379270   -0.499264
     44          1           0      -12.873110   -1.255196    2.417498
     45          1           0      -11.116131   -1.976761    1.839676
     46          1           0      -12.365436   -3.152510    0.468381
     47          1           0      -10.171989    0.382258    2.786770
     48          1           0      -10.758286    1.651377    1.913598
     49          1           0      -11.889592    0.846179    3.327486
     50          1           0      -13.688711    0.606874    0.115850
     51          1           0      -13.742907    0.515569    1.978234
     52          1           0      -13.036741    2.066172    1.023152
     53          1           0       12.501170    2.373619   -0.096716
     54          1           0       12.856417    2.138204    1.620621
     55          1           0      -12.751930   -2.077288   -1.946284
     56          1           0       13.435802   -0.449189    0.915282
     57          1           0       -9.373829   -1.263384    0.224530
     58          1           0       13.833298   -1.071260   -1.150901
     59          1           0       13.172930    0.539545   -1.942933
     60          1           0        9.368991    2.070887    1.573804
     61          1           0        9.790007    2.564690   -0.025972
     62          1           0       10.649071    3.180711    1.517116
     63          1           0       11.652839   -0.556560    2.390677
     64          1           0       10.215946   -0.234403    2.820298
     65          1           0       11.323925    0.980930    3.205850
     66          1           0      -10.266143    0.296271   -2.891671
     67          1           0      -11.811077    1.027145   -3.005430
     68          1           0      -11.908666   -0.459713   -3.207461
     69          1           0      -14.638302   -1.760904   -0.636764
     70          1           0        8.542088    0.298712    0.071645
     71          1           0       -8.683057    1.721830   -0.425543
     72          1           0       11.510287   -2.471707   -1.909650
     73          1           0       10.122682   -1.564900   -2.106535
     74          1           0       11.727847   -1.369151   -3.032342
     75          1           0       15.064764    1.535880    0.703071
     76          1           0        9.576095   -2.514520    0.215809
     77          1           0       -5.659152   -1.369235    0.106605
     78          1           0       -6.964306   -1.369625    1.032687
     79          1           0       -7.122635   -1.689819   -0.641893
     80          1           0       -6.706694    2.324489   -0.502857
     81          1           0        6.355398   -3.712321    1.282096
     82          1           0        6.536396   -3.916599   -0.614842
     83          1           0        7.942210   -4.114047    0.597375
     84          1           0        6.553928   -0.165188   -0.556362
     85          1           0       -4.375562    0.389488   -0.096437
     86          1           0        4.562473   -2.495448    0.507596
     87          1           0       -4.536719    3.355827   -0.733060
     88          1           0        4.356177    0.394821   -0.866190
     89          1           0       -1.203365    3.884874   -1.846689
     90          1           0       -1.357202    4.309716   -0.118382
     91          1           0       -2.525899    4.684439   -1.213863
     92          1           0       -2.087349    0.553045   -0.039918
     93          1           0        2.312436    1.191032   -0.728482
     94          1           0        2.175873   -2.242780    1.410149
     95          1           0        0.948802   -2.247438   -0.094240
     96          1           0        2.850504   -3.069092   -0.280851
     97          1           0        0.203789    2.323208   -0.540828
     98          1           0       -0.184737   -0.803769    0.110392
 ---------------------------------------------------------------------

 SCF Done:  E(RCAM-B3LYP) =  -1706.89258092     A.U. after   15 cycles

 Excitation energies and oscillator strengths:

 Excited State   1:      Singlet-A      1.9958 eV  621.23 nm  f=2.8899  <S**2>=0.000
     155 ->158        -0.14814
     156 ->157         0.69548
     156 <-157        -0.10248
 This state for optimization and/or second-order correction.
 Total Energy, E(TD-HF/TD-DFT) =  -1706.81923744
 Copying the excited state density for this state as the 1-particle RhoCI density.

 The electronic state is 1-A.
 Alpha  occ. eigenvalues --  -19.22849 -19.21260 -10.31405 -10.30103 -10.28900
 Alpha  occ. eigenvalues --  -10.27957 -10.27789 -10.27540 -10.27478 -10.27351
 Alpha  occ. eigenvalues --  -10.27210 -10.27151 -10.27124 -10.27089 -10.27080
 Alpha  occ. eigenvalues --  -10.27054 -10.27053 -10.26704 -10.26680 -10.26631
 Alpha  occ. eigenvalues --  -10.26565 -10.26518 -10.26491 -10.26488 -10.26069
 Alpha  occ. eigenvalues --  -10.26063 -10.26043 -10.25741 -10.25717 -10.25693
 Alpha  occ. eigenvalues --  -10.25608 -10.25524 -10.25345 -10.25281 -10.25277
 Alpha  occ. eigenvalues --  -10.25174 -10.24924 -10.24839 -10.24826 -10.24421
 Alpha  occ. eigenvalues --  -10.24261 -10.23656  -1.11904  -1.05999  -0.94216
 Alpha  occ. eigenvalues --   -0.93809  -0.92588  -0.91395  -0.90781  -0.89627
 Alpha  occ. eigenvalues --   -0.87595  -0.87394  -0.86405  -0.85010  -0.84574
 Alpha  occ. eigenvalues --   -0.82655  -0.81813  -0.80337  -0.80049  -0.78156
 Alpha  occ. eigenvalues --   -0.77793  -0.76561  -0.76457  -0.76220  -0.75337
 Alpha  occ. eigenvalues --   -0.75024  -0.74681  -0.74431  -0.72658  -0.70542
 Alpha  occ. eigenvalues --   -0.68544  -0.66569  -0.66033  -0.64985  -0.64510
 Alpha  occ. eigenvalues --   -0.63212  -0.62538  -0.61786  -0.61555  -0.60621
 Alpha  occ. eigenvalues --   -0.59330  -0.58832  -0.57282  -0.56599  -0.56083
 Alpha  occ. eigenvalues --   -0.55527  -0.54939  -0.54551  -0.54349  -0.53656
 Alpha  occ. eigenvalues --   -0.53194  -0.52558  -0.52394  -0.51790  -0.51329
 Alpha  occ. eigenvalues --   -0.50930  -0.50619  -0.50376  -0.49781  -0.49143
 Alpha  occ. eigenvalues --   -0.48994  -0.48552  -0.48439  -0.48077  -0.47894
 Alpha  occ. eigenvalues --   -0.47482  -0.47233  -0.47046  -0.46906  -0.46575
 Alpha  occ. eigenvalues --   -0.45600  -0.45368  -0.44899  -0.44855  -0.44578
 Alpha  occ. eigenvalues --   -0.44491  -0.44142  -0.43825  -0.43486  -0.43322
 Alpha  occ. eigenvalues --   -0.42877  -0.42470  -0.41958  -0.41842  -0.41809
 Alpha  occ. eigenvalues --   -0.41473  -0.40973  -0.40571  -0.40532  -0.40434
 Alpha  occ. eigenvalues --   -0.40191  -0.39970  -0.39734  -0.39649  -0.39468
 Alpha  occ. eigenvalues --   -0.39243  -0.39086  -0.38135  -0.37972  -0.37678
 Alpha  occ. eigenvalues --   -0.37266  -0.36771  -0.36328  -0.35647  -0.35512
 Alpha  occ. eigenvalues --   -0.35308  -0.33956  -0.33468  -0.31858  -0.31597
 Alpha  occ. eigenvalues --   -0.31295  -0.30627  -0.29012  -0.27570  -0.23078
 Alpha  occ. eigenvalues --   -0.18926
 Alpha virt. eigenvalues --   -0.06341  -0.01323   0.03387   0.04907   0.06724
 Alpha virt. eigenvalues --    0.08489   0.09868   0.10321   0.11266   0.11586
 Alpha virt. eigenvalues --    0.12487   0.12696   0.12938   0.13160   0.13847

 Mulliken charges:
               1
     1  O   -0.545620
     2  O   -0.535638
     3  C    0.019111
     4  C   -0.148742
     5  C   -0.161737
     6  C    0.191276
     7  C    0.141244
     8  C    0.022895
     9  C   -0.293115
    10  C   -0.261840
    11  C   -0.200916
    12  C   -0.198896
    13  C    0.182256
    14  C    0.065978
    15  C   -0.090213
    16  C   -0.199429
    17  C    0.021639
    18  C   -0.306838
    19  C   -0.320154
    20  C   -0.363111
    21  C   -0.084743
    22  C   -0.105973
    23  C   -0.362246
    24  C    0.087643
    25  C   -0.113950
    26  C   -0.377179
    27  C    0.099111
    28  C   -0.110849
    29  C   -0.367564
    30  C   -0.131294
    31  C   -0.059014
    32  C   -0.095463
    33  C   -0.140292
    34  C    0.130507
    35  C   -0.112036
    36  C    0.127328
    37  C   -0.399852
    38  C   -0.108349
    39  C   -0.125605
    40  C   -0.363552
    41  C   -0.054481
    42  C   -0.095097
    43  H    0.081103
    44  H    0.075209
    45  H    0.051838
    46  H    0.089303
    47  H    0.114642
    48  H    0.094734
    49  H    0.096616
    50  H    0.104143
    51  H    0.100130
    52  H    0.064967
    53  H    0.088674
    54  H    0.081499
    55  H    0.078326
    56  H    0.062149
    57  H    0.085447
    58  H    0.078322
    59  H    0.109987
    60  H    0.120404
    61  H    0.105307
    62  H    0.058744
    63  H    0.103452
    64  H    0.114269
    65  H    0.099461
    66  H    0.133823
    67  H    0.096948
    68  H    0.113587
    69  H    0.292471
    70  H    0.084429
    71  H    0.081429
    72  H    0.118900
    73  H    0.123578
    74  H    0.105562
    75  H    0.298265
    76  H    0.076278
    77  H    0.092043
    78  H    0.140717
    79  H    0.130160
    80  H    0.076286
    81  H    0.090254
    82  H    0.118833
    83  H    0.119612
    84  H    0.093610
    85  H    0.086317
    86  H    0.092449
    87  H    0.084862
    88  H    0.071123
    89  H    0.118113
    90  H    0.113420
    91  H    0.113433
    92  H    0.071658
    93  H    0.078436
    94  H    0.130979
    95  H    0.078136
    96  H    0.100403
    97  H    0.091426
    98  H    0.068536
 Sum of Mulliken charges =  -0.00000

 Dipole moment (field-independent basis, Debye):
    X=             -0.3797    Y=              0.3308    Z=             -0.5563  Tot=              0.7504
 Quadrupole moment (field-independent basis, Debye-Ang):
   XX=           -291.2083   YY=           -245.7802   ZZ=           -260.7930
   XY=             -0.7011   XZ=             47.7540   YZ=             -1.5162

 Normal termination of Gaussian 16 at Sat Jul 13 13:36:42 2019.
