 Gaussian 16, Revision A.03,
 Gaussian 16:  ES64L-G16RevA.03 25-Dec-2016

 -------------------------------------
 # td=(NStates=1) CAM-B3LYP/6-31G(d,p)
 -------------------------------------

 --
 TD
 --
 Symbolic Z-matrix:
 Charge =  0 Multiplicity = 1

                         Standard orientation:
 ---------------------------------------------------------------------
 Center     Atomic      Atomic             Coordinates (Angstroms)
 Number     Number       Type             X           Y           Z
 ---------------------------------------------------------------------
      1          8           0      -14.170660   -2.147869    0.317959
      2          8           0       14.853678    0.786009   -0.049263
      3          6           0      -11.835894    0.080422    1.237873
      4          6           0      -10.972826    0.270248   -0.072223
      5          6           0      -12.227197   -1.465634    1.293678
      6          6           0      -12.789262   -2.059483    0.116226
      7          6           0      -11.618167   -0.399025   -1.350827
      8          6           0       11.197099    1.047576    0.891330
      9          6           0      -11.133779    0.568031    2.530131
     10          6           0      -13.190910    0.779252    1.095203
     11          6           0       12.583590    1.535905    0.640170
     12          6           0      -12.390275   -1.505045   -1.217344
     13          6           0       13.529172    0.435229    0.212226
     14          6           0       10.741890   -0.028146   -0.103170
     15          6           0       -9.539494   -0.070868   -0.025553
     16          6           0       12.987380   -0.155630   -1.121441
     17          6           0       11.603241   -0.510165   -1.047779
     18          6           0       10.342912    2.298669    0.882291
     19          6           0       11.169050    0.514588    2.375336
     20          6           0      -11.226051    0.249330   -2.606970
     21          6           0       -8.572701    0.836890   -0.050585
     22          6           0        9.289300   -0.432041    0.142531
     23          6           0       11.144531   -1.596827   -1.999798
     24          6           0       -7.114353    0.594611    0.051685
     25          6           0        8.818320   -1.751379   -0.045680
     26          6           0       -6.730916   -0.928783    0.226823
     27          6           0        7.407532   -2.185917    0.144124
     28          6           0       -6.198907    1.600646   -0.252486
     29          6           0        7.224113   -3.655933    0.467840
     30          6           0        6.377161   -1.303231   -0.031207
     31          6           0       -4.862263    1.383342   -0.287342
     32          6           0        5.041285   -1.455430    0.068417
     33          6           0       -4.038532    2.460702   -0.572825
     34          6           0       -2.616448    2.552495   -0.590283
     35          6           0        4.086961   -0.475941   -0.109145
     36          6           0        2.747821   -0.885005   -0.063045
     37          6           0       -2.034044    3.885070   -0.903526
     38          6           0       -1.822565    1.477318   -0.226868
     39          6           0        1.842167    0.307612   -0.241024
     40          6           0        2.134002   -2.223683    0.155192
     41          6           0       -0.415889    1.498728   -0.470234
     42          6           0        0.380285    0.367741   -0.266763
     43          1           0      -11.116691    1.554645   -0.147735
     44          1           0      -12.793851   -1.504557    2.204041
     45          1           0      -11.286147   -1.938855    1.579792
     46          1           0      -12.537761   -3.075221    0.197025
     47          1           0      -10.180224    0.101351    2.663900
     48          1           0      -10.868338    1.556356    2.364975
     49          1           0      -11.759246    0.321873    3.414976
     50          1           0      -13.594301    0.568670   -0.001646
     51          1           0      -14.010261    0.515868    1.894603
     52          1           0      -13.184027    1.882095    1.329030
     53          1           0       12.782227    2.347128   -0.040567
     54          1           0       13.023554    2.202845    1.406536
     55          1           0      -12.711940   -1.783192   -2.232028
     56          1           0       13.318512   -0.620254    0.889575
     57          1           0       -9.292128   -1.067893    0.048469
     58          1           0       13.526235   -0.950000   -1.477679
     59          1           0       13.004517    0.487010   -1.975308
     60          1           0        9.289113    2.021815    1.170056
     61          1           0       10.267043    2.588903   -0.013482
     62          1           0       10.837287    2.855660    1.687643
     63          1           0       11.912530   -0.183043    2.497408
     64          1           0       10.164083    0.223843    2.462637
     65          1           0       11.433539    1.495677    3.011755
     66          1           0      -10.033250    0.337051   -2.516835
     67          1           0      -11.610524    1.252050   -2.536548
     68          1           0      -11.725532   -0.354810   -3.523928
     69          1           0      -14.579142   -2.169678   -0.617742
     70          1           0        8.563299    0.245010    0.722377
     71          1           0       -8.861500    1.921532   -0.451717
     72          1           0       11.622113   -2.597908   -1.898358
     73          1           0       10.003694   -1.738875   -2.102729
     74          1           0       11.599454   -1.337048   -2.957822
     75          1           0       15.037493    1.287878    0.684108
     76          1           0        9.452562   -2.517771   -0.223867
     77          1           0       -5.534100   -1.057540    0.261969
     78          1           0       -7.411932   -1.407022    1.073249
     79          1           0       -6.995116   -1.439322   -0.771661
     80          1           0       -6.664996    2.465916   -0.411181
     81          1           0        7.478124   -3.717031    1.577150
     82          1           0        6.187090   -3.979535    0.121453
     83          1           0        8.086900   -4.109644   -0.167135
     84          1           0        6.856251   -0.392436   -0.543968
     85          1           0       -4.443998    0.337654   -0.374110
     86          1           0        4.743718   -2.316928    0.486898
     87          1           0       -4.590170    3.407097   -0.745676
     88          1           0        4.361888    0.706064   -0.476598
     89          1           0       -1.474946    3.860876   -1.995140
     90          1           0       -1.248683    4.122378   -0.058528
     91          1           0       -2.722599    4.585656   -0.923518
     92          1           0       -2.168666    0.411690    0.148969
     93          1           0        2.350468    1.076540   -0.477451
     94          1           0        2.428588   -2.406431    1.175251
     95          1           0        1.168330   -2.073293    0.266094
     96          1           0        2.566955   -2.918130   -0.640394
     97          1           0        0.105454    2.283640   -0.626032
     98          1           0       -0.139109   -0.410888    0.190124
 ---------------------------------------------------------------------

 SCF Done:  E(RCAM-B3LYP) =  -1706.90770410     A.U. after   15 cycles

 Excitation energies and oscillator strengths:

 Excited State   1:      Singlet-A      2.0015 eV  619.45 nm  f=3.1115  <S**2>=0.000
     155 ->158         0.14484
     156 ->157         0.69439
 This state for optimization and/or second-order correction.
 Total Energy, E(TD-HF/TD-DFT) =  -1706.83414980
 Copying the excited state density for this state as the 1-particle RhoCI density.

 The electronic state is 1-A.
 Alpha  occ. eigenvalues --  -19.22514 -19.20263 -10.32353 -10.29164 -10.28298
 Alpha  occ. eigenvalues --  -10.28239 -10.28079 -10.27861 -10.27833 -10.27678
 Alpha  occ. eigenvalues --  -10.27275 -10.27178 -10.27128 -10.27074 -10.26988
 Alpha  occ. eigenvalues --  -10.26971 -10.26893 -10.26754 -10.26646 -10.26614
 Alpha  occ. eigenvalues --  -10.26446 -10.26404 -10.26361 -10.26280 -10.26063
 Alpha  occ. eigenvalues --  -10.26017 -10.25592 -10.25569 -10.25481 -10.25463
 Alpha  occ. eigenvalues --  -10.25259 -10.25209 -10.25063 -10.24948 -10.24944
 Alpha  occ. eigenvalues --  -10.24861 -10.24802 -10.24319 -10.23892 -10.23468
 Alpha  occ. eigenvalues --  -10.23307 -10.23220  -1.13117  -1.08927  -0.94392
 Alpha  occ. eigenvalues --   -0.92966  -0.92280  -0.91988  -0.90327  -0.89719
 Alpha  occ. eigenvalues --   -0.88674  -0.87268  -0.86760  -0.85858  -0.84803
 Alpha  occ. eigenvalues --   -0.83134  -0.82561  -0.80378  -0.79990  -0.78923
 Alpha  occ. eigenvalues --   -0.76967  -0.76878  -0.76727  -0.75933  -0.75845
 Alpha  occ. eigenvalues --   -0.75768  -0.75218  -0.73974  -0.72857  -0.70047
 Alpha  occ. eigenvalues --   -0.68863  -0.67676  -0.67049  -0.65876  -0.64156
 Alpha  occ. eigenvalues --   -0.63819  -0.63239  -0.61634  -0.60843  -0.59987
 Alpha  occ. eigenvalues --   -0.59053  -0.58929  -0.57926  -0.57314  -0.57143
 Alpha  occ. eigenvalues --   -0.56802  -0.55360  -0.54444  -0.54212  -0.53867
 Alpha  occ. eigenvalues --   -0.53321  -0.53052  -0.52803  -0.52629  -0.51600
 Alpha  occ. eigenvalues --   -0.50633  -0.50539  -0.50343  -0.49899  -0.49241
 Alpha  occ. eigenvalues --   -0.48829  -0.48611  -0.48066  -0.47915  -0.47672
 Alpha  occ. eigenvalues --   -0.47410  -0.47282  -0.47071  -0.46744  -0.46723
 Alpha  occ. eigenvalues --   -0.46263  -0.46158  -0.45838  -0.45594  -0.45389
 Alpha  occ. eigenvalues --   -0.45181  -0.44630  -0.44460  -0.44098  -0.43987
 Alpha  occ. eigenvalues --   -0.43865  -0.43771  -0.42995  -0.42748  -0.42680
 Alpha  occ. eigenvalues --   -0.41793  -0.41574  -0.41519  -0.41301  -0.41032
 Alpha  occ. eigenvalues --   -0.40318  -0.40074  -0.39857  -0.39801  -0.39665
 Alpha  occ. eigenvalues --   -0.39447  -0.38547  -0.38262  -0.38233  -0.38010
 Alpha  occ. eigenvalues --   -0.37570  -0.37525  -0.37211  -0.36560  -0.35082
 Alpha  occ. eigenvalues --   -0.34532  -0.34163  -0.33312  -0.32472  -0.31677
 Alpha  occ. eigenvalues --   -0.30869  -0.29094  -0.28963  -0.26468  -0.23362
 Alpha  occ. eigenvalues --   -0.18801
 Alpha virt. eigenvalues --   -0.06174  -0.01377   0.02612   0.05456   0.06669
 Alpha virt. eigenvalues --    0.08950   0.11030   0.11356   0.11767   0.12107
 Alpha virt. eigenvalues --    0.12437   0.12885   0.13453   0.13648   0.13743

 Mulliken charges:
               1
     1  O   -0.560419
     2  O   -0.520970
     3  C    0.014424
     4  C   -0.134697
     5  C   -0.185850
     6  C    0.186088
     7  C    0.098414
     8  C   -0.070957
     9  C   -0.307846
    10  C   -0.283463
    11  C   -0.199110
    12  C   -0.161978
    13  C    0.158463
    14  C    0.068204
    15  C   -0.064702
    16  C   -0.211249
    17  C    0.061040
    18  C   -0.258019
    19  C   -0.259557
    20  C   -0.340052
    21  C   -0.094200
    22  C   -0.139026
    23  C   -0.378622
    24  C    0.068557
    25  C   -0.109973
    26  C   -0.363255
    27  C    0.050701
    28  C   -0.073379
    29  C   -0.356166
    30  C   -0.103853
    31  C   -0.059463
    32  C   -0.103564
    33  C   -0.138393
    34  C    0.098471
    35  C   -0.098243
    36  C    0.074608
    37  C   -0.348594
    38  C   -0.130186
    39  C   -0.111320
    40  C   -0.342043
    41  C   -0.041444
    42  C   -0.107214
    43  H    0.047264
    44  H    0.117256
    45  H    0.081148
    46  H    0.090284
    47  H    0.102616
    48  H    0.110352
    49  H    0.100360
    50  H    0.092459
    51  H    0.094165
    52  H    0.079115
    53  H    0.102894
    54  H    0.071652
    55  H    0.071443
    56  H    0.040955
    57  H    0.091079
    58  H    0.118183
    59  H    0.120399
    60  H    0.080149
    61  H    0.111934
    62  H    0.094736
    63  H    0.110594
    64  H    0.109531
    65  H    0.067705
    66  H    0.116098
    67  H    0.130868
    68  H    0.089236
    69  H    0.300404
    70  H    0.104784
    71  H    0.070945
    72  H    0.112060
    73  H    0.120359
    74  H    0.098416
    75  H    0.298979
    76  H    0.090555
    77  H    0.092719
    78  H    0.112980
    79  H    0.121090
    80  H    0.074076
    81  H    0.130118
    82  H    0.112614
    83  H    0.106240
    84  H    0.072463
    85  H    0.092524
    86  H    0.078301
    87  H    0.074673
    88  H    0.087557
    89  H    0.101611
    90  H    0.113590
    91  H    0.118450
    92  H    0.082396
    93  H    0.053373
    94  H    0.128355
    95  H    0.121697
    96  H    0.127749
    97  H    0.066949
    98  H    0.070336
 Sum of Mulliken charges =  -0.00000

 Dipole moment (field-independent basis, Debye):
    X=              2.0834    Y=              0.3480    Z=             -0.7109  Tot=              2.2287
 Quadrupole moment (field-independent basis, Debye-Ang):
   XX=           -288.2149   YY=           -246.9316   ZZ=           -261.7046
   XY=              0.3190   XZ=             32.1386   YZ=              2.4158

 Normal termination of Gaussian 16 at Sun Jul 14 11:09:33 2019.
