 Gaussian 16, Revision A.03,
 Gaussian 16:  ES64L-G16RevA.03 25-Dec-2016

 -------------------------------------
 # td=(NStates=1) CAM-B3LYP/6-31G(d,p)
 -------------------------------------

 --
 TD
 --
 Symbolic Z-matrix:
 Charge =  0 Multiplicity = 1

                         Standard orientation:
 ---------------------------------------------------------------------
 Center     Atomic      Atomic             Coordinates (Angstroms)
 Number     Number       Type             X           Y           Z
 ---------------------------------------------------------------------
      1          8           0      -14.163119   -1.854031    0.594297
      2          8           0       14.830309    0.888310    0.002203
      3          6           0      -11.689110    0.127883    1.199656
      4          6           0      -10.948348    0.351779   -0.057052
      5          6           0      -12.018444   -1.405017    1.394870
      6          6           0      -12.767420   -2.099754    0.286219
      7          6           0      -11.602517   -0.497192   -1.228147
      8          6           0       11.091650    1.120710    1.038691
      9          6           0      -10.948649    0.652333    2.379143
     10          6           0      -13.071901    0.839138    1.134552
     11          6           0       12.472702    1.564888    0.706922
     12          6           0      -12.437499   -1.533374   -1.005592
     13          6           0       13.493175    0.449736    0.363026
     14          6           0       10.689273    0.026738   -0.113441
     15          6           0       -9.458993   -0.055212   -0.086103
     16          6           0       12.984450   -0.254678   -0.918407
     17          6           0       11.557015   -0.551769   -0.937266
     18          6           0       10.164013    2.287499    0.971310
     19          6           0       10.971670    0.450260    2.329790
     20          6           0      -11.242685    0.116392   -2.619285
     21          6           0       -8.489198    0.795118   -0.260278
     22          6           0        9.231316   -0.428239   -0.027684
     23          6           0       11.207100   -1.489648   -2.074243
     24          6           0       -7.096518    0.492579   -0.218383
     25          6           0        8.775182   -1.673168   -0.126451
     26          6           0       -6.751669   -0.958513    0.082240
     27          6           0        7.402337   -2.123449    0.003643
     28          6           0       -6.159564    1.501981   -0.439964
     29          6           0        7.237358   -3.595866    0.256814
     30          6           0        6.298113   -1.235235   -0.100422
     31          6           0       -4.734443    1.343638   -0.480478
     32          6           0        5.001642   -1.609758   -0.005389
     33          6           0       -4.038151    2.444988   -0.597384
     34          6           0       -2.571046    2.488294   -0.720986
     35          6           0        3.962505   -0.633162   -0.226692
     36          6           0        2.599105   -0.797002   -0.057820
     37          6           0       -1.983876    3.958641   -0.875477
     38          6           0       -1.834742    1.402715   -0.394799
     39          6           0        1.819699    0.271358   -0.188994
     40          6           0        2.101899   -2.174598    0.355067
     41          6           0       -0.383287    1.385276   -0.367552
     42          6           0        0.403877    0.274738   -0.167775
     43          1           0      -11.006014    1.459342   -0.280746
     44          1           0      -12.626204   -1.716209    2.327411
     45          1           0      -11.066964   -1.922853    1.510502
     46          1           0      -12.563666   -3.179921    0.581946
     47          1           0       -9.822927    0.275264    2.379135
     48          1           0      -10.739774    1.633333    2.468772
     49          1           0      -11.452948    0.613951    3.273900
     50          1           0      -13.862628    0.409749    0.469332
     51          1           0      -13.704325    0.657658    1.981379
     52          1           0      -12.983586    1.979082    0.926074
     53          1           0       12.498736    2.227105   -0.290482
     54          1           0       12.894820    2.163070    1.410326
     55          1           0      -12.889900   -2.075954   -1.767870
     56          1           0       13.616889   -0.125082    1.352982
     57          1           0       -8.989980   -0.962847    0.140338
     58          1           0       13.566996   -1.147583   -1.012730
     59          1           0       13.351295    0.259278   -1.814322
     60          1           0        9.300960    2.014289    1.418948
     61          1           0       10.120377    2.662040   -0.012871
     62          1           0       10.542914    3.192311    1.582550
     63          1           0       11.658570   -0.416617    2.361686
     64          1           0        9.861322    0.051948    2.532387
     65          1           0       11.301122    1.262547    2.992996
     66          1           0      -10.125403    0.055256   -2.742089
     67          1           0      -11.558654    1.244029   -2.742874
     68          1           0      -11.853992   -0.591522   -3.237220
     69          1           0      -14.605465   -1.954138   -0.494823
     70          1           0        8.751995    0.304635    0.434835
     71          1           0       -8.700239    1.980837   -0.466213
     72          1           0       11.558094   -2.507565   -1.851926
     73          1           0       10.123342   -1.688002   -2.242420
     74          1           0       11.648515   -1.139236   -3.104246
     75          1           0       15.154473    1.538144    0.619513
     76          1           0        9.505399   -2.497924   -0.365798
     77          1           0       -5.711634   -1.155270    0.236766
     78          1           0       -7.139530   -1.111602    1.164030
     79          1           0       -7.061408   -1.650945   -0.782870
     80          1           0       -6.597628    2.496580   -0.562111
     81          1           0        6.515853   -3.787335    1.185137
     82          1           0        6.911584   -4.139922   -0.773276
     83          1           0        8.266755   -4.038862    0.560006
     84          1           0        6.593986   -0.223915   -0.028541
     85          1           0       -4.270159    0.368726   -0.329132
     86          1           0        4.888334   -2.584340    0.369121
     87          1           0       -4.671971    3.405948   -0.784504
     88          1           0        4.337139    0.308252   -0.615395
     89          1           0       -1.541853    3.971708   -1.778748
     90          1           0       -1.217839    4.275207   -0.003194
     91          1           0       -2.931857    4.618693   -0.920581
     92          1           0       -2.283154    0.584790   -0.173956
     93          1           0        2.274465    1.284412   -0.317857
     94          1           0        2.492789   -2.365830    1.494881
     95          1           0        1.084069   -2.351742    0.265903
     96          1           0        2.445578   -3.087732   -0.082993
     97          1           0        0.267478    2.178416   -0.525922
     98          1           0       -0.307776   -0.714172    0.057591
 ---------------------------------------------------------------------

 SCF Done:  E(RCAM-B3LYP) =  -1707.00025195     A.U. after   15 cycles

 Excitation energies and oscillator strengths:

 Excited State   1:      Singlet-A      2.3553 eV  526.42 nm  f=3.0747  <S**2>=0.000
     155 ->158        -0.16165
     156 ->157         0.68721
 This state for optimization and/or second-order correction.
 Total Energy, E(TD-HF/TD-DFT) =  -1706.91369797
 Copying the excited state density for this state as the 1-particle RhoCI density.

 The electronic state is 1-A.
 Alpha  occ. eigenvalues --  -19.22328 -19.20867 -10.31123 -10.29962 -10.28092
 Alpha  occ. eigenvalues --  -10.28064 -10.27473 -10.27290 -10.27181 -10.27162
 Alpha  occ. eigenvalues --  -10.27069 -10.27000 -10.26989 -10.26853 -10.26847
 Alpha  occ. eigenvalues --  -10.26608 -10.26496 -10.26349 -10.26308 -10.26257
 Alpha  occ. eigenvalues --  -10.26163 -10.26057 -10.25917 -10.25857 -10.25831
 Alpha  occ. eigenvalues --  -10.25809 -10.25777 -10.25671 -10.25655 -10.25558
 Alpha  occ. eigenvalues --  -10.25467 -10.25122 -10.24998 -10.24957 -10.24823
 Alpha  occ. eigenvalues --  -10.24782 -10.24755 -10.24445 -10.24393 -10.24017
 Alpha  occ. eigenvalues --  -10.23158 -10.22442  -1.08449  -1.06464  -0.94058
 Alpha  occ. eigenvalues --   -0.93433  -0.92523  -0.91971  -0.90678  -0.90160
 Alpha  occ. eigenvalues --   -0.88425  -0.87417  -0.86341  -0.85807  -0.84332
 Alpha  occ. eigenvalues --   -0.82864  -0.82119  -0.80346  -0.79937  -0.78325
 Alpha  occ. eigenvalues --   -0.77160  -0.76671  -0.76377  -0.76152  -0.75986
 Alpha  occ. eigenvalues --   -0.75383  -0.75272  -0.74655  -0.73492  -0.70031
 Alpha  occ. eigenvalues --   -0.68806  -0.66931  -0.66308  -0.65595  -0.63904
 Alpha  occ. eigenvalues --   -0.63151  -0.62838  -0.62257  -0.61329  -0.60322
 Alpha  occ. eigenvalues --   -0.58894  -0.58425  -0.57524  -0.57351  -0.56253
 Alpha  occ. eigenvalues --   -0.55582  -0.55546  -0.54821  -0.54176  -0.53888
 Alpha  occ. eigenvalues --   -0.53031  -0.52881  -0.52537  -0.52225  -0.51434
 Alpha  occ. eigenvalues --   -0.50938  -0.50197  -0.49780  -0.49427  -0.49159
 Alpha  occ. eigenvalues --   -0.48922  -0.48478  -0.48208  -0.47986  -0.47599
 Alpha  occ. eigenvalues --   -0.47381  -0.46985  -0.46815  -0.46314  -0.46082
 Alpha  occ. eigenvalues --   -0.45897  -0.45330  -0.45223  -0.44799  -0.44444
 Alpha  occ. eigenvalues --   -0.44405  -0.43973  -0.43727  -0.43510  -0.43325
 Alpha  occ. eigenvalues --   -0.43047  -0.42834  -0.42697  -0.42555  -0.42286
 Alpha  occ. eigenvalues --   -0.41735  -0.41580  -0.41246  -0.40921  -0.40747
 Alpha  occ. eigenvalues --   -0.40635  -0.40496  -0.40003  -0.39470  -0.39112
 Alpha  occ. eigenvalues --   -0.39054  -0.39035  -0.38730  -0.38417  -0.38364
 Alpha  occ. eigenvalues --   -0.37663  -0.37342  -0.36773  -0.36667  -0.35724
 Alpha  occ. eigenvalues --   -0.35306  -0.34244  -0.33894  -0.32495  -0.31910
 Alpha  occ. eigenvalues --   -0.31312  -0.30134  -0.29222  -0.27094  -0.23670
 Alpha  occ. eigenvalues --   -0.19754
 Alpha virt. eigenvalues --   -0.05174  -0.00806   0.03355   0.04882   0.06817
 Alpha virt. eigenvalues --    0.09378   0.10115   0.11861   0.12101   0.12819
 Alpha virt. eigenvalues --    0.13072   0.13266   0.13555   0.13757   0.13943

 Mulliken charges:
               1
     1  O   -0.537545
     2  O   -0.568606
     3  C    0.036367
     4  C   -0.111866
     5  C   -0.192209
     6  C    0.151220
     7  C    0.091992
     8  C   -0.009979
     9  C   -0.298679
    10  C   -0.306711
    11  C   -0.190870
    12  C   -0.141950
    13  C    0.162953
    14  C    0.022482
    15  C   -0.105061
    16  C   -0.226581
    17  C    0.065194
    18  C   -0.293527
    19  C   -0.277690
    20  C   -0.341919
    21  C   -0.060158
    22  C   -0.086097
    23  C   -0.370479
    24  C    0.095991
    25  C   -0.105903
    26  C   -0.388589
    27  C    0.066174
    28  C   -0.145389
    29  C   -0.369751
    30  C   -0.088176
    31  C   -0.033614
    32  C   -0.075675
    33  C   -0.128246
    34  C    0.059004
    35  C   -0.150373
    36  C    0.166286
    37  C   -0.352927
    38  C   -0.075090
    39  C   -0.154364
    40  C   -0.366917
    41  C   -0.078210
    42  C   -0.081024
    43  H    0.096096
    44  H    0.100443
    45  H    0.087040
    46  H    0.085382
    47  H    0.077743
    48  H    0.103411
    49  H    0.103701
    50  H    0.112206
    51  H    0.105396
    52  H    0.066760
    53  H    0.081420
    54  H    0.076036
    55  H    0.074859
    56  H    0.072014
    57  H    0.089128
    58  H    0.114478
    59  H    0.126400
    60  H    0.109991
    61  H    0.118936
    62  H    0.084188
    63  H    0.107511
    64  H    0.094991
    65  H    0.094773
    66  H    0.129966
    67  H    0.110282
    68  H    0.104486
    69  H    0.282709
    70  H    0.063806
    71  H    0.051934
    72  H    0.112922
    73  H    0.117967
    74  H    0.097773
    75  H    0.299667
    76  H    0.086511
    77  H    0.108888
    78  H    0.123232
    79  H    0.124825
    80  H    0.079588
    81  H    0.110998
    82  H    0.113397
    83  H    0.105886
    84  H    0.080527
    85  H    0.094718
    86  H    0.081542
    87  H    0.081609
    88  H    0.084028
    89  H    0.139889
    90  H    0.111423
    91  H    0.100230
    92  H    0.057861
    93  H    0.090933
    94  H    0.098389
    95  H    0.114453
    96  H    0.122679
    97  H    0.068782
    98  H    0.061710
 Sum of Mulliken charges =  -0.00000

 Dipole moment (field-independent basis, Debye):
    X=              1.1664    Y=              0.1260    Z=             -0.0392  Tot=              1.1739
 Quadrupole moment (field-independent basis, Debye-Ang):
   XX=           -292.1798   YY=           -243.1581   ZZ=           -263.2599
   XY=              8.8918   XZ=             39.4290   YZ=              2.7533

 Normal termination of Gaussian 16 at Sun Jul 14 00:35:28 2019.
