 Gaussian 16, Revision A.03,
 Gaussian 16:  ES64L-G16RevA.03 25-Dec-2016

 -------------------------------------
 # td=(NStates=1) CAM-B3LYP/6-31G(d,p)
 -------------------------------------

 --
 TD
 --
 Symbolic Z-matrix:
 Charge =  0 Multiplicity = 1

                         Standard orientation:
 ---------------------------------------------------------------------
 Center     Atomic      Atomic             Coordinates (Angstroms)
 Number     Number       Type             X           Y           Z
 ---------------------------------------------------------------------
      1          8           0      -14.267806   -1.845123    0.232310
      2          8           0       14.795013    0.848835    0.018909
      3          6           0      -11.764909   -0.189689    1.325218
      4          6           0      -11.032679    0.311687    0.069672
      5          6           0      -12.046282   -1.784646    1.161658
      6          6           0      -12.864088   -2.017944   -0.065207
      7          6           0      -11.711189   -0.129496   -1.245399
      8          6           0       11.193003    0.982148    0.980162
      9          6           0      -10.881297    0.121225    2.595992
     10          6           0      -13.100885    0.585156    1.460919
     11          6           0       12.626165    1.476784    0.607897
     12          6           0      -12.500851   -1.193986   -1.341107
     13          6           0       13.505896    0.375925    0.215795
     14          6           0       10.746129   -0.052938   -0.022065
     15          6           0       -9.518408   -0.102520    0.030068
     16          6           0       12.978447   -0.229438   -1.074573
     17          6           0       11.461488   -0.569368   -0.990592
     18          6           0       10.287568    2.265851    0.987680
     19          6           0       11.006796    0.433711    2.431359
     20          6           0      -11.283117    0.633663   -2.507000
     21          6           0       -8.562897    0.805980   -0.142505
     22          6           0        9.345946   -0.478428    0.050726
     23          6           0       10.990257   -1.444439   -2.186726
     24          6           0       -7.065567    0.462737   -0.284173
     25          6           0        8.830777   -1.777000   -0.030280
     26          6           0       -6.772108   -0.953466   -0.139548
     27          6           0        7.491125   -2.141104    0.072170
     28          6           0       -6.158964    1.515546   -0.497429
     29          6           0        7.131291   -3.618885    0.277826
     30          6           0        6.483807   -1.141741   -0.137329
     31          6           0       -4.818058    1.372946   -0.331078
     32          6           0        5.097010   -1.524210    0.038597
     33          6           0       -3.987546    2.471434   -0.512000
     34          6           0       -2.537855    2.614816   -0.461672
     35          6           0        4.140921   -0.597093   -0.211609
     36          6           0        2.697091   -0.776865   -0.108870
     37          6           0       -2.007225    3.991645   -0.664198
     38          6           0       -1.703971    1.540932   -0.160817
     39          6           0        1.793258    0.297737   -0.174101
     40          6           0        2.188188   -2.176378    0.188608
     41          6           0       -0.351990    1.521368   -0.227190
     42          6           0        0.441133    0.318949   -0.195254
     43          1           0      -11.212024    1.327905   -0.007273
     44          1           0      -12.572531   -2.073853    2.013506
     45          1           0      -11.097300   -2.111144    1.179402
     46          1           0      -12.784156   -3.067858   -0.392992
     47          1           0      -10.037376   -0.704675    2.549620
     48          1           0      -10.347584    1.108889    2.626586
     49          1           0      -11.212927   -0.201703    3.541389
     50          1           0      -13.589178    0.526047    0.482760
     51          1           0      -13.718943    0.289937    2.298664
     52          1           0      -12.956951    1.655871    1.833761
     53          1           0       12.374102    2.089377   -0.288317
     54          1           0       13.100625    2.115522    1.368630
     55          1           0      -13.186053   -1.419455   -2.191490
     56          1           0       13.477182   -0.361051    1.015931
     57          1           0       -9.397580   -1.167949    0.245399
     58          1           0       13.500690   -1.012134   -1.367268
     59          1           0       13.050050    0.495204   -1.766216
     60          1           0        9.200089    2.126475    1.164666
     61          1           0       10.327429    2.819610   -0.066927
     62          1           0       10.606564    3.087130    1.762989
     63          1           0       11.600109   -0.500022    2.416502
     64          1           0        9.807928    0.230481    2.737819
     65          1           0       11.313130    1.276801    3.301375
     66          1           0      -10.289564    0.887665   -2.620852
     67          1           0      -11.783857    1.608266   -2.370922
     68          1           0      -11.638736    0.079509   -3.255204
     69          1           0      -14.790492   -1.776536   -0.572088
     70          1           0        8.529212    0.138109    0.195909
     71          1           0       -8.939870    1.823016   -0.220298
     72          1           0       11.418753   -2.355869   -2.058327
     73          1           0       10.023535   -1.400969   -2.548336
     74          1           0       11.361817   -1.018742   -3.063442
     75          1           0       15.099371    1.008741    0.906589
     76          1           0        9.721381   -2.484839   -0.252554
     77          1           0       -5.663707   -1.062640   -0.150430
     78          1           0       -7.204830   -1.417296    0.818816
     79          1           0       -7.167333   -1.501949   -0.810887
     80          1           0       -6.667354    2.499726   -0.418585
     81          1           0        7.273085   -3.791113    1.323819
     82          1           0        6.152830   -3.749955   -0.340267
     83          1           0        7.860647   -4.236540   -0.574655
     84          1           0        6.655416   -0.117549   -0.603146
     85          1           0       -4.220633    0.489864    0.134982
     86          1           0        5.011887   -2.613248    0.280530
     87          1           0       -4.535414    3.257378   -0.590834
     88          1           0        4.280633    0.498434   -0.293145
     89          1           0       -1.569870    4.213471   -1.665860
     90          1           0       -1.269993    4.326800    0.049507
     91          1           0       -2.848344    4.739627   -0.926425
     92          1           0       -2.292748    0.590987    0.298154
     93          1           0        2.100028    1.284280   -0.575559
     94          1           0        2.460328   -2.515994    1.149804
     95          1           0        1.044247   -1.921950    0.133466
     96          1           0        2.631627   -2.937641   -0.477701
     97          1           0        0.264623    2.317871   -0.410755
     98          1           0       -0.068082   -0.623632    0.338668
 ---------------------------------------------------------------------

 SCF Done:  E(RCAM-B3LYP) =  -1706.95795621     A.U. after   15 cycles

 Excitation energies and oscillator strengths:

 Excited State   1:      Singlet-A      2.0056 eV  618.20 nm  f=3.0131  <S**2>=0.000
     155 ->158         0.14181
     156 ->157         0.69689
     156 <-157        -0.10450
 This state for optimization and/or second-order correction.
 Total Energy, E(TD-HF/TD-DFT) =  -1706.88425263
 Copying the excited state density for this state as the 1-particle RhoCI density.

 The electronic state is 1-A.
 Alpha  occ. eigenvalues --  -19.21207 -19.20300 -10.30663 -10.29517 -10.28341
 Alpha  occ. eigenvalues --  -10.28057 -10.27990 -10.27582 -10.27565 -10.27543
 Alpha  occ. eigenvalues --  -10.27319 -10.27050 -10.26942 -10.26873 -10.26735
 Alpha  occ. eigenvalues --  -10.26666 -10.26558 -10.26535 -10.26465 -10.26408
 Alpha  occ. eigenvalues --  -10.26328 -10.26223 -10.26136 -10.26017 -10.25955
 Alpha  occ. eigenvalues --  -10.25917 -10.25895 -10.25679 -10.25625 -10.25583
 Alpha  occ. eigenvalues --  -10.25357 -10.25013 -10.25001 -10.24795 -10.24714
 Alpha  occ. eigenvalues --  -10.24631 -10.24467 -10.23986 -10.23750 -10.23731
 Alpha  occ. eigenvalues --  -10.23276 -10.23113  -1.11469  -1.08261  -0.94062
 Alpha  occ. eigenvalues --   -0.92960  -0.91978  -0.91312  -0.90506  -0.89497
 Alpha  occ. eigenvalues --   -0.87175  -0.86695  -0.86225  -0.85765  -0.84797
 Alpha  occ. eigenvalues --   -0.83413  -0.82284  -0.80822  -0.80209  -0.78629
 Alpha  occ. eigenvalues --   -0.77530  -0.77085  -0.76835  -0.76057  -0.75105
 Alpha  occ. eigenvalues --   -0.74890  -0.74689  -0.73854  -0.72353  -0.70135
 Alpha  occ. eigenvalues --   -0.68687  -0.67942  -0.66577  -0.65655  -0.64197
 Alpha  occ. eigenvalues --   -0.63230  -0.62694  -0.61573  -0.60923  -0.60111
 Alpha  occ. eigenvalues --   -0.60069  -0.58840  -0.58525  -0.57399  -0.55974
 Alpha  occ. eigenvalues --   -0.55732  -0.55402  -0.55140  -0.54368  -0.54118
 Alpha  occ. eigenvalues --   -0.53017  -0.52785  -0.52223  -0.51866  -0.51745
 Alpha  occ. eigenvalues --   -0.51676  -0.51239  -0.50229  -0.49536  -0.49407
 Alpha  occ. eigenvalues --   -0.49183  -0.48973  -0.48575  -0.48363  -0.48275
 Alpha  occ. eigenvalues --   -0.47969  -0.47354  -0.47140  -0.46690  -0.46624
 Alpha  occ. eigenvalues --   -0.46274  -0.45715  -0.45548  -0.45190  -0.44786
 Alpha  occ. eigenvalues --   -0.44673  -0.44451  -0.44318  -0.43651  -0.43496
 Alpha  occ. eigenvalues --   -0.43120  -0.42908  -0.42560  -0.42498  -0.42099
 Alpha  occ. eigenvalues --   -0.41806  -0.41491  -0.41088  -0.40880  -0.40715
 Alpha  occ. eigenvalues --   -0.40341  -0.40230  -0.39818  -0.39501  -0.38842
 Alpha  occ. eigenvalues --   -0.38776  -0.38616  -0.38212  -0.37316  -0.37231
 Alpha  occ. eigenvalues --   -0.36568  -0.36438  -0.36311  -0.35966  -0.35843
 Alpha  occ. eigenvalues --   -0.35014  -0.34741  -0.33688  -0.32510  -0.31854
 Alpha  occ. eigenvalues --   -0.30893  -0.29823  -0.29403  -0.26751  -0.23429
 Alpha  occ. eigenvalues --   -0.18608
 Alpha virt. eigenvalues --   -0.06124  -0.00877   0.02721   0.06258   0.07504
 Alpha virt. eigenvalues --    0.09047   0.10723   0.11559   0.11652   0.11985
 Alpha virt. eigenvalues --    0.13031   0.13167   0.13375   0.13604   0.14054

 Mulliken charges:
               1
     1  O   -0.559898
     2  O   -0.544746
     3  C    0.002030
     4  C   -0.121381
     5  C   -0.167077
     6  C    0.149102
     7  C    0.081819
     8  C   -0.022883
     9  C   -0.309169
    10  C   -0.284495
    11  C   -0.175478
    12  C   -0.161289
    13  C    0.153859
    14  C    0.086686
    15  C   -0.064532
    16  C   -0.203958
    17  C    0.000961
    18  C   -0.298651
    19  C   -0.273028
    20  C   -0.343765
    21  C   -0.105911
    22  C   -0.111562
    23  C   -0.351890
    24  C    0.090149
    25  C   -0.099062
    26  C   -0.368162
    27  C    0.039108
    28  C   -0.136483
    29  C   -0.351689
    30  C   -0.111222
    31  C   -0.050735
    32  C   -0.086534
    33  C   -0.119259
    34  C    0.124538
    35  C   -0.115657
    36  C    0.083924
    37  C   -0.394400
    38  C   -0.118725
    39  C   -0.124887
    40  C   -0.359223
    41  C   -0.087003
    42  C   -0.091526
    43  H    0.094866
    44  H    0.121038
    45  H    0.099152
    46  H    0.079257
    47  H    0.063259
    48  H    0.108353
    49  H    0.107948
    50  H    0.105190
    51  H    0.103846
    52  H    0.069243
    53  H    0.102188
    54  H    0.078065
    55  H    0.072628
    56  H    0.071226
    57  H    0.088358
    58  H    0.105871
    59  H    0.127059
    60  H    0.106387
    61  H    0.076952
    62  H    0.092872
    63  H    0.101481
    64  H    0.091393
    65  H    0.073808
    66  H    0.130368
    67  H    0.106056
    68  H    0.116110
    69  H    0.302537
    70  H    0.070722
    71  H    0.079974
    72  H    0.127477
    73  H    0.127798
    74  H    0.111077
    75  H    0.303685
    76  H    0.068402
    77  H    0.105368
    78  H    0.110201
    79  H    0.141200
    80  H    0.094782
    81  H    0.148268
    82  H    0.124919
    83  H    0.091359
    84  H    0.100923
    85  H    0.087356
    86  H    0.090689
    87  H    0.059299
    88  H    0.079483
    89  H    0.120164
    90  H    0.131650
    91  H    0.104328
    92  H    0.070689
    93  H    0.070926
    94  H    0.127189
    95  H    0.092098
    96  H    0.114732
    97  H    0.082896
    98  H    0.068942
 Sum of Mulliken charges =  -0.00000

 Dipole moment (field-independent basis, Debye):
    X=              0.8675    Y=             -0.1473    Z=             -0.3040  Tot=              0.9310
 Quadrupole moment (field-independent basis, Debye-Ang):
   XX=           -264.1604   YY=           -246.0897   ZZ=           -258.8054
   XY=             -8.1540   XZ=             31.2578   YZ=              1.5394

 Normal termination of Gaussian 16 at Sun Jul 14 06:36:38 2019.
