 Gaussian 16, Revision A.03,
 Gaussian 16:  ES64L-G16RevA.03 25-Dec-2016

 -------------------------------------
 # td=(NStates=1) CAM-B3LYP/6-31G(d,p)
 -------------------------------------

 --
 TD
 --
 Symbolic Z-matrix:
 Charge =  0 Multiplicity = 1

                         Standard orientation:
 ---------------------------------------------------------------------
 Center     Atomic      Atomic             Coordinates (Angstroms)
 Number     Number       Type             X           Y           Z
 ---------------------------------------------------------------------
      1          8           0      -13.900086   -2.078734    0.226644
      2          8           0       14.935192    0.787511    0.016533
      3          6           0      -11.781411   -0.106311    1.340594
      4          6           0      -10.990365    0.355456    0.092444
      5          6           0      -11.862719   -1.599671    1.261165
      6          6           0      -12.559526   -2.123310    0.005326
      7          6           0      -11.432558   -0.292664   -1.227922
      8          6           0       11.067857    0.919717    0.928786
      9          6           0      -11.092802    0.454015    2.543573
     10          6           0      -13.145921    0.579318    1.282894
     11          6           0       12.469889    1.571663    0.623846
     12          6           0      -12.125947   -1.465304   -1.222623
     13          6           0       13.495213    0.475702    0.388723
     14          6           0       10.623189   -0.009604   -0.117691
     15          6           0       -9.479830    0.010201    0.143968
     16          6           0       13.089692   -0.237230   -0.912422
     17          6           0       11.577605   -0.587539   -0.889595
     18          6           0       10.258739    2.233862    0.930415
     19          6           0       10.955475    0.355174    2.357361
     20          6           0      -11.012993    0.356038   -2.539341
     21          6           0       -8.516775    0.942823   -0.166741
     22          6           0        9.159322   -0.385479    0.118106
     23          6           0       11.144591   -1.581733   -2.031186
     24          6           0       -7.144500    0.538327   -0.102433
     25          6           0        8.706176   -1.725355    0.147239
     26          6           0       -6.817531   -0.872934    0.336073
     27          6           0        7.363398   -2.118740    0.132970
     28          6           0       -6.236775    1.473189   -0.367172
     29          6           0        7.120252   -3.598892    0.232850
     30          6           0        6.262936   -1.208149   -0.039021
     31          6           0       -4.858885    1.427787   -0.351139
     32          6           0        4.913581   -1.476974   -0.105201
     33          6           0       -4.008163    2.549485   -0.554978
     34          6           0       -2.593677    2.598645   -0.668549
     35          6           0        3.993593   -0.556719   -0.230269
     36          6           0        2.514447   -0.761462   -0.195525
     37          6           0       -1.918998    4.001845   -0.779439
     38          6           0       -1.828884    1.447985   -0.421638
     39          6           0        1.779441    0.365783   -0.360584
     40          6           0        2.010457   -2.185040    0.010284
     41          6           0       -0.466197    1.493011   -0.393950
     42          6           0        0.330316    0.415640   -0.423732
     43          1           0      -11.036092    1.416275    0.064939
     44          1           0      -12.544300   -1.877044    2.132980
     45          1           0      -10.980035   -2.268395    1.365713
     46          1           0      -12.213104   -3.090959   -0.059971
     47          1           0      -10.259473    0.087150    2.673452
     48          1           0      -11.129360    1.672408    2.445216
     49          1           0      -11.585454    0.080121    3.499275
     50          1           0      -13.799371    0.582760    0.321107
     51          1           0      -13.842695    0.500179    2.105885
     52          1           0      -13.105744    1.766167    1.313895
     53          1           0       12.465612    2.277416   -0.316311
     54          1           0       12.833329    2.181819    1.476403
     55          1           0      -12.394654   -2.080408   -2.178627
     56          1           0       13.531504   -0.393217    1.047968
     57          1           0       -9.160643   -0.948317    0.331000
     58          1           0       13.709156   -1.113550   -1.249554
     59          1           0       13.184003    0.408257   -1.788684
     60          1           0        9.083958    2.052865    1.168898
     61          1           0       10.123163    2.490266   -0.223500
     62          1           0       10.786394    2.912209    1.520664
     63          1           0       11.640683   -0.277152    2.507202
     64          1           0       10.060290   -0.041152    2.658351
     65          1           0       11.347257    1.167571    3.037793
     66          1           0       -9.912385    0.350003   -2.576669
     67          1           0      -11.544186    1.429105   -2.525844
     68          1           0      -11.417057   -0.296728   -3.475840
     69          1           0      -14.327974   -2.422217   -0.705933
     70          1           0        8.593808    0.366599    0.501399
     71          1           0       -8.853904    1.959368   -0.570164
     72          1           0       11.480449   -2.576501   -1.791410
     73          1           0        9.935480   -1.588947   -1.883640
     74          1           0       11.461448   -1.039068   -3.020818
     75          1           0       15.126529    1.268834    0.890989
     76          1           0        9.445919   -2.438700    0.114803
     77          1           0       -5.597406   -0.989637    0.413272
     78          1           0       -7.339633   -0.869749    1.330641
     79          1           0       -7.016619   -1.733952   -0.294624
     80          1           0       -6.528365    2.398988   -0.646224
     81          1           0        6.561650   -3.878283    1.169528
     82          1           0        6.421866   -3.949176   -0.615282
     83          1           0        8.122377   -4.112182    0.264100
     84          1           0        6.587605   -0.084544    0.039107
     85          1           0       -4.223829    0.694582   -0.361006
     86          1           0        4.741884   -2.729003    0.016354
     87          1           0       -4.607940    3.355608   -0.755500
     88          1           0        4.237314    0.560852   -0.277571
     89          1           0       -1.183282    4.177780   -1.584799
     90          1           0       -1.532701    4.304031    0.239747
     91          1           0       -2.849864    4.683477   -0.983817
     92          1           0       -2.335540    0.435233   -0.375976
     93          1           0        2.172606    1.436457   -0.567647
     94          1           0        2.181388   -2.587475    0.982544
     95          1           0        0.895775   -2.482782   -0.328292
     96          1           0        2.482115   -2.844491   -0.710203
     97          1           0       -0.037524    2.653032   -0.232147
     98          1           0        0.094458   -0.661350   -0.131394
 ---------------------------------------------------------------------

 SCF Done:  E(RCAM-B3LYP) =  -1706.91742073     A.U. after   15 cycles

 Excitation energies and oscillator strengths:

 Excited State   1:      Singlet-A      2.1976 eV  564.18 nm  f=3.0582  <S**2>=0.000
     155 ->158         0.19389
     156 ->157         0.67924
 This state for optimization and/or second-order correction.
 Total Energy, E(TD-HF/TD-DFT) =  -1706.83666000
 Copying the excited state density for this state as the 1-particle RhoCI density.

 The electronic state is 1-A.
 Alpha  occ. eigenvalues --  -19.21639 -19.21619 -10.30550 -10.28381 -10.28160
 Alpha  occ. eigenvalues --  -10.27901 -10.27289 -10.27285 -10.27257 -10.27203
 Alpha  occ. eigenvalues --  -10.27200 -10.27163 -10.27112 -10.27096 -10.27001
 Alpha  occ. eigenvalues --  -10.26945 -10.26871 -10.26799 -10.26796 -10.26754
 Alpha  occ. eigenvalues --  -10.26600 -10.26594 -10.26537 -10.26405 -10.26382
 Alpha  occ. eigenvalues --  -10.26236 -10.26105 -10.26090 -10.26037 -10.25955
 Alpha  occ. eigenvalues --  -10.25837 -10.25644 -10.25593 -10.25480 -10.25397
 Alpha  occ. eigenvalues --  -10.25085 -10.24810 -10.24627 -10.24449 -10.24441
 Alpha  occ. eigenvalues --  -10.23649 -10.22814  -1.09918  -1.06394  -0.93896
 Alpha  occ. eigenvalues --   -0.93814  -0.92427  -0.91862  -0.90974  -0.89892
 Alpha  occ. eigenvalues --   -0.87519  -0.86683  -0.86127  -0.85685  -0.84285
 Alpha  occ. eigenvalues --   -0.83371  -0.82307  -0.79967  -0.79539  -0.78483
 Alpha  occ. eigenvalues --   -0.77804  -0.76825  -0.75985  -0.75870  -0.75220
 Alpha  occ. eigenvalues --   -0.74991  -0.74771  -0.74335  -0.73018  -0.70366
 Alpha  occ. eigenvalues --   -0.69364  -0.67453  -0.66114  -0.65015  -0.64449
 Alpha  occ. eigenvalues --   -0.63515  -0.62953  -0.62234  -0.60470  -0.59776
 Alpha  occ. eigenvalues --   -0.58940  -0.58336  -0.57834  -0.57252  -0.55966
 Alpha  occ. eigenvalues --   -0.55682  -0.55078  -0.54645  -0.54062  -0.53632
 Alpha  occ. eigenvalues --   -0.53549  -0.52569  -0.52304  -0.51564  -0.51301
 Alpha  occ. eigenvalues --   -0.50168  -0.50016  -0.49807  -0.49742  -0.49336
 Alpha  occ. eigenvalues --   -0.49107  -0.48681  -0.48558  -0.48313  -0.48015
 Alpha  occ. eigenvalues --   -0.47614  -0.47322  -0.47223  -0.46713  -0.46019
 Alpha  occ. eigenvalues --   -0.45733  -0.45471  -0.45241  -0.44731  -0.44557
 Alpha  occ. eigenvalues --   -0.44503  -0.43980  -0.43528  -0.43359  -0.43150
 Alpha  occ. eigenvalues --   -0.43053  -0.42604  -0.42368  -0.42307  -0.42199
 Alpha  occ. eigenvalues --   -0.42013  -0.41565  -0.41228  -0.41017  -0.40610
 Alpha  occ. eigenvalues --   -0.40376  -0.40235  -0.39854  -0.39727  -0.39111
 Alpha  occ. eigenvalues --   -0.38726  -0.38509  -0.38325  -0.38059  -0.37728
 Alpha  occ. eigenvalues --   -0.37481  -0.36792  -0.36647  -0.35907  -0.35798
 Alpha  occ. eigenvalues --   -0.35375  -0.34562  -0.33441  -0.32895  -0.31881
 Alpha  occ. eigenvalues --   -0.31504  -0.29386  -0.28849  -0.27214  -0.22849
 Alpha  occ. eigenvalues --   -0.19662
 Alpha virt. eigenvalues --   -0.05640  -0.02078   0.02887   0.05902   0.07559
 Alpha virt. eigenvalues --    0.09201   0.10673   0.11016   0.11666   0.11872
 Alpha virt. eigenvalues --    0.12134   0.12828   0.13132   0.13542   0.13766

 Mulliken charges:
               1
     1  O   -0.526732
     2  O   -0.556921
     3  C    0.034399
     4  C   -0.130033
     5  C   -0.209273
     6  C    0.174859
     7  C    0.115355
     8  C   -0.043417
     9  C   -0.257475
    10  C   -0.292105
    11  C   -0.202710
    12  C   -0.148920
    13  C    0.115225
    14  C    0.088283
    15  C   -0.106090
    16  C   -0.204689
    17  C   -0.015963
    18  C   -0.277425
    19  C   -0.272014
    20  C   -0.340968
    21  C   -0.088878
    22  C   -0.099691
    23  C   -0.352341
    24  C    0.124425
    25  C   -0.119921
    26  C   -0.374339
    27  C    0.098886
    28  C   -0.119780
    29  C   -0.384083
    30  C   -0.107137
    31  C   -0.015377
    32  C   -0.061768
    33  C   -0.143837
    34  C    0.076223
    35  C   -0.116473
    36  C    0.103767
    37  C   -0.376701
    38  C   -0.095787
    39  C   -0.128422
    40  C   -0.384692
    41  C   -0.080135
    42  C   -0.103022
    43  H    0.086011
    44  H    0.101878
    45  H    0.092499
    46  H    0.069379
    47  H    0.102837
    48  H    0.081793
    49  H    0.081823
    50  H    0.103271
    51  H    0.108648
    52  H    0.059324
    53  H    0.113400
    54  H    0.082569
    55  H    0.064627
    56  H    0.105610
    57  H    0.092430
    58  H    0.109241
    59  H    0.121153
    60  H    0.071224
    61  H    0.088248
    62  H    0.109380
    63  H    0.107069
    64  H    0.119785
    65  H    0.076375
    66  H    0.129878
    67  H    0.100064
    68  H    0.092476
    69  H    0.296062
    70  H    0.082015
    71  H    0.088772
    72  H    0.118008
    73  H    0.102554
    74  H    0.104066
    75  H    0.297639
    76  H    0.092098
    77  H    0.088881
    78  H    0.127092
    79  H    0.131758
    80  H    0.069738
    81  H    0.121713
    82  H    0.117910
    83  H    0.106287
    84  H    0.067524
    85  H    0.040717
    86  H    0.069810
    87  H    0.061858
    88  H    0.092163
    89  H    0.130914
    90  H    0.130821
    91  H    0.100014
    92  H    0.092052
    93  H    0.077283
    94  H    0.138341
    95  H    0.099899
    96  H    0.130639
    97  H    0.080121
    98  H    0.077957
 Sum of Mulliken charges =  -0.00000

 Dipole moment (field-independent basis, Debye):
    X=             -0.6451    Y=             -0.8590    Z=              0.5749  Tot=              1.2185
 Quadrupole moment (field-independent basis, Debye-Ang):
   XX=           -295.0974   YY=           -241.9750   ZZ=           -263.1405
   XY=              6.1977   XZ=             41.9363   YZ=              2.2461

 Normal termination of Gaussian 16 at Fri Jul 12 23:44:43 2019.
