 Gaussian 16, Revision A.03,
 Gaussian 16:  ES64L-G16RevA.03 25-Dec-2016

 -------------------------------------
 # td=(NStates=1) CAM-B3LYP/6-31G(d,p)
 -------------------------------------

 --
 TD
 --
 Symbolic Z-matrix:
 Charge =  0 Multiplicity = 1

                         Standard orientation:
 ---------------------------------------------------------------------
 Center     Atomic      Atomic             Coordinates (Angstroms)
 Number     Number       Type             X           Y           Z
 ---------------------------------------------------------------------
      1          8           0      -14.176966   -1.786585    0.607024
      2          8           0       14.908585    0.926551    0.096789
      3          6           0      -11.752166   -0.011615    1.275815
      4          6           0      -10.939622    0.314926   -0.053151
      5          6           0      -11.907441   -1.419768    1.389711
      6          6           0      -12.719120   -2.101821    0.345608
      7          6           0      -11.688559   -0.419544   -1.211371
      8          6           0       11.102393    0.911030    1.113838
      9          6           0      -10.945040    0.568262    2.516107
     10          6           0      -13.052771    0.920401    1.265873
     11          6           0       12.666149    1.425994    0.956611
     12          6           0      -12.501421   -1.498011   -1.039457
     13          6           0       13.626529    0.349065    0.441931
     14          6           0       10.720411    0.005784    0.048771
     15          6           0       -9.549134   -0.106723    0.010576
     16          6           0       12.990841   -0.240716   -0.917899
     17          6           0       11.570402   -0.471232   -0.872483
     18          6           0       10.372960    2.159110    1.122983
     19          6           0       11.055201    0.220482    2.430324
     20          6           0      -11.415028    0.221146   -2.450072
     21          6           0       -8.518333    0.645611   -0.310514
     22          6           0        9.237367   -0.398514    0.011579
     23          6           0       11.144815   -1.224618   -2.137952
     24          6           0       -7.048049    0.414791   -0.297500
     25          6           0        8.761655   -1.639033   -0.202510
     26          6           0       -6.579751   -1.055480    0.112092
     27          6           0        7.388822   -2.064237   -0.182760
     28          6           0       -6.264895    1.482566   -0.542995
     29          6           0        7.073912   -3.534578    0.078199
     30          6           0        6.370276   -1.189883   -0.239682
     31          6           0       -4.858909    1.431534   -0.494752
     32          6           0        4.950038   -1.492485   -0.178218
     33          6           0       -4.043600    2.557599   -0.622180
     34          6           0       -2.624785    2.592012   -0.731702
     35          6           0        4.019895   -0.600654   -0.283470
     36          6           0        2.545951   -0.782679   -0.172148
     37          6           0       -1.816893    3.900791   -0.906724
     38          6           0       -1.860497    1.450442   -0.413645
     39          6           0        1.732909    0.290024   -0.346251
     40          6           0        1.975731   -2.195772    0.246415
     41          6           0       -0.445171    1.450288   -0.450720
     42          6           0        0.351306    0.272138   -0.229575
     43          1           0      -11.121146    1.391260   -0.099368
     44          1           0      -12.461545   -1.808865    2.390903
     45          1           0      -10.706815   -1.800157    1.522461
     46          1           0      -12.576140   -3.205033    0.259907
     47          1           0       -9.942627    0.069817    2.858636
     48          1           0      -10.859195    1.679452    2.343248
     49          1           0      -11.674376    0.831223    3.342956
     50          1           0      -13.777667    0.556012    0.599789
     51          1           0      -13.500489    0.596474    2.225388
     52          1           0      -13.018951    2.037480    1.198105
     53          1           0       12.596840    2.128070    0.050933
     54          1           0       13.039711    1.790229    1.816949
     55          1           0      -13.056768   -1.899403   -1.769719
     56          1           0       13.612873   -0.267940    1.232628
     57          1           0       -9.366248   -1.296643    0.093889
     58          1           0       13.651753   -1.015664   -1.173703
     59          1           0       13.334939    0.530326   -1.659392
     60          1           0        9.374124    2.102191    1.545766
     61          1           0       10.157018    2.546510    0.080034
     62          1           0       10.968074    2.747040    1.770797
     63          1           0       11.781133   -0.510231    2.647896
     64          1           0       10.047402   -0.239271    2.376133
     65          1           0       11.270503    1.102710    3.197148
     66          1           0      -10.351102    0.572078   -2.471729
     67          1           0      -11.956620    1.094305   -2.507280
     68          1           0      -11.767560   -0.197223   -3.442344
     69          1           0      -14.682011   -2.336784   -0.102221
     70          1           0        8.700253    0.404183    0.230017
     71          1           0       -8.799366    1.665188   -0.563249
     72          1           0       11.586630   -2.243773   -2.031177
     73          1           0        9.999876   -1.483169   -2.217426
     74          1           0       11.613483   -0.897716   -3.105549
     75          1           0       15.276262    1.316688    0.957743
     76          1           0        9.599875   -2.241745   -0.313826
     77          1           0       -5.478679   -0.921260   -0.086423
     78          1           0       -6.526123   -1.179985    1.203922
     79          1           0       -7.092223   -1.891415   -0.423013
     80          1           0       -6.940691    2.359754   -0.699935
     81          1           0        6.609599   -3.749544    1.060880
     82          1           0        6.569540   -3.936025   -0.806207
     83          1           0        8.054545   -4.196792    0.112250
     84          1           0        6.646149   -0.283828   -0.303864
     85          1           0       -4.413166    0.415896   -0.407506
     86          1           0        4.571270   -2.409473    0.049377
     87          1           0       -4.709369    3.439086   -0.896776
     88          1           0        4.336273    0.382690   -0.606900
     89          1           0       -1.355754    3.873662   -1.829736
     90          1           0       -1.056833    3.836742   -0.147617
     91          1           0       -2.347961    4.856580   -0.837328
     92          1           0       -2.320532    0.489530   -0.156792
     93          1           0        2.158318    1.136806   -0.698994
     94          1           0        2.361940   -2.521132    1.187098
     95          1           0        0.880294   -2.116331    0.081240
     96          1           0        2.436837   -2.968867   -0.434522
     97          1           0        0.202393    2.355276   -0.642613
     98          1           0       -0.189180   -0.628495   -0.103609
 ---------------------------------------------------------------------

 SCF Done:  E(RCAM-B3LYP) =  -1707.02009587     A.U. after   15 cycles

 Excitation energies and oscillator strengths:

 Excited State   1:      Singlet-A      2.3564 eV  526.16 nm  f=2.8261  <S**2>=0.000
     155 ->158         0.13586
     156 ->157         0.69404
 This state for optimization and/or second-order correction.
 Total Energy, E(TD-HF/TD-DFT) =  -1706.93350027
 Copying the excited state density for this state as the 1-particle RhoCI density.

 The electronic state is 1-A.
 Alpha  occ. eigenvalues --  -19.21706 -19.21377 -10.31060 -10.29223 -10.27985
 Alpha  occ. eigenvalues --  -10.27749 -10.27668 -10.27143 -10.26943 -10.26903
 Alpha  occ. eigenvalues --  -10.26886 -10.26808 -10.26794 -10.26731 -10.26425
 Alpha  occ. eigenvalues --  -10.26379 -10.26312 -10.26256 -10.26220 -10.26197
 Alpha  occ. eigenvalues --  -10.26187 -10.26165 -10.26126 -10.26124 -10.25507
 Alpha  occ. eigenvalues --  -10.25376 -10.25373 -10.25363 -10.25343 -10.25103
 Alpha  occ. eigenvalues --  -10.25073 -10.24946 -10.24875 -10.24812 -10.24726
 Alpha  occ. eigenvalues --  -10.24624 -10.24161 -10.24151 -10.24140 -10.24084
 Alpha  occ. eigenvalues --  -10.24060 -10.23127  -1.07785  -1.06155  -0.94582
 Alpha  occ. eigenvalues --   -0.93795  -0.92226  -0.91601  -0.90752  -0.89675
 Alpha  occ. eigenvalues --   -0.87993  -0.87192  -0.86959  -0.85803  -0.84367
 Alpha  occ. eigenvalues --   -0.83019  -0.81871  -0.80635  -0.80215  -0.78147
 Alpha  occ. eigenvalues --   -0.77134  -0.76838  -0.76333  -0.75999  -0.75917
 Alpha  occ. eigenvalues --   -0.75612  -0.74901  -0.73796  -0.73641  -0.70771
 Alpha  occ. eigenvalues --   -0.69104  -0.67961  -0.66315  -0.65466  -0.64426
 Alpha  occ. eigenvalues --   -0.63181  -0.62695  -0.62450  -0.61534  -0.60924
 Alpha  occ. eigenvalues --   -0.59131  -0.58594  -0.58215  -0.56958  -0.56336
 Alpha  occ. eigenvalues --   -0.55777  -0.55654  -0.54877  -0.54203  -0.53907
 Alpha  occ. eigenvalues --   -0.53559  -0.53256  -0.52816  -0.52352  -0.51082
 Alpha  occ. eigenvalues --   -0.50681  -0.50164  -0.49844  -0.49686  -0.49292
 Alpha  occ. eigenvalues --   -0.49174  -0.48952  -0.48709  -0.48110  -0.48043
 Alpha  occ. eigenvalues --   -0.47714  -0.47209  -0.46946  -0.46873  -0.46258
 Alpha  occ. eigenvalues --   -0.46065  -0.45466  -0.45201  -0.45129  -0.45002
 Alpha  occ. eigenvalues --   -0.44567  -0.44409  -0.43955  -0.43741  -0.43604
 Alpha  occ. eigenvalues --   -0.43439  -0.42787  -0.42221  -0.42165  -0.41961
 Alpha  occ. eigenvalues --   -0.41698  -0.41382  -0.41335  -0.41046  -0.40924
 Alpha  occ. eigenvalues --   -0.40683  -0.40187  -0.39873  -0.39751  -0.39547
 Alpha  occ. eigenvalues --   -0.39125  -0.38958  -0.38734  -0.38583  -0.38265
 Alpha  occ. eigenvalues --   -0.37926  -0.37267  -0.36457  -0.35813  -0.35173
 Alpha  occ. eigenvalues --   -0.34711  -0.34471  -0.33782  -0.32733  -0.31503
 Alpha  occ. eigenvalues --   -0.31293  -0.29282  -0.28353  -0.27000  -0.24304
 Alpha  occ. eigenvalues --   -0.19910
 Alpha virt. eigenvalues --   -0.05256  -0.00339   0.03144   0.06243   0.07526
 Alpha virt. eigenvalues --    0.09151   0.10552   0.11603   0.11800   0.12337
 Alpha virt. eigenvalues --    0.12875   0.13362   0.13989   0.14269   0.14604

 Mulliken charges:
               1
     1  O   -0.554854
     2  O   -0.562548
     3  C    0.028453
     4  C   -0.155158
     5  C   -0.155626
     6  C    0.107672
     7  C    0.125454
     8  C   -0.042683
     9  C   -0.304414
    10  C   -0.331383
    11  C   -0.198492
    12  C   -0.105371
    13  C    0.151026
    14  C    0.038437
    15  C   -0.052546
    16  C   -0.253501
    17  C    0.080030
    18  C   -0.288675
    19  C   -0.272197
    20  C   -0.373827
    21  C   -0.106900
    22  C   -0.083869
    23  C   -0.374001
    24  C    0.094102
    25  C   -0.114334
    26  C   -0.362253
    27  C    0.083449
    28  C   -0.104579
    29  C   -0.375497
    30  C   -0.078761
    31  C   -0.080585
    32  C   -0.058418
    33  C   -0.136948
    34  C    0.069277
    35  C   -0.100583
    36  C    0.072802
    37  C   -0.371364
    38  C   -0.112240
    39  C   -0.093202
    40  C   -0.368813
    41  C   -0.100905
    42  C   -0.092126
    43  H    0.099329
    44  H    0.092746
    45  H    0.077960
    46  H    0.090127
    47  H    0.097843
    48  H    0.087163
    49  H    0.094586
    50  H    0.134194
    51  H    0.104195
    52  H    0.093631
    53  H    0.094033
    54  H    0.075143
    55  H    0.066392
    56  H    0.084042
    57  H    0.074553
    58  H    0.118199
    59  H    0.123842
    60  H    0.095957
    61  H    0.104481
    62  H    0.108379
    63  H    0.108985
    64  H    0.103872
    65  H    0.070185
    66  H    0.113389
    67  H    0.129299
    68  H    0.098847
    69  H    0.304148
    70  H    0.072219
    71  H    0.064554
    72  H    0.106048
    73  H    0.109296
    74  H    0.111353
    75  H    0.305063
    76  H    0.092879
    77  H    0.094911
    78  H    0.131548
    79  H    0.125023
    80  H    0.089053
    81  H    0.128741
    82  H    0.127635
    83  H    0.088622
    84  H    0.053714
    85  H    0.089706
    86  H    0.064232
    87  H    0.082617
    88  H    0.069772
    89  H    0.134716
    90  H    0.132680
    91  H    0.110081
    92  H    0.086121
    93  H    0.076637
    94  H    0.133844
    95  H    0.111446
    96  H    0.113110
    97  H    0.085898
    98  H    0.078914
 Sum of Mulliken charges =  -0.00000

 Dipole moment (field-independent basis, Debye):
    X=             -0.1975    Y=             -0.8991    Z=              0.0012  Tot=              0.9205
 Quadrupole moment (field-independent basis, Debye-Ang):
   XX=           -272.3896   YY=           -242.1351   ZZ=           -263.0618
   XY=              7.8668   XZ=             42.1708   YZ=              1.0536

 Normal termination of Gaussian 16 at Mon Jul 15 15:23:22 2019.
