 Gaussian 16, Revision A.03,
 Gaussian 16:  ES64L-G16RevA.03 25-Dec-2016

 -------------------------------------
 # td=(NStates=1) CAM-B3LYP/6-31G(d,p)
 -------------------------------------

 --
 TD
 --
 Symbolic Z-matrix:
 Charge =  0 Multiplicity = 1

                         Standard orientation:
 ---------------------------------------------------------------------
 Center     Atomic      Atomic             Coordinates (Angstroms)
 Number     Number       Type             X           Y           Z
 ---------------------------------------------------------------------
      1          8           0      -13.984327   -2.080965    0.850933
      2          8           0       14.812107    0.812534    0.227159
      3          6           0      -11.740715    0.132475    1.227811
      4          6           0      -10.993951    0.239019   -0.127298
      5          6           0      -11.848348   -1.380489    1.619963
      6          6           0      -12.556808   -2.081425    0.469894
      7          6           0      -11.534538   -0.527892   -1.258894
      8          6           0       11.079809    0.962156    0.996835
      9          6           0      -10.903212    0.807335    2.349831
     10          6           0      -13.040954    0.901251    1.337796
     11          6           0       12.462988    1.525695    0.731196
     12          6           0      -12.350384   -1.510392   -0.971081
     13          6           0       13.399106    0.425235    0.305630
     14          6           0       10.539839   -0.081329    0.033879
     15          6           0       -9.485746   -0.115636   -0.058984
     16          6           0       12.914373   -0.206131   -0.910875
     17          6           0       11.417378   -0.484134   -0.945895
     18          6           0       10.027829    2.191226    0.942519
     19          6           0       10.992088    0.454850    2.378830
     20          6           0      -11.380813   -0.116288   -2.746305
     21          6           0       -8.500681    0.680972   -0.375840
     22          6           0        9.121994   -0.418598    0.065888
     23          6           0       11.013413   -1.460152   -1.935874
     24          6           0       -7.093486    0.425490   -0.358349
     25          6           0        8.684597   -1.715891    0.022220
     26          6           0       -6.611855   -0.946789   -0.059853
     27          6           0        7.329689   -2.138491   -0.001343
     28          6           0       -6.130090    1.497554   -0.543438
     29          6           0        7.132235   -3.708287    0.054222
     30          6           0        6.332236   -1.307434   -0.062064
     31          6           0       -4.738218    1.462997   -0.324132
     32          6           0        4.969460   -1.531060    0.071651
     33          6           0       -3.990236    2.520380   -0.549557
     34          6           0       -2.454377    2.721184   -0.694337
     35          6           0        4.011450   -0.596202   -0.233189
     36          6           0        2.660384   -0.700549   -0.063234
     37          6           0       -1.865518    4.038627   -0.931598
     38          6           0       -1.682654    1.616368   -0.434840
     39          6           0        1.819343    0.328979   -0.348469
     40          6           0        2.103501   -2.199115   -0.020757
     41          6           0       -0.273819    1.561733   -0.462947
     42          6           0        0.427735    0.348526   -0.349071
     43          1           0      -10.868201    1.363298   -0.249334
     44          1           0      -12.399910   -1.528601    2.602230
     45          1           0      -10.853283   -1.795561    1.752753
     46          1           0      -12.142547   -3.109468    0.604193
     47          1           0       -9.876621    0.197671    2.503125
     48          1           0      -10.560722    1.775511    1.823200
     49          1           0      -11.222425    0.869290    3.333592
     50          1           0      -13.762953    0.724160    0.602463
     51          1           0      -13.686303    0.858488    2.110454
     52          1           0      -12.861599    2.068676    1.415255
     53          1           0       12.219066    2.172053   -0.151488
     54          1           0       12.840837    2.146919    1.614705
     55          1           0      -12.926512   -2.103429   -1.702142
     56          1           0       13.638931   -0.314640    1.183611
     57          1           0       -9.338899   -1.044100    0.231726
     58          1           0       13.535923   -1.197798   -0.969375
     59          1           0       13.219572    0.493582   -1.776881
     60          1           0        9.046707    1.887940    1.353673
     61          1           0       10.055171    2.416559   -0.056333
     62          1           0       10.539625    3.131220    1.322716
     63          1           0       11.604453   -0.458375    2.523200
     64          1           0        9.874467    0.094324    2.614597
     65          1           0       11.271220    1.321339    3.134586
     66          1           0      -10.459008    0.025208   -3.081930
     67          1           0      -11.772897    0.872081   -2.837799
     68          1           0      -11.817863   -0.986854   -3.335495
     69          1           0      -14.657305   -2.431469    0.285704
     70          1           0        8.488159    0.485570    0.156266
     71          1           0       -9.013227    1.718457   -0.623757
     72          1           0       11.296756   -2.558990   -1.696258
     73          1           0        9.915674   -1.417923   -2.262120
     74          1           0       11.795830   -1.411606   -2.851979
     75          1           0       15.202794    1.113061    1.224139
     76          1           0        9.343748   -2.601563   -0.178815
     77          1           0       -5.638309   -0.994641   -0.086867
     78          1           0       -7.065031   -1.499878    0.878945
     79          1           0       -7.003904   -1.732732   -0.941713
     80          1           0       -6.667598    2.382585   -0.461997
     81          1           0        7.172948   -4.213960    1.306837
     82          1           0        5.952755   -3.717791   -0.474967
     83          1           0        8.088572   -4.021185   -0.481472
     84          1           0        6.459072   -0.262148   -0.126569
     85          1           0       -4.174219    0.510173   -0.223549
     86          1           0        4.546351   -2.562113    0.330348
     87          1           0       -4.348084    3.558545   -0.958316
     88          1           0        4.246002    0.553405   -0.400621
     89          1           0       -1.507042    3.907895   -1.778952
     90          1           0       -1.022769    4.335857   -0.249672
     91          1           0       -2.738889    4.915998   -0.921723
     92          1           0       -2.302185    0.761642   -0.229030
     93          1           0        2.182518    1.339078   -0.628553
     94          1           0        2.784035   -2.641582    0.944694
     95          1           0        0.990124   -2.176194    0.401926
     96          1           0        2.210457   -2.746926   -1.019934
     97          1           0       -0.002248    2.544937   -1.038032
     98          1           0       -0.031715   -0.563160   -0.123660
 ---------------------------------------------------------------------

 SCF Done:  E(RCAM-B3LYP) =  -1706.86278345     A.U. after   15 cycles

 Excitation energies and oscillator strengths:

 Excited State   1:      Singlet-A      2.3060 eV  537.65 nm  f=3.0668  <S**2>=0.000
     155 ->158         0.15469
     156 ->157         0.68812
 This state for optimization and/or second-order correction.
 Total Energy, E(TD-HF/TD-DFT) =  -1706.77803810
 Copying the excited state density for this state as the 1-particle RhoCI density.

 The electronic state is 1-A.
 Alpha  occ. eigenvalues --  -19.20900 -19.19767 -10.31128 -10.30477 -10.30121
 Alpha  occ. eigenvalues --  -10.29034 -10.28250 -10.27911 -10.27798 -10.27512
 Alpha  occ. eigenvalues --  -10.27061 -10.27050 -10.26974 -10.26832 -10.26827
 Alpha  occ. eigenvalues --  -10.26764 -10.26725 -10.26717 -10.26679 -10.26656
 Alpha  occ. eigenvalues --  -10.26616 -10.26546 -10.26477 -10.26392 -10.26329
 Alpha  occ. eigenvalues --  -10.26271 -10.26214 -10.26178 -10.26102 -10.26031
 Alpha  occ. eigenvalues --  -10.25926 -10.25604 -10.25430 -10.25327 -10.25300
 Alpha  occ. eigenvalues --  -10.24917 -10.24898 -10.24635 -10.24584 -10.24547
 Alpha  occ. eigenvalues --  -10.24336 -10.22714  -1.06770  -1.05369  -0.94263
 Alpha  occ. eigenvalues --   -0.93966  -0.92873  -0.92179  -0.91127  -0.90388
 Alpha  occ. eigenvalues --   -0.87740  -0.87174  -0.87018  -0.86521  -0.85215
 Alpha  occ. eigenvalues --   -0.83404  -0.82614  -0.81241  -0.79898  -0.78494
 Alpha  occ. eigenvalues --   -0.77212  -0.76444  -0.75982  -0.75861  -0.75239
 Alpha  occ. eigenvalues --   -0.74866  -0.74490  -0.74315  -0.73333  -0.70672
 Alpha  occ. eigenvalues --   -0.68692  -0.67730  -0.66603  -0.64499  -0.63941
 Alpha  occ. eigenvalues --   -0.63423  -0.62963  -0.62292  -0.60983  -0.60222
 Alpha  occ. eigenvalues --   -0.59745  -0.58658  -0.57228  -0.56895  -0.56621
 Alpha  occ. eigenvalues --   -0.55963  -0.55298  -0.54334  -0.54206  -0.53779
 Alpha  occ. eigenvalues --   -0.53439  -0.52652  -0.52381  -0.52170  -0.51361
 Alpha  occ. eigenvalues --   -0.51231  -0.50681  -0.50024  -0.49716  -0.48693
 Alpha  occ. eigenvalues --   -0.48626  -0.48492  -0.48278  -0.48163  -0.47752
 Alpha  occ. eigenvalues --   -0.47219  -0.46953  -0.46586  -0.46380  -0.46038
 Alpha  occ. eigenvalues --   -0.45788  -0.45665  -0.45531  -0.45171  -0.44777
 Alpha  occ. eigenvalues --   -0.44385  -0.44066  -0.43919  -0.43506  -0.43299
 Alpha  occ. eigenvalues --   -0.43063  -0.42849  -0.42790  -0.42279  -0.41887
 Alpha  occ. eigenvalues --   -0.41795  -0.41163  -0.40923  -0.40526  -0.40074
 Alpha  occ. eigenvalues --   -0.39743  -0.39568  -0.39389  -0.39242  -0.38814
 Alpha  occ. eigenvalues --   -0.38740  -0.38415  -0.38139  -0.37934  -0.37503
 Alpha  occ. eigenvalues --   -0.37273  -0.36983  -0.36902  -0.36037  -0.35262
 Alpha  occ. eigenvalues --   -0.35018  -0.34633  -0.34188  -0.32438  -0.31443
 Alpha  occ. eigenvalues --   -0.30551  -0.29871  -0.29031  -0.26692  -0.24047
 Alpha  occ. eigenvalues --   -0.20289
 Alpha virt. eigenvalues --   -0.05932  -0.01176   0.01960   0.05839   0.06921
 Alpha virt. eigenvalues --    0.08785   0.08824   0.10271   0.10473   0.11403
 Alpha virt. eigenvalues --    0.11936   0.12425   0.12676   0.12891   0.12996

 Mulliken charges:
               1
     1  O   -0.581303
     2  O   -0.601373
     3  C    0.035793
     4  C   -0.186391
     5  C   -0.181083
     6  C    0.153110
     7  C    0.153909
     8  C   -0.035093
     9  C   -0.288715
    10  C   -0.286179
    11  C   -0.183992
    12  C   -0.142436
    13  C    0.201641
    14  C    0.075861
    15  C   -0.059132
    16  C   -0.227954
    17  C    0.083513
    18  C   -0.322927
    19  C   -0.268370
    20  C   -0.348831
    21  C   -0.080988
    22  C   -0.130744
    23  C   -0.375779
    24  C    0.092656
    25  C   -0.088389
    26  C   -0.348261
    27  C    0.079888
    28  C   -0.123081
    29  C   -0.313612
    30  C   -0.082770
    31  C   -0.083916
    32  C   -0.119423
    33  C   -0.087835
    34  C    0.045969
    35  C   -0.089858
    36  C    0.082713
    37  C   -0.373424
    38  C   -0.079276
    39  C   -0.102318
    40  C   -0.350424
    41  C   -0.109189
    42  C   -0.074015
    43  H    0.081202
    44  H    0.115491
    45  H    0.092136
    46  H    0.080667
    47  H    0.063370
    48  H    0.085459
    49  H    0.114552
    50  H    0.105729
    51  H    0.119531
    52  H    0.062076
    53  H    0.092318
    54  H    0.082636
    55  H    0.074610
    56  H    0.068055
    57  H    0.070716
    58  H    0.109741
    59  H    0.118738
    60  H    0.108728
    61  H    0.113554
    62  H    0.093618
    63  H    0.097541
    64  H    0.081118
    65  H    0.077820
    66  H    0.129823
    67  H    0.122441
    68  H    0.104338
    69  H    0.299807
    70  H    0.106007
    71  H    0.061981
    72  H    0.105967
    73  H    0.121923
    74  H    0.079229
    75  H    0.303458
    76  H    0.084407
    77  H    0.115851
    78  H    0.111881
    79  H    0.083486
    80  H    0.092101
    81  H    0.081081
    82  H    0.096304
    83  H    0.111374
    84  H    0.075316
    85  H    0.097121
    86  H    0.083804
    87  H    0.065961
    88  H    0.068318
    89  H    0.152795
    90  H    0.132001
    91  H    0.091889
    92  H    0.062772
    93  H    0.078029
    94  H    0.093996
    95  H    0.095945
    96  H    0.136210
    97  H    0.084600
    98  H    0.082398
 Sum of Mulliken charges =  -0.00000

 Dipole moment (field-independent basis, Debye):
    X=             -1.2884    Y=             -0.3338    Z=             -0.4809  Tot=              1.4152
 Quadrupole moment (field-independent basis, Debye-Ang):
   XX=           -282.8526   YY=           -247.5272   ZZ=           -263.2072
   XY=              8.5778   XZ=             32.7913   YZ=              0.9659

 Normal termination of Gaussian 16 at Tue Jul 16 00:44:12 2019.
