 Gaussian 16, Revision A.03,
 Gaussian 16:  ES64L-G16RevA.03 25-Dec-2016

 -------------------------------------
 # td=(NStates=1) CAM-B3LYP/6-31G(d,p)
 -------------------------------------

 --
 TD
 --
 Symbolic Z-matrix:
 Charge =  0 Multiplicity = 1

                         Standard orientation:
 ---------------------------------------------------------------------
 Center     Atomic      Atomic             Coordinates (Angstroms)
 Number     Number       Type             X           Y           Z
 ---------------------------------------------------------------------
      1          8           0      -14.227591   -1.911020   -0.019728
      2          8           0       14.797670    0.784898   -0.022496
      3          6           0      -11.726421   -0.227810    1.292084
      4          6           0      -11.009721    0.259285    0.085691
      5          6           0      -12.134086   -1.746609    1.002694
      6          6           0      -12.866444   -2.099747   -0.312875
      7          6           0      -11.542206   -0.139667   -1.276851
      8          6           0       11.138536    0.971287    0.898523
      9          6           0      -11.035922   -0.079240    2.611548
     10          6           0      -13.057023    0.594597    1.333529
     11          6           0       12.594069    1.470545    0.617047
     12          6           0      -12.365263   -1.229721   -1.483237
     13          6           0       13.435305    0.346220    0.136957
     14          6           0       10.740984   -0.060168   -0.154200
     15          6           0       -9.520350   -0.097443   -0.065538
     16          6           0       12.995802   -0.172280   -1.159974
     17          6           0       11.531641   -0.524962   -1.199356
     18          6           0       10.316186    2.277562    0.775238
     19          6           0       11.062264    0.358540    2.288939
     20          6           0      -11.252995    0.757824   -2.446009
     21          6           0       -8.551646    0.686432   -0.080597
     22          6           0        9.291660   -0.577376    0.125134
     23          6           0       11.127237   -1.521071   -2.264303
     24          6           0       -7.095158    0.466465   -0.086245
     25          6           0        8.818222   -1.746166   -0.015520
     26          6           0       -6.698908   -1.036855    0.018929
     27          6           0        7.428035   -2.245451    0.115907
     28          6           0       -6.256673    1.653225   -0.169914
     29          6           0        7.181796   -3.728084    0.418475
     30          6           0        6.379376   -1.369217   -0.141624
     31          6           0       -4.751879    1.498660   -0.176192
     32          6           0        4.956185   -1.528189    0.232321
     33          6           0       -3.962602    2.635282   -0.299793
     34          6           0       -2.575896    2.730655   -0.324788
     35          6           0        4.083104   -0.430160    0.002753
     36          6           0        2.617911   -0.706301   -0.033188
     37          6           0       -1.941238    4.064186   -0.515686
     38          6           0       -1.731652    1.652409   -0.152799
     39          6           0        1.842784    0.408975   -0.203985
     40          6           0        2.058666   -2.021114    0.311633
     41          6           0       -0.300560    1.568307   -0.234355
     42          6           0        0.417130    0.481538   -0.030105
     43          1           0      -10.913764    1.296661    0.121179
     44          1           0      -12.915179   -2.264734    1.826508
     45          1           0      -11.330389   -2.532695    1.079081
     46          1           0      -12.645646   -3.112678   -0.782420
     47          1           0      -10.062712   -0.654856    2.563641
     48          1           0      -10.692096    0.820666    2.650580
     49          1           0      -11.838878   -0.356766    3.326035
     50          1           0      -13.749425    0.474478    0.445033
     51          1           0      -13.554559    0.214095    2.244168
     52          1           0      -12.800361    1.632196    1.438677
     53          1           0       12.712558    2.271739   -0.273658
     54          1           0       12.871059    2.042598    1.524361
     55          1           0      -12.681025   -1.461371   -2.568789
     56          1           0       13.381310   -0.384387    1.136146
     57          1           0       -9.455252   -1.297896   -0.075201
     58          1           0       13.773806   -0.999806   -1.624479
     59          1           0       13.121819    0.637979   -2.023166
     60          1           0        9.248814    2.216276    1.201117
     61          1           0       10.091344    2.255402   -0.570443
     62          1           0       10.858908    3.339725    1.227328
     63          1           0       11.692973   -0.740349    2.430282
     64          1           0        9.870521    0.009859    2.420735
     65          1           0       11.346676    1.041729    3.186395
     66          1           0      -10.138468    1.101516   -2.793197
     67          1           0      -11.868555    1.873166   -2.374106
     68          1           0      -11.727912    0.239546   -3.479279
     69          1           0      -14.839204   -2.027717   -0.765108
     70          1           0        8.559188    0.311693    0.420905
     71          1           0       -8.738149    1.754407   -0.045507
     72          1           0       11.236351   -2.602740   -2.131857
     73          1           0       10.168845   -1.393420   -2.658556
     74          1           0       11.665231   -1.151166   -3.119008
     75          1           0       14.893156    1.128217    0.884808
     76          1           0        9.382386   -2.458314   -0.210931
     77          1           0       -5.519029   -0.998237   -0.418607
     78          1           0       -7.058891   -1.757001    0.911170
     79          1           0       -7.324203   -1.531554   -0.944833
     80          1           0       -6.709110    2.565931   -0.050912
     81          1           0        7.091327   -3.797728    1.655541
     82          1           0        6.161353   -4.355394   -0.201237
     83          1           0        8.034429   -4.319447    0.173997
     84          1           0        6.802724   -0.247629   -0.493477
     85          1           0       -4.282660    0.637580    0.033926
     86          1           0        4.775191   -2.497480    0.485282
     87          1           0       -4.495159    3.557806   -0.316378
     88          1           0        4.454431    0.548331   -0.261209
     89          1           0       -1.309450    4.204115   -1.494799
     90          1           0       -1.133879    4.331341    0.144719
     91          1           0       -2.673051    4.861251   -0.584341
     92          1           0       -2.147239    0.694189    0.024264
     93          1           0        2.197348    1.305225   -0.546753
     94          1           0        2.224461   -2.235144    1.484681
     95          1           0        0.937842   -2.053772   -0.219812
     96          1           0        2.750011   -2.886239   -0.206744
     97          1           0        0.129361    2.598305   -0.342282
     98          1           0       -0.231325   -0.404694    0.232715
 ---------------------------------------------------------------------

 SCF Done:  E(RCAM-B3LYP) =  -1706.82394837     A.U. after   14 cycles

 Excitation energies and oscillator strengths:

 Excited State   1:      Singlet-A      2.4668 eV  502.61 nm  f=2.7449  <S**2>=0.000
     155 ->158        -0.16741
     156 ->157         0.68501
 This state for optimization and/or second-order correction.
 Total Energy, E(TD-HF/TD-DFT) =  -1706.73329547
 Copying the excited state density for this state as the 1-particle RhoCI density.

 The electronic state is 1-A.
 Alpha  occ. eigenvalues --  -19.21192 -19.21057 -10.31469 -10.31186 -10.29817
 Alpha  occ. eigenvalues --  -10.29471 -10.29325 -10.29068 -10.28976 -10.28908
 Alpha  occ. eigenvalues --  -10.28477 -10.28397 -10.27938 -10.27605 -10.27470
 Alpha  occ. eigenvalues --  -10.27458 -10.27441 -10.27433 -10.27416 -10.27320
 Alpha  occ. eigenvalues --  -10.27025 -10.27010 -10.26913 -10.26548 -10.26483
 Alpha  occ. eigenvalues --  -10.26449 -10.26399 -10.26242 -10.26002 -10.25991
 Alpha  occ. eigenvalues --  -10.25842 -10.25815 -10.25712 -10.25681 -10.25649
 Alpha  occ. eigenvalues --  -10.25569 -10.25310 -10.24805 -10.24601 -10.23733
 Alpha  occ. eigenvalues --  -10.23585 -10.23574  -1.09533  -1.09487  -0.93872
 Alpha  occ. eigenvalues --   -0.93640  -0.92206  -0.91087  -0.90126  -0.89526
 Alpha  occ. eigenvalues --   -0.87372  -0.87018  -0.86485  -0.85126  -0.84355
 Alpha  occ. eigenvalues --   -0.82454  -0.81885  -0.80274  -0.79819  -0.77752
 Alpha  occ. eigenvalues --   -0.76717  -0.76675  -0.75480  -0.74743  -0.74666
 Alpha  occ. eigenvalues --   -0.74214  -0.73627  -0.73011  -0.72857  -0.70019
 Alpha  occ. eigenvalues --   -0.68435  -0.67277  -0.66560  -0.64209  -0.63739
 Alpha  occ. eigenvalues --   -0.62985  -0.62829  -0.62503  -0.61175  -0.59361
 Alpha  occ. eigenvalues --   -0.59087  -0.58480  -0.57755  -0.57555  -0.56098
 Alpha  occ. eigenvalues --   -0.55591  -0.55002  -0.54505  -0.54304  -0.53796
 Alpha  occ. eigenvalues --   -0.53354  -0.52698  -0.52197  -0.51762  -0.50758
 Alpha  occ. eigenvalues --   -0.50362  -0.49612  -0.49380  -0.48966  -0.48365
 Alpha  occ. eigenvalues --   -0.48135  -0.47945  -0.47790  -0.46960  -0.46833
 Alpha  occ. eigenvalues --   -0.46702  -0.46472  -0.46314  -0.45940  -0.45711
 Alpha  occ. eigenvalues --   -0.45477  -0.45292  -0.45252  -0.44695  -0.44315
 Alpha  occ. eigenvalues --   -0.44210  -0.43894  -0.43757  -0.43530  -0.43146
 Alpha  occ. eigenvalues --   -0.43129  -0.42805  -0.42407  -0.42299  -0.41716
 Alpha  occ. eigenvalues --   -0.41082  -0.40874  -0.40710  -0.40522  -0.40074
 Alpha  occ. eigenvalues --   -0.39974  -0.39660  -0.39405  -0.39152  -0.39112
 Alpha  occ. eigenvalues --   -0.38695  -0.38183  -0.38065  -0.37844  -0.37555
 Alpha  occ. eigenvalues --   -0.37130  -0.36993  -0.36777  -0.36576  -0.35448
 Alpha  occ. eigenvalues --   -0.35173  -0.34563  -0.34534  -0.31888  -0.31643
 Alpha  occ. eigenvalues --   -0.30996  -0.29091  -0.28334  -0.27330  -0.24050
 Alpha  occ. eigenvalues --   -0.20438
 Alpha virt. eigenvalues --   -0.04946  -0.00817   0.02865   0.04944   0.06168
 Alpha virt. eigenvalues --    0.08109   0.09852   0.11053   0.11322   0.11551
 Alpha virt. eigenvalues --    0.11714   0.12302   0.12558   0.13272   0.13324

 Mulliken charges:
               1
     1  O   -0.532974
     2  O   -0.548151
     3  C    0.009361
     4  C   -0.130696
     5  C   -0.191005
     6  C    0.152877
     7  C    0.149385
     8  C    0.011042
     9  C   -0.277137
    10  C   -0.288750
    11  C   -0.194112
    12  C   -0.160331
    13  C    0.168415
    14  C    0.031614
    15  C   -0.099451
    16  C   -0.221991
    17  C    0.062810
    18  C   -0.266390
    19  C   -0.283230
    20  C   -0.338576
    21  C   -0.061489
    22  C   -0.110869
    23  C   -0.367928
    24  C    0.102941
    25  C   -0.037639
    26  C   -0.355202
    27  C    0.065526
    28  C   -0.135017
    29  C   -0.348510
    30  C   -0.123539
    31  C   -0.058157
    32  C   -0.088956
    33  C   -0.130763
    34  C    0.141455
    35  C   -0.100523
    36  C    0.113278
    37  C   -0.399177
    38  C   -0.141550
    39  C   -0.106350
    40  C   -0.357526
    41  C   -0.055641
    42  C   -0.094810
    43  H    0.087157
    44  H    0.084165
    45  H    0.087056
    46  H    0.075734
    47  H    0.096254
    48  H    0.111097
    49  H    0.107255
    50  H    0.121648
    51  H    0.093344
    52  H    0.089386
    53  H    0.087221
    54  H    0.086198
    55  H    0.074366
    56  H    0.055280
    57  H    0.069215
    58  H    0.108924
    59  H    0.108587
    60  H    0.099101
    61  H    0.065149
    62  H    0.085629
    63  H    0.083273
    64  H    0.093268
    65  H    0.098268
    66  H    0.107564
    67  H    0.082296
    68  H    0.081757
    69  H    0.302530
    70  H    0.074113
    71  H    0.066511
    72  H    0.126672
    73  H    0.128787
    74  H    0.108694
    75  H    0.303006
    76  H    0.050487
    77  H    0.092195
    78  H    0.131873
    79  H    0.098263
    80  H    0.095447
    81  H    0.103816
    82  H    0.080139
    83  H    0.123786
    84  H    0.058610
    85  H    0.086348
    86  H    0.089731
    87  H    0.074948
    88  H    0.099433
    89  H    0.106520
    90  H    0.131260
    91  H    0.109295
    92  H    0.062276
    93  H    0.080767
    94  H    0.121734
    95  H    0.105726
    96  H    0.097199
    97  H    0.068631
    98  H    0.079749
 Sum of Mulliken charges =  -0.00000

 Dipole moment (field-independent basis, Debye):
    X=             -0.8704    Y=             -0.3391    Z=              0.0961  Tot=              0.9390
 Quadrupole moment (field-independent basis, Debye-Ang):
   XX=           -282.7367   YY=           -244.7875   ZZ=           -261.6022
   XY=             -0.2522   XZ=             30.4676   YZ=              4.5171

 Normal termination of Gaussian 16 at Mon Jul 15 20:07:55 2019.
