 Gaussian 16, Revision A.03,
 Gaussian 16:  ES64L-G16RevA.03 25-Dec-2016

 -------------------------------------
 # td=(NStates=1) CAM-B3LYP/6-31G(d,p)
 -------------------------------------

 --
 TD
 --
 Symbolic Z-matrix:
 Charge =  0 Multiplicity = 1

                         Standard orientation:
 ---------------------------------------------------------------------
 Center     Atomic      Atomic             Coordinates (Angstroms)
 Number     Number       Type             X           Y           Z
 ---------------------------------------------------------------------
      1          8           0      -14.127202   -2.130607    0.476736
      2          8           0       14.724866    0.989747    0.018021
      3          6           0      -11.728999    0.003944    1.338343
      4          6           0      -10.985686    0.374455    0.076873
      5          6           0      -11.980231   -1.572942    1.499740
      6          6           0      -12.650615   -2.142326    0.375267
      7          6           0      -11.572838   -0.287033   -1.141383
      8          6           0       11.100314    0.962290    1.142642
      9          6           0      -10.876031    0.535238    2.571533
     10          6           0      -13.129724    0.693322    1.346747
     11          6           0       12.436741    1.563760    0.704735
     12          6           0      -12.284428   -1.470292   -1.020240
     13          6           0       13.522119    0.433803    0.328560
     14          6           0       10.784513   -0.071580    0.081307
     15          6           0       -9.578052   -0.024364    0.078611
     16          6           0       13.041540   -0.284369   -0.933258
     17          6           0       11.574779   -0.631532   -0.838521
     18          6           0       10.124541    2.122025    1.160745
     19          6           0       11.146934    0.283726    2.545073
     20          6           0      -11.388363    0.404223   -2.487547
     21          6           0       -8.556547    0.801525   -0.323047
     22          6           0        9.289904   -0.409992    0.048271
     23          6           0       11.217022   -1.412180   -2.037769
     24          6           0       -7.099331    0.480812   -0.378586
     25          6           0        8.814279   -1.663487   -0.187609
     26          6           0       -6.678103   -0.929526   -0.296916
     27          6           0        7.338525   -2.074565    0.016029
     28          6           0       -6.258379    1.644511   -0.457879
     29          6           0        7.182510   -3.583034    0.359380
     30          6           0        6.379949   -1.185079   -0.219476
     31          6           0       -4.852116    1.548143   -0.490589
     32          6           0        5.024089   -1.542073   -0.171738
     33          6           0       -4.041730    2.599529   -0.562938
     34          6           0       -2.632309    2.659128   -0.615693
     35          6           0        4.029051   -0.583864   -0.442574
     36          6           0        2.585670   -0.889901   -0.270435
     37          6           0       -1.865117    3.956313   -0.701455
     38          6           0       -1.790765    1.506629   -0.329700
     39          6           0        1.759060    0.148764   -0.548235
     40          6           0        2.092948   -2.212244   -0.052030
     41          6           0       -0.409029    1.469289   -0.432953
     42          6           0        0.350846    0.233505   -0.372593
     43          1           0      -11.200139    1.389514   -0.003061
     44          1           0      -12.421268   -1.898321    2.308404
     45          1           0      -11.074272   -2.064996    1.409150
     46          1           0      -12.344720   -3.152057    0.295165
     47          1           0       -9.962683   -0.158019    2.665910
     48          1           0      -10.570452    1.620360    2.246784
     49          1           0      -11.337592    0.304282    3.459343
     50          1           0      -13.824805    0.428095    0.448684
     51          1           0      -13.787342    0.546717    2.175156
     52          1           0      -13.203216    1.890135    1.223286
     53          1           0       12.305203    2.243856   -0.176945
     54          1           0       12.703189    2.355846    1.477375
     55          1           0      -12.787578   -1.814880   -2.045891
     56          1           0       13.474811   -0.403135    1.178416
     57          1           0       -9.129014   -1.042193    0.300080
     58          1           0       13.691909   -1.113889   -0.902287
     59          1           0       13.219122    0.349622   -1.651866
     60          1           0        9.263592    2.084821    2.081999
     61          1           0        9.537262    2.363918    0.074752
     62          1           0       10.650908    3.121173    1.589108
     63          1           0       11.897711   -0.631056    2.377628
     64          1           0       10.153680   -0.128945    2.642799
     65          1           0       11.555389    0.979552    3.231937
     66          1           0      -10.377006    0.656319   -2.388180
     67          1           0      -12.052905    1.315525   -2.565950
     68          1           0      -11.730168   -0.288596   -3.148391
     69          1           0      -14.498777   -2.822219   -0.337717
     70          1           0        8.724807    0.540864    0.361970
     71          1           0       -8.800778    1.690755   -0.692851
     72          1           0       11.404779   -2.497544   -1.745144
     73          1           0       10.185198   -1.435258   -2.356228
     74          1           0       11.795038   -0.974481   -2.594444
     75          1           0       15.048293    1.664110    0.729962
     76          1           0        9.504169   -2.359244   -0.204772
     77          1           0       -5.758530   -1.201984   -0.181465
     78          1           0       -6.940105   -1.392313    0.614158
     79          1           0       -7.040207   -1.565718   -1.198731
     80          1           0       -6.722763    2.622726   -0.284361
     81          1           0        7.263909   -3.611601    1.577415
     82          1           0        6.251493   -3.981557   -0.113090
     83          1           0        8.099016   -4.098797   -0.125500
     84          1           0        6.645257   -0.005724   -0.452209
     85          1           0       -4.319851    0.578111   -0.620946
     86          1           0        4.619691   -2.409803    0.090058
     87          1           0       -4.554100    3.729549   -0.536032
     88          1           0        4.398658    0.425142   -0.592354
     89          1           0       -1.164316    3.913716   -1.490781
     90          1           0       -1.164846    4.164533   -0.043211
     91          1           0       -2.674219    4.778298   -0.876915
     92          1           0       -2.363920    0.524496   -0.125616
     93          1           0        2.241798    1.252393   -0.587732
     94          1           0        2.087428   -2.469583    1.225390
     95          1           0        1.053506   -2.315093   -0.641275
     96          1           0        2.834610   -3.085023   -0.461979
     97          1           0       -0.016932    2.420246   -0.628882
     98          1           0       -0.190880   -0.633064   -0.132329
 ---------------------------------------------------------------------

 SCF Done:  E(RCAM-B3LYP) =  -1706.85606247     A.U. after   15 cycles

 Excitation energies and oscillator strengths:

 Excited State   1:      Singlet-A      2.1300 eV  582.08 nm  f=2.7859  <S**2>=0.000
     155 ->158         0.12588
     156 ->157         0.69881
 This state for optimization and/or second-order correction.
 Total Energy, E(TD-HF/TD-DFT) =  -1706.77778526
 Copying the excited state density for this state as the 1-particle RhoCI density.

 The electronic state is 1-A.
 Alpha  occ. eigenvalues --  -19.22477 -19.21583 -10.31271 -10.30296 -10.29306
 Alpha  occ. eigenvalues --  -10.28882 -10.28278 -10.28139 -10.27559 -10.27487
 Alpha  occ. eigenvalues --  -10.27296 -10.27138 -10.27011 -10.26785 -10.26676
 Alpha  occ. eigenvalues --  -10.26660 -10.26416 -10.26407 -10.26381 -10.26317
 Alpha  occ. eigenvalues --  -10.26259 -10.26154 -10.26021 -10.25948 -10.25922
 Alpha  occ. eigenvalues --  -10.25855 -10.25773 -10.25636 -10.25487 -10.25334
 Alpha  occ. eigenvalues --  -10.25258 -10.24967 -10.24874 -10.24847 -10.24827
 Alpha  occ. eigenvalues --  -10.24793 -10.24553 -10.24452 -10.24176 -10.23353
 Alpha  occ. eigenvalues --  -10.23161 -10.23058  -1.10674  -1.05003  -0.93909
 Alpha  occ. eigenvalues --   -0.93772  -0.91777  -0.91287  -0.89879  -0.89369
 Alpha  occ. eigenvalues --   -0.88450  -0.86951  -0.86131  -0.85079  -0.84439
 Alpha  occ. eigenvalues --   -0.83328  -0.81907  -0.81350  -0.80072  -0.78094
 Alpha  occ. eigenvalues --   -0.77680  -0.76634  -0.76094  -0.75933  -0.75039
 Alpha  occ. eigenvalues --   -0.74728  -0.74324  -0.74268  -0.72215  -0.70297
 Alpha  occ. eigenvalues --   -0.67702  -0.66736  -0.65839  -0.64810  -0.63968
 Alpha  occ. eigenvalues --   -0.63154  -0.62765  -0.62385  -0.61472  -0.60245
 Alpha  occ. eigenvalues --   -0.59198  -0.58627  -0.57439  -0.56887  -0.55975
 Alpha  occ. eigenvalues --   -0.55652  -0.55115  -0.54982  -0.54083  -0.53504
 Alpha  occ. eigenvalues --   -0.53003  -0.52648  -0.52401  -0.52014  -0.51304
 Alpha  occ. eigenvalues --   -0.50940  -0.50086  -0.49896  -0.49381  -0.49320
 Alpha  occ. eigenvalues --   -0.49117  -0.48723  -0.48304  -0.48112  -0.47636
 Alpha  occ. eigenvalues --   -0.47459  -0.47099  -0.46768  -0.46661  -0.46384
 Alpha  occ. eigenvalues --   -0.46116  -0.45795  -0.45337  -0.44697  -0.44471
 Alpha  occ. eigenvalues --   -0.44426  -0.44314  -0.43791  -0.43598  -0.43492
 Alpha  occ. eigenvalues --   -0.43125  -0.42856  -0.42292  -0.42013  -0.41733
 Alpha  occ. eigenvalues --   -0.41329  -0.41103  -0.41033  -0.40977  -0.40718
 Alpha  occ. eigenvalues --   -0.40533  -0.39759  -0.39652  -0.39409  -0.39341
 Alpha  occ. eigenvalues --   -0.38948  -0.38896  -0.38391  -0.37846  -0.37682
 Alpha  occ. eigenvalues --   -0.37617  -0.37430  -0.36739  -0.35377  -0.35010
 Alpha  occ. eigenvalues --   -0.34798  -0.34238  -0.33400  -0.31750  -0.31315
 Alpha  occ. eigenvalues --   -0.31214  -0.28983  -0.28187  -0.26437  -0.23616
 Alpha  occ. eigenvalues --   -0.18881
 Alpha virt. eigenvalues --   -0.05579   0.00070   0.02949   0.06068   0.07382
 Alpha virt. eigenvalues --    0.09069   0.09991   0.11240   0.11635   0.11741
 Alpha virt. eigenvalues --    0.11931   0.12304   0.12472   0.13072   0.13563

 Mulliken charges:
               1
     1  O   -0.560429
     2  O   -0.556367
     3  C    0.016078
     4  C   -0.128540
     5  C   -0.173052
     6  C    0.141638
     7  C    0.074844
     8  C    0.015712
     9  C   -0.289780
    10  C   -0.315776
    11  C   -0.211580
    12  C   -0.145498
    13  C    0.174869
    14  C    0.042166
    15  C   -0.068548
    16  C   -0.211428
    17  C    0.000550
    18  C   -0.310198
    19  C   -0.278093
    20  C   -0.328761
    21  C   -0.094621
    22  C   -0.099474
    23  C   -0.309500
    24  C    0.090586
    25  C   -0.113397
    26  C   -0.374165
    27  C    0.061972
    28  C   -0.133498
    29  C   -0.351321
    30  C   -0.103692
    31  C   -0.060947
    32  C   -0.060503
    33  C   -0.111705
    34  C    0.079970
    35  C   -0.116648
    36  C    0.147829
    37  C   -0.379291
    38  C   -0.113646
    39  C   -0.125897
    40  C   -0.370615
    41  C   -0.068024
    42  C   -0.100570
    43  H    0.107183
    44  H    0.115648
    45  H    0.105399
    46  H    0.087378
    47  H    0.086588
    48  H    0.096856
    49  H    0.108311
    50  H    0.120251
    51  H    0.111531
    52  H    0.058965
    53  H    0.097688
    54  H    0.059412
    55  H    0.054745
    56  H    0.049839
    57  H    0.087297
    58  H    0.119835
    59  H    0.129809
    60  H    0.075637
    61  H    0.097615
    62  H    0.086213
    63  H    0.085880
    64  H    0.119546
    65  H    0.108044
    66  H    0.120509
    67  H    0.109115
    68  H    0.114519
    69  H    0.298191
    70  H    0.089685
    71  H    0.069885
    72  H    0.105482
    73  H    0.118867
    74  H    0.111349
    75  H    0.316483
    76  H    0.073979
    77  H    0.116495
    78  H    0.125527
    79  H    0.114613
    80  H    0.093526
    81  H    0.116546
    82  H    0.120353
    83  H    0.110193
    84  H    0.081449
    85  H    0.090540
    86  H    0.064547
    87  H    0.055839
    88  H    0.077204
    89  H    0.126355
    90  H    0.139511
    91  H    0.096349
    92  H    0.063132
    93  H    0.068765
    94  H    0.093383
    95  H    0.115186
    96  H    0.101702
    97  H    0.067966
    98  H    0.082439
 Sum of Mulliken charges =  -0.00000

 Dipole moment (field-independent basis, Debye):
    X=              1.4681    Y=             -1.0578    Z=              0.5995  Tot=              1.9062
 Quadrupole moment (field-independent basis, Debye-Ang):
   XX=           -265.9843   YY=           -239.2760   ZZ=           -264.7421
   XY=             21.8733   XZ=             29.2068   YZ=              1.9154

 Normal termination of Gaussian 16 at Tue Jul 16 05:28:39 2019.
