 Gaussian 16, Revision A.03,
 Gaussian 16:  ES64L-G16RevA.03 25-Dec-2016

 -------------------------------------
 # td=(NStates=1) CAM-B3LYP/6-31G(d,p)
 -------------------------------------

 --
 TD
 --
 Symbolic Z-matrix:
 Charge =  0 Multiplicity = 1

                         Standard orientation:
 ---------------------------------------------------------------------
 Center     Atomic      Atomic             Coordinates (Angstroms)
 Number     Number       Type             X           Y           Z
 ---------------------------------------------------------------------
      1          8           0      -14.068862   -1.974121    0.522014
      2          8           0       14.697742    0.916379    0.349920
      3          6           0      -11.758338    0.002483    1.376006
      4          6           0      -10.930518    0.279437    0.082854
      5          6           0      -11.895468   -1.519637    1.489397
      6          6           0      -12.700400   -2.157288    0.232740
      7          6           0      -11.557324   -0.364524   -1.208750
      8          6           0       10.940666    0.795823    1.302627
      9          6           0      -10.788875    0.518936    2.481042
     10          6           0      -12.996746    0.707306    1.345313
     11          6           0       12.305142    1.413060    1.048755
     12          6           0      -12.285560   -1.439291   -1.064526
     13          6           0       13.372757    0.490826    0.515816
     14          6           0       10.568776   -0.010695    0.037073
     15          6           0       -9.459629   -0.060861    0.079851
     16          6           0       12.824874    0.052144   -0.963580
     17          6           0       11.356933   -0.224672   -1.026209
     18          6           0       10.042227    2.079387    1.510275
     19          6           0       11.058447   -0.066445    2.589333
     20          6           0      -11.207386    0.224404   -2.524761
     21          6           0       -8.410887    0.825094   -0.087429
     22          6           0        9.154473   -0.544926    0.136405
     23          6           0       10.957629   -0.892614   -2.266294
     24          6           0       -7.036729    0.548399    0.007369
     25          6           0        8.847275   -1.761080   -0.231887
     26          6           0       -6.651308   -0.945343    0.163987
     27          6           0        7.451900   -2.194096   -0.271910
     28          6           0       -6.158266    1.561359   -0.245382
     29          6           0        7.215826   -3.690196   -0.244683
     30          6           0        6.386626   -1.309615   -0.311670
     31          6           0       -4.770937    1.456084   -0.362514
     32          6           0        5.042145   -1.566622   -0.229342
     33          6           0       -3.992054    2.575350   -0.666292
     34          6           0       -2.566034    2.711708   -0.794864
     35          6           0        4.020029   -0.567874   -0.346865
     36          6           0        2.592838   -0.757044   -0.290673
     37          6           0       -2.011044    4.042438   -0.997028
     38          6           0       -1.706313    1.507288   -0.716213
     39          6           0        1.847915    0.276822   -0.406435
     40          6           0        2.105445   -2.177287    0.109457
     41          6           0       -0.264264    1.519637   -0.795938
     42          6           0        0.477035    0.331510   -0.410962
     43          1           0      -11.020400    1.305167    0.175678
     44          1           0      -12.387048   -1.937962    2.329948
     45          1           0      -10.905516   -1.829090    1.629052
     46          1           0      -12.418099   -3.148006    0.043144
     47          1           0       -9.800330   -0.132589    2.555760
     48          1           0      -10.708425    1.583818    2.574168
     49          1           0      -11.401904    0.339634    3.429158
     50          1           0      -13.725688    0.387036    0.467985
     51          1           0      -13.347557    0.640726    2.302709
     52          1           0      -12.906165    1.773092    1.267267
     53          1           0       12.374935    2.291749    0.207856
     54          1           0       12.501558    1.832845    2.073772
     55          1           0      -12.681318   -1.922250   -2.028614
     56          1           0       13.322887   -0.349266    1.215605
     57          1           0       -9.252243   -1.069097    0.107683
     58          1           0       13.362099   -0.717274   -1.392347
     59          1           0       13.189763    0.746288   -1.726506
     60          1           0        9.070095    1.676123    1.623388
     61          1           0       10.128138    2.865176    0.525564
     62          1           0       10.354079    2.540462    2.565176
     63          1           0       11.695477   -0.969787    2.407829
     64          1           0        9.987920   -0.627396    2.589293
     65          1           0       11.266334    0.493538    3.444909
     66          1           0      -10.161298    0.190386   -2.665749
     67          1           0      -11.518583    1.304045   -2.378722
     68          1           0      -11.733076   -0.229350   -3.410128
     69          1           0      -14.627428   -2.312148   -0.298445
     70          1           0        8.338636   -0.052013    0.657920
     71          1           0       -8.629458    1.993210   -0.184979
     72          1           0       11.411693   -2.031867   -2.221427
     73          1           0        9.880243   -0.992435   -2.331447
     74          1           0       11.243932   -0.337139   -3.391336
     75          1           0       15.197125    0.933566    1.309847
     76          1           0        9.602330   -2.516547   -0.522910
     77          1           0       -5.580791   -1.300002    0.412426
     78          1           0       -7.087159   -1.319465    0.958972
     79          1           0       -7.361181   -1.618670   -0.626172
     80          1           0       -6.593930    2.428064   -0.505200
     81          1           0        6.973922   -3.996142    0.728670
     82          1           0        6.533850   -3.797526   -0.930466
     83          1           0        8.095520   -4.297632   -0.693741
     84          1           0        6.813583   -0.227079   -0.512398
     85          1           0       -4.377631    0.469526   -0.265994
     86          1           0        4.753944   -2.733506   -0.285326
     87          1           0       -4.346121    3.672795   -0.931515
     88          1           0        4.529908    0.411497   -0.435055
     89          1           0       -1.421060    4.013171   -1.673779
     90          1           0       -1.329097    4.197673   -0.147116
     91          1           0       -2.820821    4.844794   -1.330868
     92          1           0       -2.133050    0.495050   -0.196513
     93          1           0        2.337446    1.213377   -0.950138
     94          1           0        2.421826   -2.488084    1.082091
     95          1           0        1.061589   -2.344320    0.118418
     96          1           0        2.414867   -2.964831   -0.746191
     97          1           0        0.043277    2.546089   -1.125266
     98          1           0       -0.187907   -0.481795   -0.135977
 ---------------------------------------------------------------------

 SCF Done:  E(RCAM-B3LYP) =  -1706.89989578     A.U. after   15 cycles

 Excitation energies and oscillator strengths:

 Excited State   1:      Singlet-A      2.0068 eV  617.82 nm  f=2.9416  <S**2>=0.000
     155 ->158         0.13977
     156 ->157         0.69653
     156 <-157        -0.10016
 This state for optimization and/or second-order correction.
 Total Energy, E(TD-HF/TD-DFT) =  -1706.82614668
 Copying the excited state density for this state as the 1-particle RhoCI density.

 The electronic state is 1-A.
 Alpha  occ. eigenvalues --  -19.22216 -19.22079 -10.30653 -10.30265 -10.28016
 Alpha  occ. eigenvalues --  -10.27678 -10.27567 -10.27489 -10.27356 -10.27348
 Alpha  occ. eigenvalues --  -10.27155 -10.27096 -10.26991 -10.26917 -10.26895
 Alpha  occ. eigenvalues --  -10.26760 -10.26741 -10.26631 -10.26628 -10.26574
 Alpha  occ. eigenvalues --  -10.26319 -10.26259 -10.26064 -10.25964 -10.25875
 Alpha  occ. eigenvalues --  -10.25873 -10.25826 -10.25559 -10.25542 -10.25299
 Alpha  occ. eigenvalues --  -10.25185 -10.25047 -10.25014 -10.24974 -10.24862
 Alpha  occ. eigenvalues --  -10.24814 -10.24712 -10.24442 -10.24356 -10.24021
 Alpha  occ. eigenvalues --  -10.23983 -10.22250  -1.08578  -1.07963  -0.93526
 Alpha  occ. eigenvalues --   -0.93442  -0.92239  -0.91664  -0.90792  -0.90167
 Alpha  occ. eigenvalues --   -0.87329  -0.87234  -0.86249  -0.85378  -0.84320
 Alpha  occ. eigenvalues --   -0.82219  -0.81956  -0.80193  -0.79899  -0.78439
 Alpha  occ. eigenvalues --   -0.77556  -0.76257  -0.76107  -0.75838  -0.75650
 Alpha  occ. eigenvalues --   -0.75140  -0.74507  -0.74417  -0.72525  -0.70961
 Alpha  occ. eigenvalues --   -0.68611  -0.68095  -0.65820  -0.64999  -0.64070
 Alpha  occ. eigenvalues --   -0.62847  -0.62030  -0.61609  -0.60389  -0.59958
 Alpha  occ. eigenvalues --   -0.58588  -0.58095  -0.57919  -0.57178  -0.55527
 Alpha  occ. eigenvalues --   -0.55426  -0.55108  -0.54562  -0.54033  -0.53669
 Alpha  occ. eigenvalues --   -0.53347  -0.52442  -0.51983  -0.51781  -0.51375
 Alpha  occ. eigenvalues --   -0.50762  -0.50403  -0.49990  -0.49682  -0.49419
 Alpha  occ. eigenvalues --   -0.49244  -0.48767  -0.48343  -0.47767  -0.47617
 Alpha  occ. eigenvalues --   -0.47158  -0.47077  -0.46583  -0.45909  -0.45845
 Alpha  occ. eigenvalues --   -0.45414  -0.45151  -0.44992  -0.44875  -0.44742
 Alpha  occ. eigenvalues --   -0.44515  -0.44062  -0.43755  -0.43624  -0.43009
 Alpha  occ. eigenvalues --   -0.42788  -0.42532  -0.42403  -0.42238  -0.41805
 Alpha  occ. eigenvalues --   -0.41588  -0.41169  -0.40551  -0.40422  -0.40346
 Alpha  occ. eigenvalues --   -0.40153  -0.40018  -0.39817  -0.39666  -0.39408
 Alpha  occ. eigenvalues --   -0.39227  -0.39043  -0.38682  -0.38475  -0.38182
 Alpha  occ. eigenvalues --   -0.38034  -0.37132  -0.36098  -0.35638  -0.35469
 Alpha  occ. eigenvalues --   -0.34868  -0.33701  -0.33052  -0.32272  -0.31723
 Alpha  occ. eigenvalues --   -0.31016  -0.29878  -0.28559  -0.26821  -0.23381
 Alpha  occ. eigenvalues --   -0.18853
 Alpha virt. eigenvalues --   -0.06130  -0.01113   0.02940   0.06016   0.07908
 Alpha virt. eigenvalues --    0.08897   0.10050   0.10670   0.11149   0.12034
 Alpha virt. eigenvalues --    0.12216   0.12647   0.12926   0.13090   0.13603

 Mulliken charges:
               1
     1  O   -0.536650
     2  O   -0.562658
     3  C    0.002608
     4  C   -0.107271
     5  C   -0.165347
     6  C    0.137490
     7  C    0.123743
     8  C   -0.034033
     9  C   -0.311304
    10  C   -0.283093
    11  C   -0.153998
    12  C   -0.164777
    13  C    0.185900
    14  C    0.047247
    15  C   -0.100101
    16  C   -0.244235
    17  C    0.102201
    18  C   -0.273392
    19  C   -0.303137
    20  C   -0.349141
    21  C   -0.110445
    22  C   -0.142345
    23  C   -0.360068
    24  C    0.138085
    25  C   -0.078979
    26  C   -0.382747
    27  C    0.039224
    28  C   -0.101027
    29  C   -0.360235
    30  C   -0.110274
    31  C   -0.075000
    32  C   -0.102880
    33  C   -0.103893
    34  C    0.053847
    35  C   -0.132800
    36  C    0.131348
    37  C   -0.365306
    38  C   -0.121527
    39  C   -0.112839
    40  C   -0.367062
    41  C   -0.084733
    42  C   -0.107178
    43  H    0.079889
    44  H    0.102582
    45  H    0.086890
    46  H    0.088912
    47  H    0.103641
    48  H    0.109154
    49  H    0.080044
    50  H    0.118247
    51  H    0.103231
    52  H    0.082493
    53  H    0.070949
    54  H    0.059131
    55  H    0.051077
    56  H    0.060472
    57  H    0.077345
    58  H    0.112240
    59  H    0.112697
    60  H    0.106118
    61  H    0.095742
    62  H    0.087345
    63  H    0.115362
    64  H    0.088203
    65  H    0.114397
    66  H    0.131100
    67  H    0.105937
    68  H    0.102438
    69  H    0.307683
    70  H    0.102152
    71  H    0.072244
    72  H    0.093455
    73  H    0.131538
    74  H    0.078585
    75  H    0.309286
    76  H    0.088647
    77  H    0.104333
    78  H    0.140078
    79  H    0.096053
    80  H    0.072444
    81  H    0.134184
    82  H    0.133222
    83  H    0.090465
    84  H    0.077533
    85  H    0.091386
    86  H    0.077546
    87  H    0.065625
    88  H    0.085281
    89  H    0.144026
    90  H    0.134781
    91  H    0.101742
    92  H    0.068796
    93  H    0.082067
    94  H    0.133474
    95  H    0.113000
    96  H    0.101063
    97  H    0.080301
    98  H    0.090157
 Sum of Mulliken charges =  -0.00000

 Dipole moment (field-independent basis, Debye):
    X=              0.0191    Y=             -1.3859    Z=              0.3003  Tot=              1.4182
 Quadrupole moment (field-independent basis, Debye-Ang):
   XX=           -268.4003   YY=           -243.9504   ZZ=           -259.3743
   XY=             -3.6029   XZ=             36.5126   YZ=              0.5894

 Normal termination of Gaussian 16 at Tue Jul 16 10:19:50 2019.
