 Gaussian 16, Revision A.03,
 Gaussian 16:  ES64L-G16RevA.03 25-Dec-2016

 -------------------------------------
 # td=(NStates=1) CAM-B3LYP/6-31G(d,p)
 -------------------------------------

 --
 TD
 --
 Symbolic Z-matrix:
 Charge =  0 Multiplicity = 1

                         Standard orientation:
 ---------------------------------------------------------------------
 Center     Atomic      Atomic             Coordinates (Angstroms)
 Number     Number       Type             X           Y           Z
 ---------------------------------------------------------------------
      1          8           0      -14.177763   -1.882834    0.371165
      2          8           0       14.703460    1.106188    0.171715
      3          6           0      -11.598325   -0.026381    1.406919
      4          6           0      -10.986435    0.453037    0.016435
      5          6           0      -11.947770   -1.595351    1.282974
      6          6           0      -12.802051   -1.990516    0.057314
      7          6           0      -11.618179   -0.264698   -1.247534
      8          6           0       10.949316    0.956363    1.083655
      9          6           0      -10.842318    0.223476    2.479940
     10          6           0      -13.014126    0.685994    1.526330
     11          6           0       12.402527    1.566669    0.788531
     12          6           0      -12.449496   -1.275409   -1.195440
     13          6           0       13.549772    0.567271    0.423348
     14          6           0       10.679424   -0.062842   -0.028870
     15          6           0       -9.445793   -0.015691   -0.018266
     16          6           0       13.014884   -0.026955   -0.917787
     17          6           0       11.553626   -0.485514   -0.957854
     18          6           0        9.955830    2.243174    0.998140
     19          6           0       10.757164    0.328944    2.442085
     20          6           0      -11.267401    0.567197   -2.515975
     21          6           0       -8.546945    0.861440   -0.242625
     22          6           0        9.227854   -0.580003    0.072647
     23          6           0       11.230486   -1.414495   -2.045965
     24          6           0       -7.085211    0.515125   -0.170021
     25          6           0        8.812185   -1.797186   -0.152433
     26          6           0       -6.776861   -0.947677    0.088534
     27          6           0        7.419831   -2.191793   -0.050833
     28          6           0       -6.110666    1.450959   -0.293525
     29          6           0        7.127575   -3.634436    0.008127
     30          6           0        6.450962   -1.244039   -0.060595
     31          6           0       -4.731276    1.331158   -0.372730
     32          6           0        5.081098   -1.536022   -0.093842
     33          6           0       -3.967764    2.510127   -0.562817
     34          6           0       -2.527984    2.555639   -0.504747
     35          6           0        4.087739   -0.609669   -0.353083
     36          6           0        2.694610   -0.880739   -0.145153
     37          6           0       -1.953222    3.962545   -0.896035
     38          6           0       -1.751210    1.445646   -0.447096
     39          6           0        1.899728    0.269455   -0.377162
     40          6           0        2.097742   -2.233713    0.178045
     41          6           0       -0.355877    1.382485   -0.520254
     42          6           0        0.480467    0.254531   -0.289145
     43          1           0      -10.959817    1.563817   -0.038771
     44          1           0      -12.198665   -1.766925    2.373537
     45          1           0      -10.974039   -2.340095    1.101044
     46          1           0      -12.632257   -3.131589   -0.154000
     47          1           0       -9.831545   -0.248300    2.464679
     48          1           0      -10.724180    1.413237    2.845293
     49          1           0      -11.253568   -0.306760    3.410556
     50          1           0      -13.646855    0.393303    0.602990
     51          1           0      -13.504835    0.303039    2.243801
     52          1           0      -12.644674    1.688535    1.488680
     53          1           0       12.558966    2.267869   -0.139702
     54          1           0       12.583545    2.211304    1.618554
     55          1           0      -12.876763   -1.550715   -2.131849
     56          1           0       13.734032   -0.385806    1.306353
     57          1           0       -9.441651   -1.187891   -0.132264
     58          1           0       13.654097   -1.012252   -1.198883
     59          1           0       13.314587    0.543406   -1.746247
     60          1           0        9.056004    2.103224    1.598945
     61          1           0        9.756070    2.527965   -0.157344
     62          1           0       10.569722    2.929493    1.411757
     63          1           0       11.424900   -0.717192    2.463910
     64          1           0        9.665113    0.011295    2.590576
     65          1           0       11.099451    0.934789    3.248236
     66          1           0      -10.119384    0.602067   -2.690164
     67          1           0      -11.665192    1.393363   -2.468803
     68          1           0      -11.806609    0.170500   -3.444933
     69          1           0      -14.528955   -2.394097   -0.245504
     70          1           0        8.511471    0.116166    0.444327
     71          1           0       -8.932494    1.817360   -0.199476
     72          1           0       11.657721   -2.428435   -1.706756
     73          1           0       10.197676   -1.517343   -2.438335
     74          1           0       11.832416   -1.262764   -2.880365
     75          1           0       14.877779    1.452433    1.179344
     76          1           0        9.578032   -2.600792   -0.214771
     77          1           0       -5.647987   -1.151394    0.190758
     78          1           0       -7.271165   -1.140252    1.027867
     79          1           0       -7.127355   -1.705772   -0.718732
     80          1           0       -6.625638    2.488806   -0.247255
     81          1           0        6.660522   -4.045552    0.907372
     82          1           0        6.368953   -3.858174   -0.800768
     83          1           0        7.956608   -4.346935   -0.347322
     84          1           0        6.773353   -0.236647   -0.404501
     85          1           0       -4.362506    0.282835   -0.291394
     86          1           0        4.861536   -2.515004    0.081701
     87          1           0       -4.694207    3.429277   -0.430803
     88          1           0        4.253784    0.399615   -0.582756
     89          1           0       -1.488799    4.208999   -1.892469
     90          1           0       -1.095817    4.359935   -0.156430
     91          1           0       -2.683462    4.819554   -0.932339
     92          1           0       -2.366338    0.410713   -0.132522
     93          1           0        2.337931    1.202258   -0.637146
     94          1           0        2.062751   -2.404993    1.229066
     95          1           0        0.903339   -2.158068    0.139037
     96          1           0        2.557233   -3.040611   -0.372986
     97          1           0        0.033660    2.359756   -0.746267
     98          1           0       -0.105540   -0.646046    0.011019
 ---------------------------------------------------------------------

 SCF Done:  E(RCAM-B3LYP) =  -1706.93112053     A.U. after   15 cycles

 Excitation energies and oscillator strengths:

 Excited State   1:      Singlet-A      2.1954 eV  564.75 nm  f=2.9787  <S**2>=0.000
     155 ->158         0.14806
     156 ->157         0.69282
 This state for optimization and/or second-order correction.
 Total Energy, E(TD-HF/TD-DFT) =  -1706.85044105
 Copying the excited state density for this state as the 1-particle RhoCI density.

 The electronic state is 1-A.
 Alpha  occ. eigenvalues --  -19.23918 -19.20510 -10.32609 -10.32094 -10.28098
 Alpha  occ. eigenvalues --  -10.27763 -10.27682 -10.27345 -10.27158 -10.27109
 Alpha  occ. eigenvalues --  -10.27019 -10.27018 -10.26955 -10.26841 -10.26791
 Alpha  occ. eigenvalues --  -10.26573 -10.26498 -10.26476 -10.26384 -10.26194
 Alpha  occ. eigenvalues --  -10.26129 -10.26067 -10.26049 -10.26027 -10.25885
 Alpha  occ. eigenvalues --  -10.25875 -10.25869 -10.25774 -10.25643 -10.25504
 Alpha  occ. eigenvalues --  -10.25504 -10.25226 -10.25118 -10.25023 -10.24912
 Alpha  occ. eigenvalues --  -10.24799 -10.24737 -10.24728 -10.24688 -10.24626
 Alpha  occ. eigenvalues --  -10.24626 -10.22076  -1.14496  -1.12384  -0.93306
 Alpha  occ. eigenvalues --   -0.92788  -0.91732  -0.91215  -0.90423  -0.89591
 Alpha  occ. eigenvalues --   -0.87945  -0.86746  -0.86592  -0.85371  -0.83865
 Alpha  occ. eigenvalues --   -0.82403  -0.81653  -0.80311  -0.80012  -0.77915
 Alpha  occ. eigenvalues --   -0.76582  -0.76200  -0.76151  -0.75927  -0.75370
 Alpha  occ. eigenvalues --   -0.75251  -0.74836  -0.74583  -0.72648  -0.70037
 Alpha  occ. eigenvalues --   -0.68129  -0.67567  -0.65861  -0.64391  -0.63871
 Alpha  occ. eigenvalues --   -0.62506  -0.62095  -0.61471  -0.60920  -0.59460
 Alpha  occ. eigenvalues --   -0.59180  -0.58751  -0.58343  -0.57592  -0.56121
 Alpha  occ. eigenvalues --   -0.56003  -0.55271  -0.54810  -0.54330  -0.53751
 Alpha  occ. eigenvalues --   -0.53598  -0.53286  -0.52352  -0.52101  -0.50469
 Alpha  occ. eigenvalues --   -0.50365  -0.50038  -0.49515  -0.49370  -0.49262
 Alpha  occ. eigenvalues --   -0.49070  -0.48803  -0.48285  -0.48123  -0.47826
 Alpha  occ. eigenvalues --   -0.47363  -0.47120  -0.46857  -0.46515  -0.46367
 Alpha  occ. eigenvalues --   -0.46257  -0.45822  -0.45497  -0.45477  -0.45101
 Alpha  occ. eigenvalues --   -0.44780  -0.43897  -0.43818  -0.43478  -0.43326
 Alpha  occ. eigenvalues --   -0.43096  -0.42710  -0.42527  -0.41980  -0.41701
 Alpha  occ. eigenvalues --   -0.41464  -0.41330  -0.41160  -0.40890  -0.40574
 Alpha  occ. eigenvalues --   -0.40267  -0.40129  -0.39961  -0.39824  -0.39166
 Alpha  occ. eigenvalues --   -0.39057  -0.38589  -0.38364  -0.38025  -0.37274
 Alpha  occ. eigenvalues --   -0.37252  -0.36949  -0.36414  -0.36099  -0.35152
 Alpha  occ. eigenvalues --   -0.34533  -0.34102  -0.33496  -0.32364  -0.31896
 Alpha  occ. eigenvalues --   -0.31159  -0.30204  -0.29075  -0.26846  -0.23667
 Alpha  occ. eigenvalues --   -0.19122
 Alpha virt. eigenvalues --   -0.05410  -0.00432   0.03584   0.06256   0.07764
 Alpha virt. eigenvalues --    0.08790   0.09520   0.11219   0.11343   0.12296
 Alpha virt. eigenvalues --    0.12539   0.13036   0.13403   0.13848   0.14239

 Mulliken charges:
               1
     1  O   -0.504217
     2  O   -0.493324
     3  C    0.034707
     4  C   -0.149354
     5  C   -0.169998
     6  C    0.096863
     7  C    0.113626
     8  C   -0.014777
     9  C   -0.297072
    10  C   -0.272409
    11  C   -0.216692
    12  C   -0.121252
    13  C    0.182175
    14  C    0.062424
    15  C   -0.075090
    16  C   -0.246908
    17  C    0.079300
    18  C   -0.300476
    19  C   -0.289791
    20  C   -0.343258
    21  C   -0.078861
    22  C   -0.116039
    23  C   -0.372118
    24  C    0.070583
    25  C   -0.105771
    26  C   -0.366336
    27  C    0.110706
    28  C   -0.114991
    29  C   -0.399728
    30  C   -0.124418
    31  C   -0.053625
    32  C   -0.090618
    33  C   -0.136801
    34  C    0.092239
    35  C   -0.107011
    36  C    0.120471
    37  C   -0.380798
    38  C   -0.089201
    39  C   -0.126870
    40  C   -0.375779
    41  C   -0.096927
    42  C   -0.091136
    43  H    0.080775
    44  H    0.102472
    45  H    0.056630
    46  H    0.069758
    47  H    0.106849
    48  H    0.070076
    49  H    0.085817
    50  H    0.111088
    51  H    0.106936
    52  H    0.089609
    53  H    0.098236
    54  H    0.072156
    55  H    0.080860
    56  H    0.008357
    57  H    0.093666
    58  H    0.077770
    59  H    0.127542
    60  H    0.102915
    61  H    0.095734
    62  H    0.112931
    63  H    0.082340
    64  H    0.111950
    65  H    0.105268
    66  H    0.117801
    67  H    0.135071
    68  H    0.084607
    69  H    0.289422
    70  H    0.088073
    71  H    0.080243
    72  H    0.105201
    73  H    0.126218
    74  H    0.112670
    75  H    0.317934
    76  H    0.087922
    77  H    0.091822
    78  H    0.130686
    79  H    0.108281
    80  H    0.064651
    81  H    0.130651
    82  H    0.115349
    83  H    0.107121
    84  H    0.085869
    85  H    0.089226
    86  H    0.073280
    87  H    0.092568
    88  H    0.080525
    89  H    0.121369
    90  H    0.093979
    91  H    0.107399
    92  H    0.058497
    93  H    0.089361
    94  H    0.137823
    95  H    0.096519
    96  H    0.128333
    97  H    0.080797
    98  H    0.079551
 Sum of Mulliken charges =  -0.00000

 Dipole moment (field-independent basis, Debye):
    X=              1.0958    Y=             -1.1800    Z=              0.2205  Tot=              1.6254
 Quadrupole moment (field-independent basis, Debye-Ang):
   XX=           -259.9559   YY=           -241.7192   ZZ=           -260.8362
   XY=             13.6899   XZ=             32.5748   YZ=              3.1447

 Normal termination of Gaussian 16 at Sat Jul 13 06:20:16 2019.
