 Gaussian 16, Revision A.03,
 Gaussian 16:  ES64L-G16RevA.03 25-Dec-2016

 -------------------------------------
 # td=(NStates=1) CAM-B3LYP/6-31G(d,p)
 -------------------------------------

 --
 TD
 --
 Symbolic Z-matrix:
 Charge =  0 Multiplicity = 1

                         Standard orientation:
 ---------------------------------------------------------------------
 Center     Atomic      Atomic             Coordinates (Angstroms)
 Number     Number       Type             X           Y           Z
 ---------------------------------------------------------------------
      1          8           0      -14.090836   -2.177222    0.755749
      2          8           0       14.900173    0.843732    0.297329
      3          6           0      -11.986698    0.315980    1.326890
      4          6           0      -11.045632    0.324922    0.032006
      5          6           0      -12.073085   -1.163875    1.642733
      6          6           0      -12.667484   -2.056153    0.534652
      7          6           0      -11.635599   -0.511455   -1.049436
      8          6           0       11.168332    1.063442    1.095765
      9          6           0      -11.203981    1.018382    2.523450
     10          6           0      -13.295989    0.960998    1.081879
     11          6           0       12.603658    1.597076    0.826863
     12          6           0      -12.384386   -1.602217   -0.888277
     13          6           0       13.461806    0.446422    0.526598
     14          6           0       10.735318    0.016215    0.062124
     15          6           0       -9.621965   -0.089262    0.124061
     16          6           0       13.049029   -0.307602   -0.747507
     17          6           0       11.618889   -0.681105   -0.757143
     18          6           0       10.377023    2.283620    0.998596
     19          6           0       11.061103    0.427481    2.394787
     20          6           0      -11.185388   -0.187682   -2.480417
     21          6           0       -8.554695    0.697302   -0.217473
     22          6           0        9.380135   -0.337247    0.097514
     23          6           0       11.208910   -1.487479   -1.884489
     24          6           0       -7.066039    0.467516   -0.227087
     25          6           0        8.883719   -1.598604    0.040846
     26          6           0       -6.631719   -0.904273    0.265527
     27          6           0        7.457042   -2.083062   -0.021584
     28          6           0       -6.212943    1.514339   -0.533198
     29          6           0        7.298450   -3.550470    0.066831
     30          6           0        6.382127   -1.134547   -0.024505
     31          6           0       -4.747113    1.470451   -0.469732
     32          6           0        5.013287   -1.552783   -0.182098
     33          6           0       -4.019388    2.459395   -0.845581
     34          6           0       -2.640215    2.510152   -1.018686
     35          6           0        3.988269   -0.599243   -0.318208
     36          6           0        2.672099   -0.856749   -0.364494
     37          6           0       -1.981206    3.834785   -1.139942
     38          6           0       -1.917936    1.348343   -0.826602
     39          6           0        1.724260    0.253792   -0.465420
     40          6           0        2.045346   -2.188203   -0.180514
     41          6           0       -0.494618    1.390572   -0.712398
     42          6           0        0.373145    0.236059   -0.597253
     43          1           0      -11.062581    1.486489   -0.354150
     44          1           0      -12.701933   -1.392358    2.525740
     45          1           0      -11.189978   -1.623840    2.002014
     46          1           0      -12.255871   -3.067302    0.516083
     47          1           0      -10.489533    0.080972    2.916836
     48          1           0      -10.471382    1.945863    2.101754
     49          1           0      -12.034683    1.306752    3.336896
     50          1           0      -13.727556    0.520712    0.041857
     51          1           0      -13.944802    0.709175    1.977355
     52          1           0      -13.072987    2.107519    1.237685
     53          1           0       12.816952    2.391072    0.011338
     54          1           0       12.870493    2.242654    1.680588
     55          1           0      -12.939701   -2.337315   -1.550253
     56          1           0       13.662039   -0.248135    1.450263
     57          1           0       -9.549627   -1.207807    0.455604
     58          1           0       13.806349   -1.199265   -0.877511
     59          1           0       13.456047    0.432765   -1.562027
     60          1           0        9.506476    2.262010    1.567706
     61          1           0       10.178090    2.674021   -0.042862
     62          1           0       10.718785    3.072710    1.763507
     63          1           0       11.658495   -0.656958    2.664535
     64          1           0       10.011141    0.035246    2.686194
     65          1           0       11.328083    1.046228    3.272274
     66          1           0      -10.161719   -0.148999   -2.341998
     67          1           0      -11.333975    0.890198   -2.923343
     68          1           0      -11.602170   -0.881315   -3.198405
     69          1           0      -14.174271   -2.620598   -0.121352
     70          1           0        8.623297    0.446593    0.113860
     71          1           0       -8.641846    1.753373   -0.431776
     72          1           0       11.498979   -2.483187   -1.511958
     73          1           0       10.169743   -1.384388   -2.095939
     74          1           0       11.856501   -1.175011   -2.737132
     75          1           0       15.270504    1.384501    1.016643
     76          1           0        9.383603   -2.415889   -0.033075
     77          1           0       -5.528075   -1.018861    0.507543
     78          1           0       -7.293052   -1.232541    1.154448
     79          1           0       -6.950904   -1.670366   -0.380655
     80          1           0       -6.671817    2.463033   -0.696668
     81          1           0        6.785237   -3.862354    0.940221
     82          1           0        6.601757   -4.030188   -0.637354
     83          1           0        8.243452   -4.038223    0.144040
     84          1           0        6.446821   -0.000498   -0.084123
     85          1           0       -4.372977    0.430653   -0.175341
     86          1           0        4.790292   -2.558971    0.194226
     87          1           0       -4.568699    3.400377   -1.264423
     88          1           0        4.325108    0.474360   -0.768653
     89          1           0       -0.974376    3.714998   -1.771060
     90          1           0       -1.490706    4.012217   -0.141184
     91          1           0       -2.688780    4.503835   -1.467476
     92          1           0       -2.595159    0.469418   -0.895939
     93          1           0        2.055991    1.425441   -0.635934
     94          1           0        1.776438   -2.672740    0.893795
     95          1           0        0.904271   -2.255134   -0.695991
     96          1           0        2.694144   -2.986423   -0.746892
     97          1           0       -0.122936    2.427538   -0.863012
     98          1           0       -0.116887   -0.745536   -0.725606
 ---------------------------------------------------------------------

 SCF Done:  E(RCAM-B3LYP) =  -1706.94354819     A.U. after   15 cycles

 Excitation energies and oscillator strengths:

 Excited State   1:      Singlet-A      1.8722 eV  662.24 nm  f=2.9204  <S**2>=0.000
     155 ->158         0.12627
     156 ->157         0.70209
     156 <-157        -0.12425
 This state for optimization and/or second-order correction.
 Total Energy, E(TD-HF/TD-DFT) =  -1706.87474650
 Copying the excited state density for this state as the 1-particle RhoCI density.

 The electronic state is 1-A.
 Alpha  occ. eigenvalues --  -19.21083 -19.19311 -10.30520 -10.30090 -10.28670
 Alpha  occ. eigenvalues --  -10.28346 -10.28299 -10.28211 -10.28065 -10.28029
 Alpha  occ. eigenvalues --  -10.27955 -10.27592 -10.27591 -10.27460 -10.27288
 Alpha  occ. eigenvalues --  -10.27227 -10.27190 -10.26970 -10.26802 -10.26762
 Alpha  occ. eigenvalues --  -10.26760 -10.26633 -10.26623 -10.26619 -10.26541
 Alpha  occ. eigenvalues --  -10.26482 -10.26468 -10.26285 -10.26273 -10.26087
 Alpha  occ. eigenvalues --  -10.26071 -10.25868 -10.25738 -10.25705 -10.25541
 Alpha  occ. eigenvalues --  -10.25501 -10.25432 -10.24862 -10.24826 -10.24808
 Alpha  occ. eigenvalues --  -10.24500 -10.24390  -1.09400  -1.05515  -0.95075
 Alpha  occ. eigenvalues --   -0.94105  -0.93205  -0.91691  -0.90222  -0.89920
 Alpha  occ. eigenvalues --   -0.88777  -0.87277  -0.86905  -0.85705  -0.84920
 Alpha  occ. eigenvalues --   -0.83305  -0.82111  -0.81181  -0.80361  -0.78539
 Alpha  occ. eigenvalues --   -0.77241  -0.77189  -0.76267  -0.76126  -0.75709
 Alpha  occ. eigenvalues --   -0.75585  -0.75029  -0.73097  -0.72243  -0.70423
 Alpha  occ. eigenvalues --   -0.68880  -0.67435  -0.66217  -0.64719  -0.64386
 Alpha  occ. eigenvalues --   -0.63590  -0.62477  -0.62006  -0.59923  -0.59829
 Alpha  occ. eigenvalues --   -0.59147  -0.58225  -0.57887  -0.57491  -0.55987
 Alpha  occ. eigenvalues --   -0.55701  -0.54922  -0.54555  -0.54165  -0.53632
 Alpha  occ. eigenvalues --   -0.53497  -0.53023  -0.52435  -0.52280  -0.52138
 Alpha  occ. eigenvalues --   -0.51115  -0.50478  -0.50168  -0.49308  -0.49069
 Alpha  occ. eigenvalues --   -0.48483  -0.48273  -0.48183  -0.47904  -0.47533
 Alpha  occ. eigenvalues --   -0.47413  -0.47154  -0.47010  -0.46871  -0.46599
 Alpha  occ. eigenvalues --   -0.46444  -0.46087  -0.45964  -0.45641  -0.45229
 Alpha  occ. eigenvalues --   -0.44626  -0.44158  -0.43692  -0.43677  -0.43362
 Alpha  occ. eigenvalues --   -0.43201  -0.42875  -0.42166  -0.41763  -0.41739
 Alpha  occ. eigenvalues --   -0.41568  -0.41192  -0.40868  -0.40735  -0.40426
 Alpha  occ. eigenvalues --   -0.39856  -0.39682  -0.39632  -0.39569  -0.39291
 Alpha  occ. eigenvalues --   -0.39155  -0.39048  -0.38582  -0.38454  -0.38217
 Alpha  occ. eigenvalues --   -0.37756  -0.37251  -0.36568  -0.36261  -0.35931
 Alpha  occ. eigenvalues --   -0.34934  -0.34761  -0.33631  -0.31943  -0.31312
 Alpha  occ. eigenvalues --   -0.30885  -0.29999  -0.29027  -0.26578  -0.24194
 Alpha  occ. eigenvalues --   -0.18586
 Alpha virt. eigenvalues --   -0.07054  -0.00911   0.01883   0.05135   0.06709
 Alpha virt. eigenvalues --    0.08064   0.10393   0.11067   0.11449   0.12034
 Alpha virt. eigenvalues --    0.12303   0.12601   0.12933   0.13081   0.13374

 Mulliken charges:
               1
     1  O   -0.527898
     2  O   -0.605772
     3  C    0.054730
     4  C   -0.149531
     5  C   -0.201520
     6  C    0.103812
     7  C    0.090321
     8  C    0.018514
     9  C   -0.285229
    10  C   -0.284657
    11  C   -0.175329
    12  C   -0.133032
    13  C    0.159411
    14  C    0.056746
    15  C   -0.079656
    16  C   -0.226406
    17  C    0.063190
    18  C   -0.312490
    19  C   -0.306544
    20  C   -0.346320
    21  C   -0.096571
    22  C   -0.125739
    23  C   -0.347932
    24  C    0.113139
    25  C   -0.055525
    26  C   -0.380129
    27  C    0.068475
    28  C   -0.148545
    29  C   -0.397998
    30  C   -0.125373
    31  C   -0.059079
    32  C   -0.100720
    33  C   -0.107068
    34  C    0.089886
    35  C   -0.113734
    36  C    0.127612
    37  C   -0.371087
    38  C   -0.088552
    39  C   -0.111286
    40  C   -0.364498
    41  C   -0.119809
    42  C   -0.072387
    43  H    0.077694
    44  H    0.109608
    45  H    0.095820
    46  H    0.082578
    47  H    0.082127
    48  H    0.087778
    49  H    0.093887
    50  H    0.110291
    51  H    0.107839
    52  H    0.086218
    53  H    0.098295
    54  H    0.086368
    55  H    0.084846
    56  H    0.082290
    57  H    0.088646
    58  H    0.104262
    59  H    0.117462
    60  H    0.102886
    61  H    0.116054
    62  H    0.084106
    63  H    0.081101
    64  H    0.111571
    65  H    0.096898
    66  H    0.130164
    67  H    0.089525
    68  H    0.109352
    69  H    0.294871
    70  H    0.089360
    71  H    0.079070
    72  H    0.116623
    73  H    0.128343
    74  H    0.110488
    75  H    0.298075
    76  H    0.049024
    77  H    0.106413
    78  H    0.110547
    79  H    0.131764
    80  H    0.082354
    81  H    0.137299
    82  H    0.126428
    83  H    0.118159
    84  H    0.087379
    85  H    0.085355
    86  H    0.088633
    87  H    0.071492
    88  H    0.080382
    89  H    0.108483
    90  H    0.138011
    91  H    0.112348
    92  H    0.083103
    93  H    0.063997
    94  H    0.113956
    95  H    0.090038
    96  H    0.103886
    97  H    0.074781
    98  H    0.076251
 Sum of Mulliken charges =  -0.00000

 Dipole moment (field-independent basis, Debye):
    X=              1.0600    Y=             -0.4368    Z=              0.0668  Tot=              1.1484
 Quadrupole moment (field-independent basis, Debye-Ang):
   XX=           -317.3008   YY=           -239.7760   ZZ=           -263.9073
   XY=              8.0639   XZ=             34.7050   YZ=              2.1150

 Normal termination of Gaussian 16 at Mon Jul 15 16:30:49 2019.
