 Gaussian 16, Revision A.03,
 Gaussian 16:  ES64L-G16RevA.03 25-Dec-2016

 -------------------------------------
 # td=(NStates=1) CAM-B3LYP/6-31G(d,p)
 -------------------------------------

 --
 TD
 --
 Symbolic Z-matrix:
 Charge =  0 Multiplicity = 1

                         Standard orientation:
 ---------------------------------------------------------------------
 Center     Atomic      Atomic             Coordinates (Angstroms)
 Number     Number       Type             X           Y           Z
 ---------------------------------------------------------------------
      1          8           0      -13.937680   -2.480669    0.393015
      2          8           0       14.892185    0.652900    0.388263
      3          6           0      -11.764015   -0.280195    1.391925
      4          6           0      -11.017375    0.260658    0.170911
      5          6           0      -11.896806   -1.806682    1.346922
      6          6           0      -12.600387   -2.416138    0.075256
      7          6           0      -11.657009   -0.319966   -1.090336
      8          6           0       11.166636    0.781649    1.157455
      9          6           0      -10.924326    0.178672    2.669402
     10          6           0      -13.199375    0.443193    1.524461
     11          6           0       12.640863    1.346342    1.088707
     12          6           0      -12.246948   -1.515005   -1.058689
     13          6           0       13.530245    0.275186    0.455859
     14          6           0       10.746310   -0.149054   -0.011977
     15          6           0       -9.488982   -0.002171   -0.052136
     16          6           0       13.025817   -0.132025   -0.841023
     17          6           0       11.598229   -0.567761   -0.940156
     18          6           0       10.191038    1.946039    1.301508
     19          6           0       11.026405   -0.032905    2.462609
     20          6           0      -11.458138    0.544094   -2.381255
     21          6           0       -8.586886    0.917224   -0.202276
     22          6           0        9.313876   -0.487158    0.032198
     23          6           0       11.348942   -1.423583   -2.186600
     24          6           0       -7.108963    0.773250   -0.232366
     25          6           0        8.771700   -1.693174   -0.146231
     26          6           0       -6.726228   -0.711987   -0.207709
     27          6           0        7.369436   -2.114094   -0.159543
     28          6           0       -6.252234    1.697014   -0.261823
     29          6           0        6.948869   -3.545392   -0.171812
     30          6           0        6.402254   -1.163447   -0.330646
     31          6           0       -4.865560    1.676028   -0.297968
     32          6           0        4.962091   -1.373810   -0.251355
     33          6           0       -4.104744    2.734296   -0.584448
     34          6           0       -2.693110    2.808369   -0.668203
     35          6           0        4.073349   -0.372106   -0.341102
     36          6           0        2.587044   -0.566931   -0.347808
     37          6           0       -2.054619    4.210006   -0.855766
     38          6           0       -1.774055    1.732682   -0.470134
     39          6           0        1.760451    0.564923   -0.498155
     40          6           0        2.065294   -2.000436   -0.171800
     41          6           0       -0.415185    1.790412   -0.463589
     42          6           0        0.403186    0.622249   -0.400558
     43          1           0      -11.427900    1.338575    0.010723
     44          1           0      -12.563438   -2.009628    2.331251
     45          1           0      -11.126912   -2.306396    1.883807
     46          1           0      -12.037399   -3.466265   -0.000914
     47          1           0      -10.030822   -0.318917    2.811538
     48          1           0      -10.718154    1.177645    2.431449
     49          1           0      -11.628822    0.056547    3.465936
     50          1           0      -13.581544    0.249013    0.478197
     51          1           0      -13.692946    0.068232    2.455547
     52          1           0      -12.945986    1.377850    1.680600
     53          1           0       12.458736    2.220721    0.569572
     54          1           0       13.007560    1.713429    2.155673
     55          1           0      -12.650463   -2.316284   -1.934697
     56          1           0       13.630209   -0.772954    1.085847
     57          1           0       -9.410632   -1.014577   -0.005659
     58          1           0       13.716955   -1.025373   -1.511029
     59          1           0       12.971464    0.787846   -1.431408
     60          1           0        9.196442    1.779735    1.765915
     61          1           0       10.112213    2.246816    0.273198
     62          1           0       10.835355    2.736935    1.982907
     63          1           0       11.837865   -0.757209    2.401780
     64          1           0       10.070106   -0.629531    2.511037
     65          1           0       11.278546    0.639394    3.282935
     66          1           0      -10.225620    0.506563   -2.635125
     67          1           0      -11.819398    1.530412   -2.440075
     68          1           0      -11.900918   -0.068467   -3.050045
     69          1           0      -14.551313   -2.539025   -0.372677
     70          1           0        8.502046    0.331096    0.393498
     71          1           0       -8.888362    1.964091   -0.393856
     72          1           0       12.112291   -2.253640   -1.951129
     73          1           0       10.294406   -1.478801   -2.377674
     74          1           0       11.799076   -0.818222   -2.799378
     75          1           0       14.956153    1.279716    1.185306
     76          1           0        9.417878   -2.574213   -0.548434
     77          1           0       -5.579285   -1.066016   -0.247788
     78          1           0       -7.414561   -0.960965    0.648739
     79          1           0       -7.282852   -1.191794   -0.839075
     80          1           0       -6.648836    2.741310   -0.591035
     81          1           0        6.412033   -3.875096    0.882976
     82          1           0        6.360185   -3.820728   -1.011990
     83          1           0        7.848174   -4.414161   -0.370573
     84          1           0        6.704155   -0.123171   -0.628221
     85          1           0       -4.285880    0.648408   -0.286743
     86          1           0        4.747285   -2.482335   -0.447653
     87          1           0       -4.593566    3.704004   -0.597489
     88          1           0        4.386336    0.679076   -0.420455
     89          1           0       -1.368296    4.233411   -1.740024
     90          1           0       -1.569347    4.393603   -0.005542
     91          1           0       -2.728018    5.040368   -0.831044
     92          1           0       -2.402573    0.832211   -0.406911
     93          1           0        2.423420    1.573497   -0.511956
     94          1           0        2.624845   -2.518089    0.690087
     95          1           0        0.965479   -2.037014    0.261936
     96          1           0        2.164098   -2.527836   -1.011919
     97          1           0        0.077734    2.737322   -0.400134
     98          1           0       -0.055765   -0.368585   -0.400518
 ---------------------------------------------------------------------

 SCF Done:  E(RCAM-B3LYP) =  -1706.89275042     A.U. after   15 cycles

 Excitation energies and oscillator strengths:

 Excited State   1:      Singlet-A      2.2527 eV  550.37 nm  f=2.8591  <S**2>=0.000
     155 ->158        -0.12812
     156 ->157         0.69744
 This state for optimization and/or second-order correction.
 Total Energy, E(TD-HF/TD-DFT) =  -1706.80996365
 Copying the excited state density for this state as the 1-particle RhoCI density.

 The electronic state is 1-A.
 Alpha  occ. eigenvalues --  -19.22102 -19.21392 -10.31957 -10.31694 -10.28397
 Alpha  occ. eigenvalues --  -10.28109 -10.27889 -10.27490 -10.27287 -10.27236
 Alpha  occ. eigenvalues --  -10.27098 -10.27051 -10.26965 -10.26892 -10.26864
 Alpha  occ. eigenvalues --  -10.26861 -10.26858 -10.26638 -10.26635 -10.26595
 Alpha  occ. eigenvalues --  -10.26581 -10.26568 -10.26553 -10.26524 -10.26481
 Alpha  occ. eigenvalues --  -10.26340 -10.26316 -10.26266 -10.25950 -10.25946
 Alpha  occ. eigenvalues --  -10.25826 -10.25809 -10.25774 -10.25603 -10.25286
 Alpha  occ. eigenvalues --  -10.25094 -10.24842 -10.24377 -10.24252 -10.23685
 Alpha  occ. eigenvalues --  -10.23434 -10.22541  -1.10823  -1.09324  -0.94195
 Alpha  occ. eigenvalues --   -0.93674  -0.92530  -0.91456  -0.90838  -0.89706
 Alpha  occ. eigenvalues --   -0.88125  -0.87462  -0.86093  -0.85847  -0.84857
 Alpha  occ. eigenvalues --   -0.83256  -0.82095  -0.80991  -0.80619  -0.78741
 Alpha  occ. eigenvalues --   -0.77804  -0.77315  -0.76370  -0.75657  -0.75575
 Alpha  occ. eigenvalues --   -0.75445  -0.75148  -0.74850  -0.73143  -0.71025
 Alpha  occ. eigenvalues --   -0.69072  -0.68361  -0.66782  -0.65138  -0.64365
 Alpha  occ. eigenvalues --   -0.63045  -0.63022  -0.61563  -0.60067  -0.59624
 Alpha  occ. eigenvalues --   -0.59305  -0.58822  -0.57706  -0.57356  -0.56226
 Alpha  occ. eigenvalues --   -0.55696  -0.54815  -0.54308  -0.54089  -0.53752
 Alpha  occ. eigenvalues --   -0.53162  -0.52779  -0.52103  -0.51774  -0.51532
 Alpha  occ. eigenvalues --   -0.50806  -0.50619  -0.50074  -0.49885  -0.49489
 Alpha  occ. eigenvalues --   -0.49317  -0.49246  -0.48897  -0.48387  -0.48023
 Alpha  occ. eigenvalues --   -0.47973  -0.47796  -0.47334  -0.47163  -0.46856
 Alpha  occ. eigenvalues --   -0.46598  -0.46335  -0.45891  -0.45838  -0.45103
 Alpha  occ. eigenvalues --   -0.44922  -0.44579  -0.44114  -0.44081  -0.43675
 Alpha  occ. eigenvalues --   -0.43530  -0.43054  -0.42418  -0.42106  -0.41776
 Alpha  occ. eigenvalues --   -0.41586  -0.41482  -0.41109  -0.41033  -0.40780
 Alpha  occ. eigenvalues --   -0.40408  -0.40329  -0.40072  -0.39812  -0.39355
 Alpha  occ. eigenvalues --   -0.38887  -0.38706  -0.38030  -0.37531  -0.37226
 Alpha  occ. eigenvalues --   -0.36603  -0.36478  -0.36368  -0.35585  -0.35285
 Alpha  occ. eigenvalues --   -0.34865  -0.34213  -0.33161  -0.32364  -0.31416
 Alpha  occ. eigenvalues --   -0.31341  -0.30135  -0.29491  -0.27691  -0.24635
 Alpha  occ. eigenvalues --   -0.19657
 Alpha virt. eigenvalues --   -0.05835  -0.00208   0.02898   0.05658   0.07421
 Alpha virt. eigenvalues --    0.09201   0.10514   0.11222   0.11416   0.11447
 Alpha virt. eigenvalues --    0.11697   0.12496   0.13208   0.13346   0.13706

 Mulliken charges:
               1
     1  O   -0.522437
     2  O   -0.564126
     3  C   -0.006445
     4  C   -0.130779
     5  C   -0.192803
     6  C    0.167359
     7  C    0.038579
     8  C   -0.022760
     9  C   -0.310286
    10  C   -0.285267
    11  C   -0.238135
    12  C   -0.116099
    13  C    0.209802
    14  C    0.058383
    15  C   -0.075833
    16  C   -0.211801
    17  C    0.021579
    18  C   -0.299805
    19  C   -0.284911
    20  C   -0.335140
    21  C   -0.077839
    22  C   -0.130374
    23  C   -0.329391
    24  C    0.128507
    25  C   -0.096753
    26  C   -0.362954
    27  C    0.101618
    28  C   -0.161208
    29  C   -0.376694
    30  C   -0.131050
    31  C   -0.046592
    32  C   -0.088281
    33  C   -0.115509
    34  C    0.049078
    35  C   -0.104365
    36  C    0.085087
    37  C   -0.379633
    38  C   -0.082782
    39  C   -0.111996
    40  C   -0.371893
    41  C   -0.091292
    42  C   -0.086940
    43  H    0.077372
    44  H    0.075973
    45  H    0.096039
    46  H    0.065271
    47  H    0.105387
    48  H    0.105365
    49  H    0.096052
    50  H    0.103434
    51  H    0.104467
    52  H    0.106688
    53  H    0.119322
    54  H    0.080841
    55  H    0.052656
    56  H    0.062388
    57  H    0.097016
    58  H    0.069180
    59  H    0.119742
    60  H    0.114937
    61  H    0.107214
    62  H    0.070024
    63  H    0.095548
    64  H    0.107846
    65  H    0.089269
    66  H    0.093565
    67  H    0.125647
    68  H    0.125588
    69  H    0.304704
    70  H    0.080444
    71  H    0.084994
    72  H    0.118080
    73  H    0.123543
    74  H    0.132967
    75  H    0.307599
    76  H    0.075586
    77  H    0.102294
    78  H    0.111420
    79  H    0.135532
    80  H    0.067556
    81  H    0.109289
    82  H    0.138918
    83  H    0.078551
    84  H    0.083983
    85  H    0.073331
    86  H    0.090654
    87  H    0.081948
    88  H    0.086069
    89  H    0.120922
    90  H    0.139361
    91  H    0.102649
    92  H    0.066714
    93  H    0.064903
    94  H    0.116139
    95  H    0.099468
    96  H    0.141932
    97  H    0.093066
    98  H    0.082732
 Sum of Mulliken charges =  -0.00000

 Dipole moment (field-independent basis, Debye):
    X=             -1.0997    Y=              0.5673    Z=             -1.1662  Tot=              1.7003
 Quadrupole moment (field-independent basis, Debye-Ang):
   XX=           -283.8536   YY=           -244.7468   ZZ=           -263.8864
   XY=              7.3364   XZ=             26.0561   YZ=              6.0914

 Normal termination of Gaussian 16 at Fri Jul 12 20:37:21 2019.
