 Gaussian 16, Revision A.03,
 Gaussian 16:  ES64L-G16RevA.03 25-Dec-2016

 -------------------------------------
 # td=(NStates=1) CAM-B3LYP/6-31G(d,p)
 -------------------------------------

 --
 TD
 --
 Symbolic Z-matrix:
 Charge =  0 Multiplicity = 1

                         Standard orientation:
 ---------------------------------------------------------------------
 Center     Atomic      Atomic             Coordinates (Angstroms)
 Number     Number       Type             X           Y           Z
 ---------------------------------------------------------------------
      1          8           0      -14.159389   -2.152861    0.601536
      2          8           0       14.993205    0.784381   -0.041201
      3          6           0      -11.889870    0.115681    1.201145
      4          6           0      -11.076352    0.333478   -0.189459
      5          6           0      -11.937931   -1.456944    1.376525
      6          6           0      -12.690171   -2.181298    0.266692
      7          6           0      -11.580895   -0.559587   -1.260883
      8          6           0       11.302864    1.006060    0.967720
      9          6           0      -11.218351    0.773367    2.346309
     10          6           0      -13.305449    0.858907    1.162844
     11          6           0       12.673326    1.522924    0.618355
     12          6           0      -12.426935   -1.546533   -1.022248
     13          6           0       13.630235    0.359840    0.151892
     14          6           0       10.822874   -0.069157   -0.035501
     15          6           0       -9.609476    0.095025   -0.002988
     16          6           0       13.051231   -0.245960   -1.057223
     17          6           0       11.628242   -0.536479   -0.979103
     18          6           0       10.470910    2.288407    1.037188
     19          6           0       11.172490    0.351986    2.342939
     20          6           0      -11.246374    0.168901   -2.544806
     21          6           0       -8.507704    0.921450   -0.194786
     22          6           0        9.380678   -0.403144    0.041246
     23          6           0       11.073870   -1.484004   -2.100433
     24          6           0       -7.164510    0.476669   -0.368165
     25          6           0        8.859976   -1.561456    0.040353
     26          6           0       -6.862392   -0.969327    0.024540
     27          6           0        7.531204   -1.939832    0.079602
     28          6           0       -6.290008    1.542283   -0.416473
     29          6           0        7.258890   -3.444671    0.355627
     30          6           0        6.394419   -1.110067    0.099225
     31          6           0       -4.867280    1.370197   -0.451538
     32          6           0        5.028309   -1.465984    0.169592
     33          6           0       -4.027466    2.494647   -0.515604
     34          6           0       -2.650937    2.490916   -0.524491
     35          6           0        3.994306   -0.548765   -0.022759
     36          6           0        2.590690   -0.765232   -0.069998
     37          6           0       -2.046315    3.927915   -0.706747
     38          6           0       -1.848014    1.336107   -0.415549
     39          6           0        1.734996    0.231416   -0.330895
     40          6           0        2.122767   -2.227424    0.173489
     41          6           0       -0.413294    1.340538   -0.444956
     42          6           0        0.332927    0.221373   -0.432866
     43          1           0      -11.300504    1.449803   -0.514400
     44          1           0      -12.421003   -1.712548    2.284602
     45          1           0      -10.824903   -1.858203    1.547666
     46          1           0      -12.430670   -3.239988    0.277299
     47          1           0      -10.092054    0.158656    2.462998
     48          1           0      -10.854886    1.752358    2.225027
     49          1           0      -11.830184    0.730508    3.350435
     50          1           0      -14.043945    0.381849    0.539600
     51          1           0      -13.790532    0.777974    2.164536
     52          1           0      -12.975495    1.921770    0.706213
     53          1           0       12.505708    2.207338   -0.176529
     54          1           0       13.204424    2.131244    1.310113
     55          1           0      -12.780400   -2.051216   -1.975070
     56          1           0       13.466035   -0.345905    0.918016
     57          1           0       -9.277048   -0.993696    0.092634
     58          1           0       13.768009   -1.130725   -1.391810
     59          1           0       13.200922    0.302195   -1.938734
     60          1           0        9.485794    2.023235    1.607988
     61          1           0       10.200803    2.605888    0.099738
     62          1           0       10.997384    2.918361    1.723556
     63          1           0       11.738274   -0.590848    2.329810
     64          1           0       10.165137    0.038131    2.434348
     65          1           0       11.588421    0.987761    3.122930
     66          1           0      -10.170142    0.147009   -2.494686
     67          1           0      -11.735056    1.214669   -2.403895
     68          1           0      -11.782824   -0.523010   -3.247672
     69          1           0      -14.534875   -2.165571   -0.390429
     70          1           0        8.627299    0.439209    0.163002
     71          1           0       -8.727818    2.050591   -0.344172
     72          1           0       11.660706   -2.353611   -2.080998
     73          1           0        9.952500   -1.556714   -2.058992
     74          1           0       11.305913   -0.930091   -3.048557
     75          1           0       15.353207    1.095612    0.773616
     76          1           0        9.555808   -2.343884   -0.252904
     77          1           0       -5.723027   -1.115450    0.385834
     78          1           0       -7.614805   -1.228822    0.948891
     79          1           0       -7.072886   -1.674994   -0.845700
     80          1           0       -6.682747    2.608109   -0.718182
     81          1           0        6.390736   -3.869799    1.233289
     82          1           0        6.673285   -3.936193   -0.424798
     83          1           0        8.250439   -4.019007    0.511003
     84          1           0        6.337232    0.066126   -0.015087
     85          1           0       -4.393747    0.469427   -0.503881
     86          1           0        4.826313   -2.493205    0.453837
     87          1           0       -4.518875    3.560421   -0.507519
     88          1           0        4.115048    0.453200   -0.196524
     89          1           0       -1.420206    4.162851   -1.559980
     90          1           0       -1.696691    4.147045    0.279407
     91          1           0       -3.112397    4.696061   -0.724158
     92          1           0       -2.453613    0.289688   -0.626469
     93          1           0        1.909275    1.326436   -0.461269
     94          1           0        2.612905   -2.567047    1.089443
     95          1           0        1.009363   -2.286877    0.235617
     96          1           0        2.443012   -3.115512   -0.300046
     97          1           0       -0.038928    2.448679   -0.639194
     98          1           0       -0.087117   -0.784799   -0.119366
 ---------------------------------------------------------------------

 SCF Done:  E(RCAM-B3LYP) =  -1706.96567692     A.U. after   15 cycles

 Excitation energies and oscillator strengths:

 Excited State   1:      Singlet-A      2.1899 eV  566.17 nm  f=3.1743  <S**2>=0.000
     155 ->158        -0.16068
     156 ->157         0.68732
 This state for optimization and/or second-order correction.
 Total Energy, E(TD-HF/TD-DFT) =  -1706.88520067
 Copying the excited state density for this state as the 1-particle RhoCI density.

 The electronic state is 1-A.
 Alpha  occ. eigenvalues --  -19.21652 -19.21203 -10.30860 -10.29743 -10.29151
 Alpha  occ. eigenvalues --  -10.28087 -10.28048 -10.28002 -10.27895 -10.27889
 Alpha  occ. eigenvalues --  -10.27860 -10.27759 -10.27729 -10.27707 -10.27466
 Alpha  occ. eigenvalues --  -10.27206 -10.27082 -10.26976 -10.26939 -10.26883
 Alpha  occ. eigenvalues --  -10.26754 -10.26603 -10.26567 -10.26462 -10.26396
 Alpha  occ. eigenvalues --  -10.26328 -10.26319 -10.26236 -10.25972 -10.25902
 Alpha  occ. eigenvalues --  -10.25612 -10.25519 -10.25480 -10.25458 -10.25348
 Alpha  occ. eigenvalues --  -10.25028 -10.25017 -10.24934 -10.24314 -10.24044
 Alpha  occ. eigenvalues --  -10.23743 -10.23462  -1.09102  -1.05988  -0.94487
 Alpha  occ. eigenvalues --   -0.93896  -0.92576  -0.91944  -0.91124  -0.90372
 Alpha  occ. eigenvalues --   -0.88018  -0.87730  -0.86920  -0.85795  -0.84778
 Alpha  occ. eigenvalues --   -0.83346  -0.82542  -0.80221  -0.79766  -0.78533
 Alpha  occ. eigenvalues --   -0.76920  -0.76461  -0.76207  -0.75969  -0.75862
 Alpha  occ. eigenvalues --   -0.75344  -0.75060  -0.73615  -0.72853  -0.70702
 Alpha  occ. eigenvalues --   -0.69536  -0.67803  -0.67233  -0.65587  -0.63571
 Alpha  occ. eigenvalues --   -0.63039  -0.62265  -0.61772  -0.61309  -0.60021
 Alpha  occ. eigenvalues --   -0.59667  -0.59125  -0.57587  -0.56388  -0.56013
 Alpha  occ. eigenvalues --   -0.55825  -0.55430  -0.54601  -0.54280  -0.53814
 Alpha  occ. eigenvalues --   -0.53234  -0.52787  -0.52592  -0.52141  -0.51327
 Alpha  occ. eigenvalues --   -0.51047  -0.50938  -0.50071  -0.49819  -0.49204
 Alpha  occ. eigenvalues --   -0.49042  -0.48587  -0.48419  -0.48256  -0.48033
 Alpha  occ. eigenvalues --   -0.46985  -0.46890  -0.46693  -0.46442  -0.46017
 Alpha  occ. eigenvalues --   -0.45761  -0.45567  -0.45270  -0.44920  -0.44691
 Alpha  occ. eigenvalues --   -0.44597  -0.44084  -0.43795  -0.43654  -0.43427
 Alpha  occ. eigenvalues --   -0.43224  -0.42902  -0.42607  -0.42222  -0.41902
 Alpha  occ. eigenvalues --   -0.41819  -0.41462  -0.41409  -0.41131  -0.40625
 Alpha  occ. eigenvalues --   -0.40209  -0.40153  -0.39743  -0.39286  -0.39145
 Alpha  occ. eigenvalues --   -0.39064  -0.38821  -0.38534  -0.38013  -0.37864
 Alpha  occ. eigenvalues --   -0.37214  -0.37048  -0.36850  -0.36444  -0.35996
 Alpha  occ. eigenvalues --   -0.35352  -0.34922  -0.34172  -0.32481  -0.31782
 Alpha  occ. eigenvalues --   -0.31366  -0.30674  -0.29198  -0.27412  -0.23636
 Alpha  occ. eigenvalues --   -0.20013
 Alpha virt. eigenvalues --   -0.06184  -0.01749   0.03002   0.04871   0.06501
 Alpha virt. eigenvalues --    0.08719   0.09805   0.10718   0.11445   0.11752
 Alpha virt. eigenvalues --    0.12036   0.12665   0.12936   0.13206   0.13748

 Mulliken charges:
               1
     1  O   -0.563644
     2  O   -0.569980
     3  C    0.032142
     4  C   -0.146563
     5  C   -0.186222
     6  C    0.151613
     7  C    0.098927
     8  C   -0.035488
     9  C   -0.272771
    10  C   -0.286144
    11  C   -0.198013
    12  C   -0.157267
    13  C    0.170453
    14  C    0.044785
    15  C   -0.102971
    16  C   -0.222652
    17  C    0.052017
    18  C   -0.292290
    19  C   -0.292815
    20  C   -0.318361
    21  C   -0.089380
    22  C   -0.133687
    23  C   -0.359926
    24  C    0.113534
    25  C   -0.081160
    26  C   -0.366803
    27  C    0.093931
    28  C   -0.120019
    29  C   -0.368772
    30  C   -0.118623
    31  C   -0.055004
    32  C   -0.069984
    33  C   -0.126751
    34  C    0.091810
    35  C   -0.102759
    36  C    0.121878
    37  C   -0.371044
    38  C   -0.118339
    39  C   -0.132859
    40  C   -0.383777
    41  C   -0.095268
    42  C   -0.081237
    43  H    0.075189
    44  H    0.114168
    45  H    0.078172
    46  H    0.101566
    47  H    0.049549
    48  H    0.111271
    49  H    0.090117
    50  H    0.111463
    51  H    0.104223
    52  H    0.072033
    53  H    0.102004
    54  H    0.075892
    55  H    0.065733
    56  H    0.090017
    57  H    0.079406
    58  H    0.090921
    59  H    0.126122
    60  H    0.077653
    61  H    0.113265
    62  H    0.109005
    63  H    0.093723
    64  H    0.117461
    65  H    0.092029
    66  H    0.137090
    67  H    0.117464
    68  H    0.096810
    69  H    0.304979
    70  H    0.085445
    71  H    0.072228
    72  H    0.122167
    73  H    0.123625
    74  H    0.102562
    75  H    0.306067
    76  H    0.086304
    77  H    0.104084
    78  H    0.117375
    79  H    0.126053
    80  H    0.093143
    81  H    0.075743
    82  H    0.128840
    83  H    0.106226
    84  H    0.075050
    85  H    0.080002
    86  H    0.072186
    87  H    0.076845
    88  H    0.075459
    89  H    0.137773
    90  H    0.146452
    91  H    0.065495
    92  H    0.075857
    93  H    0.080465
    94  H    0.116826
    95  H    0.100868
    96  H    0.128350
    97  H    0.091659
    98  H    0.079010
 Sum of Mulliken charges =  -0.00000

 Dipole moment (field-independent basis, Debye):
    X=              0.1258    Y=              0.3801    Z=             -0.8921  Tot=              0.9778
 Quadrupole moment (field-independent basis, Debye-Ang):
   XX=           -295.2367   YY=           -245.4496   ZZ=           -266.4087
   XY=             -0.7322   XZ=             39.1452   YZ=              3.6086

 Normal termination of Gaussian 16 at Sat Jul 13 16:41:43 2019.
