 Gaussian 16, Revision A.03,
 Gaussian 16:  ES64L-G16RevA.03 25-Dec-2016

 -------------------------------------
 # td=(NStates=1) CAM-B3LYP/6-31G(d,p)
 -------------------------------------

 --
 TD
 --
 Symbolic Z-matrix:
 Charge =  0 Multiplicity = 1

                         Standard orientation:
 ---------------------------------------------------------------------
 Center     Atomic      Atomic             Coordinates (Angstroms)
 Number     Number       Type             X           Y           Z
 ---------------------------------------------------------------------
      1          8           0      -14.241299   -1.924475    0.313550
      2          8           0       14.730712    0.812097    0.168091
      3          6           0      -11.786421   -0.088849    1.370505
      4          6           0      -11.017489    0.319636    0.093658
      5          6           0      -12.009162   -1.602996    1.312462
      6          6           0      -12.840807   -2.022189    0.087463
      7          6           0      -11.581355   -0.272197   -1.175291
      8          6           0       11.061339    1.074089    0.931506
      9          6           0      -10.931477    0.275927    2.567596
     10          6           0      -13.036742    0.776147    1.350795
     11          6           0       12.454325    1.605767    0.673386
     12          6           0      -12.433157   -1.382917   -1.187895
     13          6           0       13.457500    0.311082    0.432122
     14          6           0       10.656101   -0.033363   -0.026632
     15          6           0       -9.466884   -0.033955   -0.000324
     16          6           0       12.961127   -0.259048   -0.878290
     17          6           0       11.500188   -0.666148   -0.869845
     18          6           0       10.278348    2.410185    0.913983
     19          6           0       10.953062    0.618845    2.372314
     20          6           0      -11.285936    0.409214   -2.461210
     21          6           0       -8.510837    0.900202   -0.187482
     22          6           0        9.240828   -0.344975   -0.035838
     23          6           0       11.261462   -1.580115   -1.990881
     24          6           0       -7.095136    0.576260   -0.213451
     25          6           0        8.765758   -1.658048    0.085400
     26          6           0       -6.669386   -0.885863    0.099458
     27          6           0        7.380279   -2.040929   -0.021159
     28          6           0       -6.197733    1.631208   -0.269649
     29          6           0        7.237359   -3.577855    0.121432
     30          6           0        6.377435   -1.288523   -0.190953
     31          6           0       -4.788427    1.498603   -0.192193
     32          6           0        4.934075   -1.549764   -0.136745
     33          6           0       -3.916122    2.533307   -0.497538
     34          6           0       -2.441484    2.589601   -0.682704
     35          6           0        3.981558   -0.630063   -0.086511
     36          6           0        2.618879   -0.832830   -0.023161
     37          6           0       -1.879581    3.923470   -1.030936
     38          6           0       -1.696514    1.481783   -0.522595
     39          6           0        1.667051    0.191887   -0.274024
     40          6           0        2.085490   -2.360116    0.193346
     41          6           0       -0.311037    1.449931   -0.558273
     42          6           0        0.331538    0.277136   -0.340440
     43          1           0      -11.105019    1.438161   -0.049519
     44          1           0      -12.747236   -2.008606    1.998528
     45          1           0      -11.112400   -2.291787    1.502333
     46          1           0      -12.836198   -3.254886    0.038110
     47          1           0       -9.930772   -0.507755    2.482484
     48          1           0      -10.685247    1.314240    2.582244
     49          1           0      -11.501065    0.144021    3.560628
     50          1           0      -13.501787    0.850627    0.326630
     51          1           0      -13.835865    0.145240    2.034281
     52          1           0      -12.643948    1.867519    1.610081
     53          1           0       12.842339    2.199913   -0.209758
     54          1           0       12.820601    2.082188    1.528117
     55          1           0      -12.858870   -1.821664   -2.093902
     56          1           0       13.463125   -0.384258    1.221110
     57          1           0       -9.220644   -1.099024   -0.087164
     58          1           0       13.530924   -1.239162   -1.058818
     59          1           0       13.218444    0.294416   -1.803566
     60          1           0        9.308562    2.167270    1.237004
     61          1           0       10.218742    2.901885   -0.090753
     62          1           0       10.631890    3.133052    1.510531
     63          1           0       11.520972   -0.307972    2.515703
     64          1           0        9.937260    0.217656    2.698929
     65          1           0       11.101711    1.261525    3.286142
     66          1           0      -10.154721    0.403729   -2.524504
     67          1           0      -11.656054    1.524908   -2.445535
     68          1           0      -11.650541   -0.192713   -3.340758
     69          1           0      -14.848473   -2.159341   -0.465676
     70          1           0        8.470961    0.433301    0.275537
     71          1           0       -8.639822    1.917555   -0.208447
     72          1           0       11.541720   -2.585907   -1.782984
     73          1           0       10.265283   -1.637684   -2.513745
     74          1           0       11.946731   -1.275246   -2.809550
     75          1           0       15.135241    0.967039    1.051093
     76          1           0        9.479374   -2.385926   -0.061467
     77          1           0       -5.555650   -1.142947    0.038018
     78          1           0       -7.028561   -1.232777    1.028356
     79          1           0       -7.041910   -1.482293   -0.820333
     80          1           0       -6.689682    2.627232   -0.387398
     81          1           0        6.663022   -3.830761    1.000856
     82          1           0        6.681178   -4.001617   -0.944307
     83          1           0        8.257620   -4.200367    0.084946
     84          1           0        6.607211   -0.236409   -0.366144
     85          1           0       -4.454839    0.577751   -0.228537
     86          1           0        4.777369   -2.460821    0.034420
     87          1           0       -4.106825    3.555826   -0.729337
     88          1           0        4.211849    0.340046   -0.368529
     89          1           0       -1.171564    3.903795   -1.966599
     90          1           0       -1.190931    4.361703   -0.121929
     91          1           0       -2.505992    4.643963   -1.169055
     92          1           0       -2.140619    0.521055   -0.089284
     93          1           0        2.328900    1.177090   -0.619243
     94          1           0        2.383322   -2.810251    1.200426
     95          1           0        0.940599   -2.506614   -0.168826
     96          1           0        2.578663   -3.069030   -0.458160
     97          1           0        0.383143    2.278245   -0.821580
     98          1           0       -0.194917   -0.687310   -0.402676
 ---------------------------------------------------------------------

 SCF Done:  E(RCAM-B3LYP) =  -1706.98251506     A.U. after   15 cycles

 Excitation energies and oscillator strengths:

 Excited State   1:      Singlet-A      2.3139 eV  535.83 nm  f=3.0939  <S**2>=0.000
     155 ->158        -0.14932
     156 ->157         0.69024
 This state for optimization and/or second-order correction.
 Total Energy, E(TD-HF/TD-DFT) =  -1706.89748139
 Copying the excited state density for this state as the 1-particle RhoCI density.

 The electronic state is 1-A.
 Alpha  occ. eigenvalues --  -19.21154 -19.20322 -10.31121 -10.29463 -10.27922
 Alpha  occ. eigenvalues --  -10.27459 -10.27356 -10.27338 -10.27156 -10.27126
 Alpha  occ. eigenvalues --  -10.27119 -10.27046 -10.27028 -10.26672 -10.26606
 Alpha  occ. eigenvalues --  -10.26590 -10.26572 -10.26416 -10.26397 -10.26302
 Alpha  occ. eigenvalues --  -10.26226 -10.26171 -10.26161 -10.25956 -10.25918
 Alpha  occ. eigenvalues --  -10.25751 -10.25705 -10.25683 -10.25647 -10.25606
 Alpha  occ. eigenvalues --  -10.25497 -10.25301 -10.25139 -10.25138 -10.25107
 Alpha  occ. eigenvalues --  -10.25053 -10.24987 -10.24752 -10.24385 -10.24154
 Alpha  occ. eigenvalues --  -10.24075 -10.23049  -1.09981  -1.07724  -0.93764
 Alpha  occ. eigenvalues --   -0.93345  -0.92537  -0.91794  -0.90768  -0.89821
 Alpha  occ. eigenvalues --   -0.88041  -0.87755  -0.86504  -0.85179  -0.84198
 Alpha  occ. eigenvalues --   -0.82492  -0.81753  -0.79981  -0.79636  -0.78429
 Alpha  occ. eigenvalues --   -0.76502  -0.76413  -0.75784  -0.75369  -0.75293
 Alpha  occ. eigenvalues --   -0.74776  -0.74598  -0.74087  -0.73462  -0.70894
 Alpha  occ. eigenvalues --   -0.68862  -0.67631  -0.66292  -0.65403  -0.64558
 Alpha  occ. eigenvalues --   -0.63629  -0.62929  -0.62156  -0.61544  -0.60222
 Alpha  occ. eigenvalues --   -0.59800  -0.59500  -0.57927  -0.56841  -0.55721
 Alpha  occ. eigenvalues --   -0.55416  -0.55087  -0.54741  -0.54258  -0.53400
 Alpha  occ. eigenvalues --   -0.52659  -0.52557  -0.52328  -0.51650  -0.50713
 Alpha  occ. eigenvalues --   -0.50135  -0.49906  -0.49784  -0.49572  -0.49428
 Alpha  occ. eigenvalues --   -0.49099  -0.48994  -0.48054  -0.47908  -0.47318
 Alpha  occ. eigenvalues --   -0.47190  -0.47028  -0.46530  -0.46455  -0.46093
 Alpha  occ. eigenvalues --   -0.45832  -0.45509  -0.45337  -0.44994  -0.44896
 Alpha  occ. eigenvalues --   -0.44411  -0.44272  -0.43696  -0.43457  -0.42876
 Alpha  occ. eigenvalues --   -0.42794  -0.42435  -0.42073  -0.41972  -0.41713
 Alpha  occ. eigenvalues --   -0.41582  -0.41448  -0.41137  -0.41056  -0.40762
 Alpha  occ. eigenvalues --   -0.40553  -0.40340  -0.39518  -0.39259  -0.38978
 Alpha  occ. eigenvalues --   -0.38746  -0.38609  -0.38443  -0.38219  -0.38041
 Alpha  occ. eigenvalues --   -0.37790  -0.37455  -0.37085  -0.36176  -0.35665
 Alpha  occ. eigenvalues --   -0.35534  -0.35132  -0.33960  -0.32173  -0.30408
 Alpha  occ. eigenvalues --   -0.30091  -0.29166  -0.27996  -0.26479  -0.23987
 Alpha  occ. eigenvalues --   -0.19830
 Alpha virt. eigenvalues --   -0.05510  -0.00545   0.02262   0.05207   0.07105
 Alpha virt. eigenvalues --    0.09046   0.10666   0.11599   0.12136   0.12223
 Alpha virt. eigenvalues --    0.13366   0.13505   0.13671   0.13823   0.14327

 Mulliken charges:
               1
     1  O   -0.576263
     2  O   -0.549252
     3  C    0.036993
     4  C   -0.124851
     5  C   -0.194824
     6  C    0.161336
     7  C    0.099881
     8  C   -0.026967
     9  C   -0.271119
    10  C   -0.288942
    11  C   -0.178668
    12  C   -0.118859
    13  C    0.127082
    14  C    0.069165
    15  C   -0.117632
    16  C   -0.225337
    17  C    0.074406
    18  C   -0.291548
    19  C   -0.318077
    20  C   -0.348086
    21  C   -0.058481
    22  C   -0.128588
    23  C   -0.376354
    24  C    0.091096
    25  C   -0.102615
    26  C   -0.373708
    27  C    0.126496
    28  C   -0.121344
    29  C   -0.367970
    30  C   -0.137603
    31  C   -0.067672
    32  C   -0.042843
    33  C   -0.082791
    34  C    0.074113
    35  C   -0.092810
    36  C    0.109263
    37  C   -0.360241
    38  C   -0.128877
    39  C   -0.145934
    40  C   -0.376674
    41  C   -0.068431
    42  C   -0.059290
    43  H    0.083942
    44  H    0.120070
    45  H    0.100294
    46  H    0.035004
    47  H    0.069077
    48  H    0.101425
    49  H    0.091041
    50  H    0.111763
    51  H    0.102866
    52  H    0.080112
    53  H    0.108048
    54  H    0.079887
    55  H    0.072438
    56  H    0.085816
    57  H    0.099527
    58  H    0.088738
    59  H    0.125440
    60  H    0.092259
    61  H    0.093926
    62  H    0.114342
    63  H    0.097827
    64  H    0.102638
    65  H    0.103135
    66  H    0.116458
    67  H    0.102112
    68  H    0.107476
    69  H    0.311406
    70  H    0.090468
    71  H    0.077677
    72  H    0.125892
    73  H    0.117218
    74  H    0.110113
    75  H    0.303781
    76  H    0.079297
    77  H    0.102326
    78  H    0.137220
    79  H    0.110871
    80  H    0.078246
    81  H    0.129985
    82  H    0.081852
    83  H    0.097178
    84  H    0.065585
    85  H    0.074700
    86  H    0.049627
    87  H    0.062049
    88  H    0.074557
    89  H    0.113719
    90  H    0.101981
    91  H    0.120412
    92  H    0.087975
    93  H    0.050372
    94  H    0.116005
    95  H    0.090151
    96  H    0.124248
    97  H    0.094425
    98  H    0.087827
 Sum of Mulliken charges =  -0.00000

 Dipole moment (field-independent basis, Debye):
    X=              0.8284    Y=             -0.4221    Z=             -0.4411  Tot=              1.0291
 Quadrupole moment (field-independent basis, Debye-Ang):
   XX=           -262.2866   YY=           -243.9200   ZZ=           -260.0497
   XY=             -3.1195   XZ=             39.1570   YZ=              2.0282

 Normal termination of Gaussian 16 at Mon Jul 15 01:39:29 2019.
