 Gaussian 16, Revision A.03,
 Gaussian 16:  ES64L-G16RevA.03 25-Dec-2016

 -------------------------------------
 # td=(NStates=1) CAM-B3LYP/6-31G(d,p)
 -------------------------------------

 --
 TD
 --
 Symbolic Z-matrix:
 Charge =  0 Multiplicity = 1

                         Standard orientation:
 ---------------------------------------------------------------------
 Center     Atomic      Atomic             Coordinates (Angstroms)
 Number     Number       Type             X           Y           Z
 ---------------------------------------------------------------------
      1          8           0      -14.107309   -2.055249    0.412777
      2          8           0       14.749521    1.005028   -0.145807
      3          6           0      -11.737685   -0.072812    1.236727
      4          6           0      -10.943568    0.337892   -0.062091
      5          6           0      -11.942666   -1.560165    1.263003
      6          6           0      -12.727512   -2.115048    0.082045
      7          6           0      -11.645598   -0.225797   -1.318096
      8          6           0       11.056673    0.944726    1.026164
      9          6           0      -11.001133    0.342834    2.512253
     10          6           0      -13.050997    0.659071    1.129081
     11          6           0       12.408922    1.603571    0.585702
     12          6           0      -12.358722   -1.357984   -1.226513
     13          6           0       13.475853    0.548543    0.147140
     14          6           0       10.620536   -0.078411    0.004093
     15          6           0       -9.478226   -0.011977    0.002063
     16          6           0       12.908120   -0.193669   -1.081300
     17          6           0       11.463997   -0.512342   -0.999590
     18          6           0       10.055522    2.071670    1.167737
     19          6           0       11.209779    0.266171    2.403379
     20          6           0      -11.401140    0.434020   -2.519803
     21          6           0       -8.499856    0.834577   -0.098463
     22          6           0        9.294683   -0.454166    0.144414
     23          6           0       10.941977   -1.347014   -2.145071
     24          6           0       -7.096145    0.544038   -0.146755
     25          6           0        8.768560   -1.675354   -0.029477
     26          6           0       -6.638268   -0.870516   -0.026585
     27          6           0        7.437584   -2.131395    0.005046
     28          6           0       -6.213452    1.530745   -0.288722
     29          6           0        7.133891   -3.671283    0.011810
     30          6           0        6.377740   -1.364613   -0.136019
     31          6           0       -4.811897    1.445738   -0.438910
     32          6           0        5.111387   -1.544844    0.024828
     33          6           0       -4.013364    2.582952   -0.505526
     34          6           0       -2.613012    2.703461   -0.483395
     35          6           0        4.095643   -0.589701   -0.182681
     36          6           0        2.665835   -0.796782    0.047454
     37          6           0       -1.801618    3.973822   -0.709707
     38          6           0       -1.740198    1.599216   -0.254629
     39          6           0        1.819520    0.283868   -0.245856
     40          6           0        2.289375   -2.219007    0.267937
     41          6           0       -0.377824    1.525169   -0.285663
     42          6           0        0.383679    0.328554   -0.057657
     43          1           0      -11.080875    1.387073   -0.088055
     44          1           0      -12.439198   -2.072120    2.132852
     45          1           0      -11.051216   -2.144182    1.260711
     46          1           0      -12.621862   -3.188792    0.037861
     47          1           0       -9.872374    0.047919    2.467565
     48          1           0      -11.019884    1.463026    2.553048
     49          1           0      -11.410442   -0.048375    3.396070
     50          1           0      -13.563371    0.363810    0.232142
     51          1           0      -13.825090    0.523886    1.913759
     52          1           0      -12.979166    1.817820    1.123890
     53          1           0       12.286469    2.291900   -0.308048
     54          1           0       12.889844    2.167610    1.358131
     55          1           0      -13.085577   -1.597980   -2.115713
     56          1           0       13.408858   -0.095876    1.062552
     57          1           0       -9.222416   -1.154236    0.138478
     58          1           0       13.418016   -1.100573   -1.229140
     59          1           0       13.165851    0.307075   -2.062364
     60          1           0        9.045596    1.941556    1.557062
     61          1           0        9.588131    2.370876    0.081322
     62          1           0       10.622588    2.855790    1.791845
     63          1           0       12.135083   -0.397244    2.464646
     64          1           0       10.286518   -0.263003    2.610230
     65          1           0       11.672130    0.706386    3.303495
     66          1           0      -10.315107    0.496476   -2.526186
     67          1           0      -11.848045    1.377534   -2.474713
     68          1           0      -11.547296   -0.198475   -3.275187
     69          1           0      -14.633661   -2.484364   -0.319839
     70          1           0        8.517562    0.396606    0.241705
     71          1           0       -8.658714    1.888553   -0.224552
     72          1           0       11.104651   -2.558374   -1.987206
     73          1           0        9.827020   -1.277375   -2.231991
     74          1           0       11.251096   -0.959365   -3.185835
     75          1           0       15.184980    1.002618    0.849352
     76          1           0        9.329218   -2.577680   -0.093826
     77          1           0       -5.662936   -0.990766   -0.011167
     78          1           0       -7.138421   -1.393450    0.758882
     79          1           0       -7.140964   -1.538307   -1.046507
     80          1           0       -6.715271    2.522427   -0.348787
     81          1           0        7.128596   -3.968540    1.287156
     82          1           0        6.158881   -3.924784   -0.458568
     83          1           0        8.019028   -4.066703   -0.425766
     84          1           0        6.555677   -0.357392   -0.464107
     85          1           0       -4.289066    0.546479   -0.280382
     86          1           0        4.745361   -2.662022    0.471393
     87          1           0       -4.412268    3.476703   -0.668330
     88          1           0        4.471370    0.513100   -0.477197
     89          1           0       -1.374285    3.994296   -1.834914
     90          1           0       -1.125924    3.916976    0.095864
     91          1           0       -2.308143    4.941560   -0.566168
     92          1           0       -2.213268    0.595455   -0.163448
     93          1           0        2.308604    1.269538   -0.387154
     94          1           0        3.020818   -2.734209    1.258606
     95          1           0        1.237970   -2.467500    0.680294
     96          1           0        2.230196   -2.848772   -0.634055
     97          1           0        0.407131    2.407463   -0.340667
     98          1           0       -0.158464   -0.724829    0.055016
 ---------------------------------------------------------------------

 SCF Done:  E(RCAM-B3LYP) =  -1706.96602461     A.U. after   15 cycles

 Excitation energies and oscillator strengths:

 Excited State   1:      Singlet-A      1.9468 eV  636.85 nm  f=3.0819  <S**2>=0.000
     155 ->158        -0.13947
     156 ->157         0.69769
     156 <-157        -0.10402
 This state for optimization and/or second-order correction.
 Total Energy, E(TD-HF/TD-DFT) =  -1706.89447958
 Copying the excited state density for this state as the 1-particle RhoCI density.

 The electronic state is 1-A.
 Alpha  occ. eigenvalues --  -19.23192 -19.20522 -10.30499 -10.29998 -10.28472
 Alpha  occ. eigenvalues --  -10.28370 -10.28235 -10.27841 -10.27688 -10.27657
 Alpha  occ. eigenvalues --  -10.27621 -10.27433 -10.27308 -10.27156 -10.26614
 Alpha  occ. eigenvalues --  -10.26499 -10.26482 -10.26403 -10.26384 -10.26324
 Alpha  occ. eigenvalues --  -10.26145 -10.26121 -10.26097 -10.26097 -10.26081
 Alpha  occ. eigenvalues --  -10.26020 -10.25908 -10.25864 -10.25781 -10.25505
 Alpha  occ. eigenvalues --  -10.25448 -10.25242 -10.25239 -10.25084 -10.24920
 Alpha  occ. eigenvalues --  -10.24915 -10.24600 -10.24043 -10.23929 -10.23296
 Alpha  occ. eigenvalues --  -10.23055 -10.22981  -1.09789  -1.08447  -0.94207
 Alpha  occ. eigenvalues --   -0.94109  -0.92470  -0.92371  -0.91026  -0.89901
 Alpha  occ. eigenvalues --   -0.88254  -0.87254  -0.86855  -0.86188  -0.84703
 Alpha  occ. eigenvalues --   -0.83070  -0.82149  -0.81047  -0.79262  -0.78060
 Alpha  occ. eigenvalues --   -0.77334  -0.76959  -0.76227  -0.75549  -0.75209
 Alpha  occ. eigenvalues --   -0.75193  -0.75066  -0.74630  -0.72395  -0.70905
 Alpha  occ. eigenvalues --   -0.69256  -0.67588  -0.66436  -0.64702  -0.64078
 Alpha  occ. eigenvalues --   -0.63421  -0.62339  -0.62212  -0.59898  -0.59687
 Alpha  occ. eigenvalues --   -0.59149  -0.58932  -0.58255  -0.57604  -0.56604
 Alpha  occ. eigenvalues --   -0.56311  -0.55399  -0.55090  -0.54847  -0.54085
 Alpha  occ. eigenvalues --   -0.53566  -0.53184  -0.52789  -0.52307  -0.51731
 Alpha  occ. eigenvalues --   -0.51229  -0.50066  -0.49652  -0.49138  -0.48934
 Alpha  occ. eigenvalues --   -0.48612  -0.48462  -0.48289  -0.47986  -0.47874
 Alpha  occ. eigenvalues --   -0.47673  -0.47453  -0.47010  -0.46737  -0.46243
 Alpha  occ. eigenvalues --   -0.45900  -0.45506  -0.45415  -0.44955  -0.44718
 Alpha  occ. eigenvalues --   -0.44644  -0.44415  -0.44085  -0.43664  -0.43453
 Alpha  occ. eigenvalues --   -0.42593  -0.42354  -0.41961  -0.41772  -0.41732
 Alpha  occ. eigenvalues --   -0.41492  -0.41171  -0.40902  -0.40647  -0.40306
 Alpha  occ. eigenvalues --   -0.40193  -0.40042  -0.39837  -0.39371  -0.39127
 Alpha  occ. eigenvalues --   -0.38910  -0.38785  -0.38348  -0.38290  -0.37930
 Alpha  occ. eigenvalues --   -0.37640  -0.37004  -0.36760  -0.35933  -0.35535
 Alpha  occ. eigenvalues --   -0.35123  -0.35072  -0.34026  -0.32362  -0.31687
 Alpha  occ. eigenvalues --   -0.31169  -0.29295  -0.28834  -0.27292  -0.23552
 Alpha  occ. eigenvalues --   -0.18973
 Alpha virt. eigenvalues --   -0.06753  -0.01425   0.03032   0.05814   0.06911
 Alpha virt. eigenvalues --    0.08597   0.08997   0.10380   0.11375   0.11869
 Alpha virt. eigenvalues --    0.12528   0.12766   0.13229   0.13390   0.13456

 Mulliken charges:
               1
     1  O   -0.553205
     2  O   -0.543150
     3  C    0.025364
     4  C   -0.129141
     5  C   -0.172670
     6  C    0.132448
     7  C    0.101018
     8  C   -0.005929
     9  C   -0.300833
    10  C   -0.300577
    11  C   -0.188689
    12  C   -0.140918
    13  C    0.156207
    14  C    0.078543
    15  C   -0.094391
    16  C   -0.223627
    17  C    0.075327
    18  C   -0.294484
    19  C   -0.304493
    20  C   -0.341966
    21  C   -0.069571
    22  C   -0.125978
    23  C   -0.366087
    24  C    0.146500
    25  C   -0.075068
    26  C   -0.346651
    27  C    0.056147
    28  C   -0.135482
    29  C   -0.339747
    30  C   -0.087137
    31  C   -0.074025
    32  C   -0.064425
    33  C   -0.092367
    34  C    0.063651
    35  C   -0.140228
    36  C    0.128224
    37  C   -0.359278
    38  C   -0.120967
    39  C   -0.129058
    40  C   -0.364046
    41  C   -0.079849
    42  C   -0.093432
    43  H    0.091416
    44  H    0.104237
    45  H    0.095162
    46  H    0.075163
    47  H    0.088046
    48  H    0.087696
    49  H    0.110194
    50  H    0.123207
    51  H    0.101822
    52  H    0.067358
    53  H    0.094777
    54  H    0.075107
    55  H    0.050131
    56  H    0.064943
    57  H    0.083094
    58  H    0.119757
    59  H    0.112008
    60  H    0.110871
    61  H    0.076432
    62  H    0.099152
    63  H    0.079855
    64  H    0.118182
    65  H    0.098354
    66  H    0.118660
    67  H    0.124770
    68  H    0.117274
    69  H    0.301015
    70  H    0.085089
    71  H    0.074088
    72  H    0.090614
    73  H    0.123635
    74  H    0.100780
    75  H    0.313526
    76  H    0.066543
    77  H    0.111960
    78  H    0.125813
    79  H    0.065342
    80  H    0.074567
    81  H    0.076076
    82  H    0.127494
    83  H    0.114823
    84  H    0.063543
    85  H    0.085737
    86  H    0.062663
    87  H    0.068349
    88  H    0.076402
    89  H    0.113454
    90  H    0.137375
    91  H    0.100911
    92  H    0.076169
    93  H    0.084269
    94  H    0.083065
    95  H    0.100507
    96  H    0.139510
    97  H    0.085644
    98  H    0.077407
 Sum of Mulliken charges =  -0.00000

 Dipole moment (field-independent basis, Debye):
    X=              0.5634    Y=             -0.9999    Z=             -0.0894  Tot=              1.1512
 Quadrupole moment (field-independent basis, Debye-Ang):
   XX=           -263.1236   YY=           -247.0271   ZZ=           -262.3526
   XY=             -1.1452   XZ=             39.9954   YZ=              2.0856

 Normal termination of Gaussian 16 at Sun Jul 14 08:20:28 2019.
