 Gaussian 16, Revision A.03,
 Gaussian 16:  ES64L-G16RevA.03 25-Dec-2016

 -------------------------------------
 # td=(NStates=1) CAM-B3LYP/6-31G(d,p)
 -------------------------------------

 --
 TD
 --
 Symbolic Z-matrix:
 Charge =  0 Multiplicity = 1

                         Standard orientation:
 ---------------------------------------------------------------------
 Center     Atomic      Atomic             Coordinates (Angstroms)
 Number     Number       Type             X           Y           Z
 ---------------------------------------------------------------------
      1          8           0      -14.089730   -1.882441    0.802608
      2          8           0       14.817198    0.905691    0.435816
      3          6           0      -11.782669    0.142847    1.240861
      4          6           0      -10.910103    0.236630   -0.046595
      5          6           0      -11.900561   -1.335862    1.685637
      6          6           0      -12.697099   -2.078211    0.541630
      7          6           0      -11.523651   -0.611427   -1.200029
      8          6           0       11.068251    0.952718    1.085848
      9          6           0      -10.978564    0.869657    2.404165
     10          6           0      -13.133198    0.978838    1.088484
     11          6           0       12.540845    1.452648    0.887333
     12          6           0      -12.342447   -1.604122   -0.855496
     13          6           0       13.446532    0.351659    0.614373
     14          6           0       10.667431   -0.111159    0.073245
     15          6           0       -9.491934   -0.066818    0.116420
     16          6           0       13.101421   -0.230433   -0.779629
     17          6           0       11.539135   -0.522522   -0.828264
     18          6           0       10.119971    2.195777    0.992173
     19          6           0       10.974159    0.471555    2.479376
     20          6           0      -11.275546   -0.302199   -2.601618
     21          6           0       -8.420874    0.791883   -0.214651
     22          6           0        9.275173   -0.417863    0.166355
     23          6           0       11.309513   -1.409360   -2.081979
     24          6           0       -7.052981    0.497476   -0.125496
     25          6           0        8.754229   -1.684823   -0.133848
     26          6           0       -6.673129   -0.868376    0.348650
     27          6           0        7.367510   -2.063545   -0.035411
     28          6           0       -6.161553    1.461072   -0.493960
     29          6           0        7.045664   -3.450648    0.248577
     30          6           0        6.373982   -1.229736   -0.334654
     31          6           0       -4.775549    1.452767   -0.528955
     32          6           0        5.016999   -1.532506   -0.197361
     33          6           0       -3.948173    2.589956   -0.663529
     34          6           0       -2.568672    2.580754   -0.821561
     35          6           0        3.940800   -0.613461   -0.363440
     36          6           0        2.580964   -0.805222   -0.348497
     37          6           0       -1.904429    3.878755   -1.046081
     38          6           0       -1.884692    1.414062   -0.710803
     39          6           0        1.788947    0.272270   -0.558884
     40          6           0        2.045612   -2.151108   -0.078422
     41          6           0       -0.391196    1.490587   -0.755371
     42          6           0        0.356135    0.330320   -0.513830
     43          1           0      -10.947179    1.310146   -0.432909
     44          1           0      -12.600318   -1.514672    2.676600
     45          1           0      -11.039071   -1.808565    1.852858
     46          1           0      -12.380055   -3.120791    0.666468
     47          1           0      -10.022960    0.347175    2.741230
     48          1           0      -10.839000    1.985184    2.091909
     49          1           0      -11.500331    1.145410    3.363076
     50          1           0      -13.700860    0.720382    0.236742
     51          1           0      -13.611220    0.966055    1.953515
     52          1           0      -12.864572    2.021039    0.947579
     53          1           0       12.583963    2.238925    0.058090
     54          1           0       12.843288    1.829612    1.834679
     55          1           0      -12.874556   -2.374893   -1.628248
     56          1           0       13.344487   -0.450335    1.166277
     57          1           0       -9.253667   -1.099794    0.451409
     58          1           0       13.667613   -1.146565   -1.215370
     59          1           0       13.488369    0.452409   -1.598957
     60          1           0        9.025882    1.910276    1.236569
     61          1           0        9.916320    2.588659   -0.027903
     62          1           0       10.206479    2.945739    1.644173
     63          1           0       11.592061   -0.337392    2.599742
     64          1           0        9.937240   -0.044510    2.649533
     65          1           0       11.238450    1.172536    3.184875
     66          1           0      -10.188470   -0.178888   -2.624230
     67          1           0      -11.822405    0.655863   -2.890163
     68          1           0      -11.597840   -1.205009   -3.244326
     69          1           0      -14.533887   -2.772837    0.181299
     70          1           0        8.537899    0.296243    0.524682
     71          1           0       -8.991057    1.584054   -0.778805
     72          1           0       11.646752   -2.415638   -1.999024
     73          1           0       10.261483   -1.504901   -2.185399
     74          1           0       11.639459   -0.969922   -3.158152
     75          1           0       15.022242    1.381831    1.305981
     76          1           0        9.567625   -2.569276   -0.344170
     77          1           0       -5.537562   -0.877301    0.232904
     78          1           0       -6.998482   -1.008457    1.382340
     79          1           0       -7.114936   -1.641386   -0.334400
     80          1           0       -6.570321    2.540251   -0.853056
     81          1           0        6.665789   -3.843449    1.129423
     82          1           0        6.392416   -3.788663   -0.444528
     83          1           0        7.854068   -4.136533    0.319300
     84          1           0        6.355699   -0.101967   -0.764518
     85          1           0       -4.187649    0.486656   -0.312180
     86          1           0        4.741154   -2.522512    0.113721
     87          1           0       -4.474969    3.665557   -1.161567
     88          1           0        4.373200    0.375496   -0.650775
     89          1           0       -1.594290    3.929151   -2.141198
     90          1           0       -0.967270    4.124047   -0.277932
     91          1           0       -2.794587    4.721228   -0.997183
     92          1           0       -2.425943    0.529461   -0.424066
     93          1           0        2.229036    1.261927   -0.658879
     94          1           0        1.972253   -2.472869    1.045884
     95          1           0        0.929261   -2.258851   -0.358080
     96          1           0        2.592390   -2.935225   -0.631858
     97          1           0        0.128514    2.351493   -0.976796
     98          1           0       -0.117224   -0.558572   -0.312176
 ---------------------------------------------------------------------

 SCF Done:  E(RCAM-B3LYP) =  -1706.97698016     A.U. after   15 cycles

 Excitation energies and oscillator strengths:

 Excited State   1:      Singlet-A      2.1727 eV  570.65 nm  f=3.1226  <S**2>=0.000
     155 ->158        -0.16250
     156 ->157         0.68592
 This state for optimization and/or second-order correction.
 Total Energy, E(TD-HF/TD-DFT) =  -1706.89713507
 Copying the excited state density for this state as the 1-particle RhoCI density.

 The electronic state is 1-A.
 Alpha  occ. eigenvalues --  -19.22806 -19.20953 -10.30240 -10.28829 -10.28291
 Alpha  occ. eigenvalues --  -10.28146 -10.27696 -10.27505 -10.27438 -10.27289
 Alpha  occ. eigenvalues --  -10.27110 -10.27109 -10.27108 -10.27066 -10.26904
 Alpha  occ. eigenvalues --  -10.26834 -10.26790 -10.26757 -10.26555 -10.26550
 Alpha  occ. eigenvalues --  -10.26513 -10.26473 -10.26322 -10.26270 -10.26255
 Alpha  occ. eigenvalues --  -10.26125 -10.26053 -10.26008 -10.25984 -10.25902
 Alpha  occ. eigenvalues --  -10.25840 -10.25715 -10.25661 -10.25652 -10.25198
 Alpha  occ. eigenvalues --  -10.25026 -10.24995 -10.24752 -10.24180 -10.23386
 Alpha  occ. eigenvalues --  -10.23285 -10.22343  -1.06779  -1.06474  -0.94171
 Alpha  occ. eigenvalues --   -0.93272  -0.92811  -0.92413  -0.91389  -0.90852
 Alpha  occ. eigenvalues --   -0.86912  -0.86410  -0.86320  -0.85498  -0.84799
 Alpha  occ. eigenvalues --   -0.82937  -0.82034  -0.80542  -0.80132  -0.77906
 Alpha  occ. eigenvalues --   -0.77249  -0.76902  -0.76521  -0.76081  -0.75795
 Alpha  occ. eigenvalues --   -0.75588  -0.74896  -0.73658  -0.73281  -0.70806
 Alpha  occ. eigenvalues --   -0.69303  -0.67057  -0.66298  -0.65747  -0.64611
 Alpha  occ. eigenvalues --   -0.63100  -0.62891  -0.61866  -0.60574  -0.59741
 Alpha  occ. eigenvalues --   -0.59449  -0.58227  -0.57764  -0.57229  -0.56523
 Alpha  occ. eigenvalues --   -0.55715  -0.55482  -0.54010  -0.53614  -0.53352
 Alpha  occ. eigenvalues --   -0.52997  -0.52560  -0.51852  -0.51429  -0.50927
 Alpha  occ. eigenvalues --   -0.50488  -0.50083  -0.49632  -0.49548  -0.49295
 Alpha  occ. eigenvalues --   -0.49245  -0.48789  -0.48486  -0.48342  -0.48155
 Alpha  occ. eigenvalues --   -0.48037  -0.47869  -0.47555  -0.46958  -0.46730
 Alpha  occ. eigenvalues --   -0.46254  -0.45886  -0.45497  -0.44546  -0.44112
 Alpha  occ. eigenvalues --   -0.43990  -0.43732  -0.43508  -0.43044  -0.42861
 Alpha  occ. eigenvalues --   -0.42712  -0.42500  -0.42198  -0.41810  -0.41710
 Alpha  occ. eigenvalues --   -0.41349  -0.41135  -0.40910  -0.40820  -0.40468
 Alpha  occ. eigenvalues --   -0.40389  -0.40313  -0.40089  -0.39681  -0.39299
 Alpha  occ. eigenvalues --   -0.39119  -0.38934  -0.38780  -0.38460  -0.37946
 Alpha  occ. eigenvalues --   -0.37689  -0.37482  -0.36860  -0.36436  -0.35728
 Alpha  occ. eigenvalues --   -0.34756  -0.34090  -0.33229  -0.32584  -0.32351
 Alpha  occ. eigenvalues --   -0.32044  -0.29680  -0.29246  -0.26964  -0.23350
 Alpha  occ. eigenvalues --   -0.19709
 Alpha virt. eigenvalues --   -0.05903  -0.01831   0.02527   0.05551   0.06581
 Alpha virt. eigenvalues --    0.08297   0.09520   0.10461   0.11644   0.12450
 Alpha virt. eigenvalues --    0.12516   0.13024   0.13550   0.13749   0.14012

 Mulliken charges:
               1
     1  O   -0.525492
     2  O   -0.576057
     3  C    0.024188
     4  C   -0.149956
     5  C   -0.171579
     6  C    0.108653
     7  C    0.119573
     8  C   -0.044187
     9  C   -0.308505
    10  C   -0.293002
    11  C   -0.176177
    12  C   -0.102730
    13  C    0.172784
    14  C    0.112772
    15  C   -0.079961
    16  C   -0.225974
    17  C    0.017091
    18  C   -0.311466
    19  C   -0.295319
    20  C   -0.352359
    21  C   -0.089233
    22  C   -0.105111
    23  C   -0.371525
    24  C    0.097381
    25  C   -0.132727
    26  C   -0.360301
    27  C    0.087381
    28  C   -0.108222
    29  C   -0.392837
    30  C   -0.104443
    31  C   -0.078128
    32  C   -0.086340
    33  C   -0.134691
    34  C    0.140269
    35  C   -0.138517
    36  C    0.164358
    37  C   -0.368757
    38  C   -0.105574
    39  C   -0.132976
    40  C   -0.385779
    41  C   -0.095159
    42  C   -0.071862
    43  H    0.081557
    44  H    0.092108
    45  H    0.101799
    46  H    0.077682
    47  H    0.094977
    48  H    0.079465
    49  H    0.092889
    50  H    0.121842
    51  H    0.117342
    52  H    0.086146
    53  H    0.107589
    54  H    0.077582
    55  H    0.045729
    56  H    0.101245
    57  H    0.076347
    58  H    0.096322
    59  H    0.114620
    60  H    0.080368
    61  H    0.103772
    62  H    0.109985
    63  H    0.105295
    64  H    0.092501
    65  H    0.107363
    66  H    0.116722
    67  H    0.115653
    68  H    0.107973
    69  H    0.291669
    70  H    0.101563
    71  H    0.078445
    72  H    0.121734
    73  H    0.120758
    74  H    0.093687
    75  H    0.297204
    76  H    0.079540
    77  H    0.096784
    78  H    0.132184
    79  H    0.123675
    80  H    0.078741
    81  H    0.126420
    82  H    0.133038
    83  H    0.106583
    84  H    0.076734
    85  H    0.080941
    86  H    0.074932
    87  H    0.054929
    88  H    0.068827
    89  H    0.128142
    90  H    0.109746
    91  H    0.089997
    92  H    0.083877
    93  H    0.078343
    94  H    0.115597
    95  H    0.102902
    96  H    0.120635
    97  H    0.089055
    98  H    0.068938
 Sum of Mulliken charges =  -0.00000

 Dipole moment (field-independent basis, Debye):
    X=             -1.0837    Y=             -1.8546    Z=              0.4742  Tot=              2.1997
 Quadrupole moment (field-independent basis, Debye-Ang):
   XX=           -300.9325   YY=           -239.4827   ZZ=           -260.8418
   XY=             15.2825   XZ=             33.9821   YZ=             -0.4279

 Normal termination of Gaussian 16 at Mon Jul 15 12:42:10 2019.
