 Gaussian 16, Revision A.03,
 Gaussian 16:  ES64L-G16RevA.03 25-Dec-2016

 -------------------------------------
 # td=(NStates=1) CAM-B3LYP/6-31G(d,p)
 -------------------------------------

 --
 TD
 --
 Symbolic Z-matrix:
 Charge =  0 Multiplicity = 1

                         Standard orientation:
 ---------------------------------------------------------------------
 Center     Atomic      Atomic             Coordinates (Angstroms)
 Number     Number       Type             X           Y           Z
 ---------------------------------------------------------------------
      1          8           0      -14.199076   -1.922505    0.464590
      2          8           0       14.704146    1.212003    0.081728
      3          6           0      -11.806102    0.129533    1.297308
      4          6           0      -11.084713    0.386109   -0.088591
      5          6           0      -12.046783   -1.366049    1.433353
      6          6           0      -12.787961   -2.019930    0.297522
      7          6           0      -11.652275   -0.371812   -1.216358
      8          6           0       11.155949    0.849841    1.174469
      9          6           0      -10.922325    0.550379    2.502260
     10          6           0      -13.108673    0.908906    1.318637
     11          6           0       12.560403    1.426824    0.976499
     12          6           0      -12.443930   -1.434596   -1.124275
     13          6           0       13.574202    0.466947    0.289868
     14          6           0       10.750014   -0.049653    0.026766
     15          6           0       -9.567527   -0.150729    0.012704
     16          6           0       12.939021    0.029933   -1.092696
     17          6           0       11.537517   -0.462829   -0.987821
     18          6           0       10.153543    2.003976    1.434998
     19          6           0       11.138848    0.075778    2.417249
     20          6           0      -11.342498    0.060344   -2.661432
     21          6           0       -8.482745    0.722279   -0.071315
     22          6           0        9.255118   -0.486369    0.079390
     23          6           0       11.186738   -1.169836   -2.267081
     24          6           0       -7.084207    0.448516   -0.065437
     25          6           0        8.851334   -1.710330   -0.262326
     26          6           0       -6.629937   -0.911008    0.131574
     27          6           0        7.395064   -2.193403   -0.108876
     28          6           0       -6.247827    1.523879   -0.280978
     29          6           0        7.149676   -3.660525   -0.005683
     30          6           0        6.399050   -1.177232   -0.295970
     31          6           0       -4.809815    1.390591   -0.442173
     32          6           0        5.017492   -1.538250   -0.058106
     33          6           0       -4.000415    2.547771   -0.671003
     34          6           0       -2.588193    2.640086   -0.722926
     35          6           0        4.051187   -0.697231   -0.146357
     36          6           0        2.655963   -0.840424   -0.099346
     37          6           0       -1.836442    3.913292   -1.079068
     38          6           0       -1.758803    1.500653   -0.532803
     39          6           0        1.804237    0.188200   -0.369807
     40          6           0        2.063664   -2.133875    0.492287
     41          6           0       -0.352815    1.464725   -0.524428
     42          6           0        0.332521    0.269206   -0.321749
     43          1           0      -11.044683    1.365517   -0.475922
     44          1           0      -12.648063   -1.434761    2.462339
     45          1           0      -11.153051   -2.002430    1.463626
     46          1           0      -12.525478   -3.080266    0.178790
     47          1           0      -10.047122   -0.014315    2.610938
     48          1           0      -10.435577    1.469336    2.421329
     49          1           0      -11.576236    0.744644    3.523641
     50          1           0      -13.698513    0.362758    0.596658
     51          1           0      -13.625195    0.950827    2.362498
     52          1           0      -12.744864    2.039436    0.957907
     53          1           0       12.373157    2.334913    0.365189
     54          1           0       12.796530    1.911574    1.923668
     55          1           0      -12.877885   -1.947271   -1.858603
     56          1           0       13.593268   -0.304058    0.835655
     57          1           0       -9.411327   -1.168174    0.188816
     58          1           0       13.560785   -0.933896   -1.373388
     59          1           0       13.097359    0.766331   -1.837109
     60          1           0        9.284362    1.661157    1.882853
     61          1           0       10.044279    2.631181    0.550378
     62          1           0       10.687943    2.711940    2.159111
     63          1           0       11.957552   -0.777625    2.364038
     64          1           0       10.133875   -0.517229    2.685258
     65          1           0       11.610631    0.756198    3.155659
     66          1           0      -10.210536   -0.039049   -2.865493
     67          1           0      -11.701881    1.114496   -3.029633
     68          1           0      -11.993827   -0.659450   -3.303865
     69          1           0      -14.846072   -2.273489   -0.186783
     70          1           0        8.464722    0.066640    0.351177
     71          1           0       -8.586704    1.734664   -0.120225
     72          1           0       11.701528   -2.102421   -2.201317
     73          1           0       10.112792   -1.218053   -2.482686
     74          1           0       11.671462   -0.598939   -3.195693
     75          1           0       15.218535    1.221011    0.978816
     76          1           0        9.679273   -2.473835   -0.558011
     77          1           0       -5.659379   -1.206848    0.107300
     78          1           0       -7.018927   -1.170612    1.086166
     79          1           0       -7.049270   -1.733419   -0.716870
     80          1           0       -6.660869    2.449781   -0.683681
     81          1           0        7.036563   -3.994279    1.089627
     82          1           0        6.392808   -4.076187   -0.660738
     83          1           0        8.038465   -3.946304   -0.216383
     84          1           0        6.680100   -0.167209   -0.466476
     85          1           0       -4.329307    0.479199   -0.152739
     86          1           0        4.783770   -2.549151    0.114159
     87          1           0       -4.631503    3.389638   -0.683017
     88          1           0        4.223456    0.412878   -0.188275
     89          1           0       -1.220001    3.653411   -2.142360
     90          1           0       -1.196259    4.364045   -0.536288
     91          1           0       -2.481781    4.850279   -1.201084
     92          1           0       -2.223133    0.428525   -0.438576
     93          1           0        2.224028    1.128094   -0.464697
     94          1           0        2.389441   -2.284081    1.392490
     95          1           0        1.008973   -2.218895    0.518747
     96          1           0        2.416869   -2.873103   -0.456104
     97          1           0        0.137181    2.450497   -0.381167
     98          1           0       -0.268158   -0.741729   -0.149867
 ---------------------------------------------------------------------

 SCF Done:  E(RCAM-B3LYP) =  -1706.95267888     A.U. after   15 cycles

 Excitation energies and oscillator strengths:

 Excited State   1:      Singlet-A      2.2590 eV  548.85 nm  f=2.7380  <S**2>=0.000
     155 ->158         0.13754
     156 ->157         0.69416
 This state for optimization and/or second-order correction.
 Total Energy, E(TD-HF/TD-DFT) =  -1706.86966266
 Copying the excited state density for this state as the 1-particle RhoCI density.

 The electronic state is 1-A.
 Alpha  occ. eigenvalues --  -19.22173 -19.20016 -10.30415 -10.29316 -10.28460
 Alpha  occ. eigenvalues --  -10.28172 -10.27909 -10.26921 -10.26670 -10.26653
 Alpha  occ. eigenvalues --  -10.26612 -10.26570 -10.26569 -10.26560 -10.26468
 Alpha  occ. eigenvalues --  -10.26462 -10.26437 -10.26371 -10.26253 -10.26230
 Alpha  occ. eigenvalues --  -10.26180 -10.26170 -10.26150 -10.26035 -10.26005
 Alpha  occ. eigenvalues --  -10.25652 -10.25635 -10.25593 -10.25383 -10.25368
 Alpha  occ. eigenvalues --  -10.25361 -10.25336 -10.25169 -10.25119 -10.25119
 Alpha  occ. eigenvalues --  -10.25057 -10.24940 -10.24709 -10.24455 -10.24021
 Alpha  occ. eigenvalues --  -10.23651 -10.23560  -1.10501  -1.07657  -0.93689
 Alpha  occ. eigenvalues --   -0.93109  -0.92199  -0.91516  -0.90316  -0.89618
 Alpha  occ. eigenvalues --   -0.87915  -0.86708  -0.86390  -0.84922  -0.83889
 Alpha  occ. eigenvalues --   -0.83128  -0.81968  -0.80643  -0.79890  -0.78014
 Alpha  occ. eigenvalues --   -0.77214  -0.77092  -0.75991  -0.75780  -0.75522
 Alpha  occ. eigenvalues --   -0.74805  -0.74552  -0.73893  -0.73008  -0.70400
 Alpha  occ. eigenvalues --   -0.68697  -0.67679  -0.67022  -0.65368  -0.63812
 Alpha  occ. eigenvalues --   -0.63349  -0.62158  -0.62007  -0.60882  -0.60719
 Alpha  occ. eigenvalues --   -0.60338  -0.59744  -0.58934  -0.57773  -0.56194
 Alpha  occ. eigenvalues --   -0.55973  -0.55106  -0.54896  -0.54019  -0.53497
 Alpha  occ. eigenvalues --   -0.53314  -0.52761  -0.52523  -0.52198  -0.51271
 Alpha  occ. eigenvalues --   -0.51155  -0.50728  -0.50115  -0.49683  -0.49379
 Alpha  occ. eigenvalues --   -0.49140  -0.48655  -0.48211  -0.48143  -0.48028
 Alpha  occ. eigenvalues --   -0.47567  -0.46920  -0.46630  -0.46367  -0.45938
 Alpha  occ. eigenvalues --   -0.45619  -0.45279  -0.45164  -0.44654  -0.44472
 Alpha  occ. eigenvalues --   -0.44016  -0.43729  -0.43656  -0.43507  -0.43006
 Alpha  occ. eigenvalues --   -0.42931  -0.42501  -0.42293  -0.42224  -0.41839
 Alpha  occ. eigenvalues --   -0.41685  -0.41618  -0.41534  -0.41068  -0.40859
 Alpha  occ. eigenvalues --   -0.40555  -0.40313  -0.39570  -0.39299  -0.39206
 Alpha  occ. eigenvalues --   -0.39187  -0.38499  -0.38305  -0.38063  -0.37600
 Alpha  occ. eigenvalues --   -0.37068  -0.36841  -0.36751  -0.36546  -0.35244
 Alpha  occ. eigenvalues --   -0.35126  -0.34786  -0.33857  -0.31388  -0.31262
 Alpha  occ. eigenvalues --   -0.30633  -0.28956  -0.28598  -0.26868  -0.23809
 Alpha  occ. eigenvalues --   -0.19592
 Alpha virt. eigenvalues --   -0.05342  -0.00548   0.02895   0.06219   0.07681
 Alpha virt. eigenvalues --    0.08966   0.10894   0.11205   0.11733   0.12272
 Alpha virt. eigenvalues --    0.12911   0.13189   0.13249   0.13778   0.13963

 Mulliken charges:
               1
     1  O   -0.570540
     2  O   -0.549312
     3  C    0.031173
     4  C   -0.128605
     5  C   -0.167810
     6  C    0.142985
     7  C    0.128611
     8  C   -0.035617
     9  C   -0.295152
    10  C   -0.276381
    11  C   -0.204748
    12  C   -0.127529
    13  C    0.196960
    14  C    0.082609
    15  C   -0.116550
    16  C   -0.230114
    17  C    0.035520
    18  C   -0.297250
    19  C   -0.269410
    20  C   -0.353542
    21  C   -0.085996
    22  C   -0.098539
    23  C   -0.352815
    24  C    0.138414
    25  C   -0.121626
    26  C   -0.369302
    27  C    0.035896
    28  C   -0.159853
    29  C   -0.353785
    30  C   -0.112354
    31  C   -0.066264
    32  C   -0.079569
    33  C   -0.128221
    34  C    0.090353
    35  C   -0.093431
    36  C    0.092554
    37  C   -0.363780
    38  C   -0.115303
    39  C   -0.139945
    40  C   -0.337111
    41  C   -0.076501
    42  C   -0.095497
    43  H    0.095343
    44  H    0.100417
    45  H    0.096715
    46  H    0.075049
    47  H    0.103049
    48  H    0.102772
    49  H    0.071434
    50  H    0.133184
    51  H    0.089700
    52  H    0.063033
    53  H    0.093618
    54  H    0.072451
    55  H    0.069936
    56  H    0.085451
    57  H    0.091339
    58  H    0.078979
    59  H    0.129386
    60  H    0.113449
    61  H    0.106239
    62  H    0.086142
    63  H    0.069317
    64  H    0.098244
    65  H    0.093477
    66  H    0.115370
    67  H    0.096545
    68  H    0.096214
    69  H    0.308252
    70  H    0.077258
    71  H    0.071043
    72  H    0.122370
    73  H    0.125245
    74  H    0.094469
    75  H    0.310012
    76  H    0.080372
    77  H    0.119737
    78  H    0.126047
    79  H    0.086731
    80  H    0.090787
    81  H    0.115555
    82  H    0.129850
    83  H    0.125358
    84  H    0.091726
    85  H    0.082729
    86  H    0.084741
    87  H    0.080100
    88  H    0.070398
    89  H    0.098432
    90  H    0.136562
    91  H    0.093478
    92  H    0.071466
    93  H    0.071571
    94  H    0.135295
    95  H    0.109115
    96  H    0.084711
    97  H    0.096322
    98  H    0.080793
 Sum of Mulliken charges =  -0.00000

 Dipole moment (field-independent basis, Debye):
    X=              2.3593    Y=             -1.7494    Z=              0.6068  Tot=              2.9991
 Quadrupole moment (field-independent basis, Debye-Ang):
   XX=           -255.7356   YY=           -243.3693   ZZ=           -263.9262
   XY=              1.5011   XZ=             36.6965   YZ=              3.4531

 Normal termination of Gaussian 16 at Sun Jul 14 22:16:19 2019.
