 Gaussian 16, Revision A.03,
 Gaussian 16:  ES64L-G16RevA.03 25-Dec-2016

 -------------------------------------
 # td=(NStates=1) CAM-B3LYP/6-31G(d,p)
 -------------------------------------

 --
 TD
 --
 Symbolic Z-matrix:
 Charge =  0 Multiplicity = 1

                         Standard orientation:
 ---------------------------------------------------------------------
 Center     Atomic      Atomic             Coordinates (Angstroms)
 Number     Number       Type             X           Y           Z
 ---------------------------------------------------------------------
      1          8           0      -14.091246   -2.220844    0.174162
      2          8           0       14.829346    0.934365    0.091784
      3          6           0      -11.874683    0.038701    1.250806
      4          6           0      -10.980720    0.224783    0.008827
      5          6           0      -12.160954   -1.525096    1.369164
      6          6           0      -12.680727   -2.122939    0.033688
      7          6           0      -11.523100   -0.375595   -1.293934
      8          6           0       11.069218    0.841907    1.132051
      9          6           0      -11.176486    0.306919    2.602831
     10          6           0      -13.198087    0.648398    1.185007
     11          6           0       12.584977    1.388724    0.861266
     12          6           0      -12.244815   -1.502021   -1.251415
     13          6           0       13.565931    0.315723    0.337371
     14          6           0       10.644664   -0.121529    0.017955
     15          6           0       -9.534507   -0.074679    0.135685
     16          6           0       12.991458   -0.295350   -0.983319
     17          6           0       11.533658   -0.666583   -0.848653
     18          6           0       10.310255    2.128060    1.050396
     19          6           0       11.016776    0.121454    2.457838
     20          6           0      -11.233724    0.355062   -2.496522
     21          6           0       -8.522151    0.762302   -0.135355
     22          6           0        9.227136   -0.562424    0.065232
     23          6           0       11.090258   -1.507270   -2.015223
     24          6           0       -7.100491    0.565478    0.093702
     25          6           0        8.800400   -1.784299   -0.156990
     26          6           0       -6.707075   -0.867851    0.477303
     27          6           0        7.365514   -2.136641   -0.129521
     28          6           0       -6.197109    1.569055   -0.234796
     29          6           0        6.925221   -3.534979    0.013578
     30          6           0        6.462550   -1.142347   -0.272828
     31          6           0       -4.777164    1.607754   -0.155103
     32          6           0        5.028473   -1.287864   -0.152660
     33          6           0       -3.946331    2.615882   -0.455258
     34          6           0       -2.481599    2.615333   -0.583431
     35          6           0        4.005311   -0.393834   -0.294621
     36          6           0        2.595582   -0.618750   -0.270855
     37          6           0       -1.799854    3.909837   -0.979659
     38          6           0       -1.770851    1.562286   -0.487590
     39          6           0        1.806487    0.483540   -0.471547
     40          6           0        2.149863   -1.899395    0.137166
     41          6           0       -0.347132    1.582722   -0.527168
     42          6           0        0.441908    0.504974   -0.253940
     43          1           0      -11.074940    1.367558   -0.399821
     44          1           0      -13.124314   -1.785059    2.049430
     45          1           0      -11.373988   -2.065950    1.759100
     46          1           0      -12.230343   -3.244613    0.044665
     47          1           0      -10.302653   -0.167908    2.820335
     48          1           0      -11.028390    1.451666    2.856438
     49          1           0      -11.950817    0.109500    3.336614
     50          1           0      -13.641107    0.327778    0.212128
     51          1           0      -13.919591    0.422186    2.065863
     52          1           0      -13.108857    1.758916    1.075943
     53          1           0       12.599628    2.150863    0.083150
     54          1           0       13.038963    2.010356    1.821291
     55          1           0      -12.637461   -1.993185   -2.403452
     56          1           0       13.789357   -0.513654    1.003004
     57          1           0       -9.144135   -1.070829    0.612349
     58          1           0       13.515787   -1.130613   -1.298560
     59          1           0       13.145669    0.428430   -1.884852
     60          1           0        9.227413    2.070750    1.245909
     61          1           0       10.080880    2.514312    0.008228
     62          1           0       10.690266    3.182743    1.588389
     63          1           0       11.610922   -0.718432    2.370479
     64          1           0       10.000104   -0.185569    2.909343
     65          1           0       11.490600    0.721232    3.368483
     66          1           0       -9.939365    0.619287   -2.606488
     67          1           0      -11.764000    1.238757   -2.675484
     68          1           0      -11.489379   -0.022796   -3.476675
     69          1           0      -14.260048   -1.993015   -0.870943
     70          1           0        8.507221    0.272753    0.492031
     71          1           0       -8.826022    1.776568   -0.482776
     72          1           0       11.463401   -2.555298   -1.859313
     73          1           0       10.054176   -1.308549   -2.192838
     74          1           0       11.582403   -1.091577   -3.017001
     75          1           0       15.221369    1.222012    0.979418
     76          1           0        9.539911   -2.690734   -0.185421
     77          1           0       -5.575027   -1.005059    0.666723
     78          1           0       -7.055389   -1.040236    1.523290
     79          1           0       -7.060952   -1.679908   -0.135666
     80          1           0       -6.662124    2.450104   -0.800502
     81          1           0        6.432048   -3.750600    1.012386
     82          1           0        6.308076   -3.746442   -0.755168
     83          1           0        7.779601   -4.072889    0.120575
     84          1           0        6.872448   -0.124633   -0.313088
     85          1           0       -4.426457    0.398181   -0.048863
     86          1           0        4.655462   -2.362838   -0.042445
     87          1           0       -4.456326    3.729953   -0.454230
     88          1           0        4.276707    0.791585   -0.482632
     89          1           0       -1.359508    3.861549   -2.049813
     90          1           0       -0.884215    4.176045   -0.275920
     91          1           0       -2.598073    4.716334   -1.152955
     92          1           0       -2.160143    0.423824   -0.206934
     93          1           0        2.262434    1.364887   -0.887917
     94          1           0        2.395481   -2.383547    1.253900
     95          1           0        1.015299   -2.043564    0.140618
     96          1           0        2.333805   -2.844809   -0.370176
     97          1           0        0.198769    2.408785   -0.827949
     98          1           0       -0.087852   -0.459459   -0.066643
 ---------------------------------------------------------------------

 SCF Done:  E(RCAM-B3LYP) =  -1706.96969098     A.U. after   14 cycles

 Excitation energies and oscillator strengths:

 Excited State   1:      Singlet-A      2.5834 eV  479.94 nm  f=3.0192  <S**2>=0.000
     155 ->158        -0.17182
     156 ->157         0.67983
 This state for optimization and/or second-order correction.
 Total Energy, E(TD-HF/TD-DFT) =  -1706.87475458
 Copying the excited state density for this state as the 1-particle RhoCI density.

 The electronic state is 1-A.
 Alpha  occ. eigenvalues --  -19.21955 -19.20897 -10.31277 -10.30497 -10.28404
 Alpha  occ. eigenvalues --  -10.28344 -10.28244 -10.28110 -10.27813 -10.27798
 Alpha  occ. eigenvalues --  -10.27711 -10.27580 -10.27256 -10.27255 -10.27218
 Alpha  occ. eigenvalues --  -10.27048 -10.26988 -10.26784 -10.26741 -10.26732
 Alpha  occ. eigenvalues --  -10.26726 -10.26673 -10.26642 -10.26602 -10.26532
 Alpha  occ. eigenvalues --  -10.26481 -10.26476 -10.26311 -10.26289 -10.26161
 Alpha  occ. eigenvalues --  -10.26024 -10.26016 -10.25898 -10.25694 -10.25517
 Alpha  occ. eigenvalues --  -10.25439 -10.25243 -10.25109 -10.24980 -10.24547
 Alpha  occ. eigenvalues --  -10.24021 -10.23998  -1.08530  -1.08016  -0.94147
 Alpha  occ. eigenvalues --   -0.93502  -0.93098  -0.92013  -0.91006  -0.90439
 Alpha  occ. eigenvalues --   -0.88068  -0.87265  -0.86985  -0.85526  -0.84746
 Alpha  occ. eigenvalues --   -0.82727  -0.81824  -0.80548  -0.80345  -0.78196
 Alpha  occ. eigenvalues --   -0.76772  -0.76710  -0.76506  -0.76451  -0.75743
 Alpha  occ. eigenvalues --   -0.75432  -0.75183  -0.74510  -0.73732  -0.70213
 Alpha  occ. eigenvalues --   -0.68432  -0.66911  -0.65929  -0.64961  -0.63840
 Alpha  occ. eigenvalues --   -0.63666  -0.62539  -0.62044  -0.60097  -0.59009
 Alpha  occ. eigenvalues --   -0.58716  -0.58007  -0.57229  -0.57008  -0.56537
 Alpha  occ. eigenvalues --   -0.55637  -0.54939  -0.54693  -0.54448  -0.53784
 Alpha  occ. eigenvalues --   -0.53541  -0.53212  -0.52024  -0.51415  -0.51000
 Alpha  occ. eigenvalues --   -0.50733  -0.50516  -0.50144  -0.49729  -0.49366
 Alpha  occ. eigenvalues --   -0.49196  -0.48711  -0.48226  -0.48197  -0.47792
 Alpha  occ. eigenvalues --   -0.47274  -0.47091  -0.46581  -0.46548  -0.46104
 Alpha  occ. eigenvalues --   -0.45358  -0.45273  -0.45165  -0.44791  -0.44624
 Alpha  occ. eigenvalues --   -0.44287  -0.43976  -0.43807  -0.43311  -0.43188
 Alpha  occ. eigenvalues --   -0.42894  -0.42553  -0.42278  -0.42207  -0.41988
 Alpha  occ. eigenvalues --   -0.41648  -0.41200  -0.41014  -0.40456  -0.40293
 Alpha  occ. eigenvalues --   -0.39959  -0.39827  -0.39745  -0.39456  -0.39163
 Alpha  occ. eigenvalues --   -0.38960  -0.38679  -0.38511  -0.38372  -0.38229
 Alpha  occ. eigenvalues --   -0.37649  -0.37323  -0.37258  -0.36326  -0.35637
 Alpha  occ. eigenvalues --   -0.35558  -0.35031  -0.34465  -0.32398  -0.31528
 Alpha  occ. eigenvalues --   -0.31452  -0.29772  -0.29087  -0.27065  -0.24409
 Alpha  occ. eigenvalues --   -0.20804
 Alpha virt. eigenvalues --   -0.04872  -0.00968   0.02178   0.04693   0.06810
 Alpha virt. eigenvalues --    0.08818   0.10226   0.10867   0.11348   0.11612
 Alpha virt. eigenvalues --    0.12066   0.12496   0.12972   0.13245   0.13384

 Mulliken charges:
               1
     1  O   -0.539493
     2  O   -0.572023
     3  C    0.031931
     4  C   -0.146143
     5  C   -0.187748
     6  C    0.160629
     7  C    0.161265
     8  C    0.007272
     9  C   -0.295923
    10  C   -0.287897
    11  C   -0.186248
    12  C   -0.182931
    13  C    0.166260
    14  C    0.061987
    15  C   -0.069604
    16  C   -0.214966
    17  C    0.029387
    18  C   -0.317142
    19  C   -0.290015
    20  C   -0.372213
    21  C   -0.084930
    22  C   -0.112089
    23  C   -0.359279
    24  C    0.111695
    25  C   -0.104191
    26  C   -0.389280
    27  C    0.074129
    28  C   -0.134006
    29  C   -0.361217
    30  C   -0.098405
    31  C   -0.051648
    32  C   -0.110638
    33  C   -0.135712
    34  C    0.122475
    35  C   -0.118873
    36  C    0.176160
    37  C   -0.375652
    38  C   -0.104620
    39  C   -0.128877
    40  C   -0.408479
    41  C   -0.077613
    42  C   -0.079375
    43  H    0.081898
    44  H    0.110899
    45  H    0.096770
    46  H    0.056986
    47  H    0.110976
    48  H    0.072201
    49  H    0.103833
    50  H    0.100801
    51  H    0.105417
    52  H    0.083809
    53  H    0.118287
    54  H    0.057089
    55  H    0.064770
    56  H    0.079662
    57  H    0.080707
    58  H    0.113479
    59  H    0.113303
    60  H    0.091982
    61  H    0.103381
    62  H    0.084783
    63  H    0.114381
    64  H    0.102234
    65  H    0.079860
    66  H    0.081084
    67  H    0.132861
    68  H    0.114985
    69  H    0.302954
    70  H    0.094541
    71  H    0.076609
    72  H    0.111538
    73  H    0.135487
    74  H    0.084476
    75  H    0.306665
    76  H    0.092161
    77  H    0.098460
    78  H    0.122010
    79  H    0.138102
    80  H    0.081676
    81  H    0.115691
    82  H    0.138847
    83  H    0.106977
    84  H    0.071767
    85  H    0.066399
    86  H    0.071191
    87  H    0.076250
    88  H    0.056752
    89  H    0.118417
    90  H    0.117569
    91  H    0.101603
    92  H    0.072822
    93  H    0.089977
    94  H    0.099174
    95  H    0.099820
    96  H    0.132908
    97  H    0.078341
    98  H    0.078418
 Sum of Mulliken charges =  -0.00000

 Dipole moment (field-independent basis, Debye):
    X=              1.1928    Y=             -0.2418    Z=             -0.4868  Tot=              1.3108
 Quadrupole moment (field-independent basis, Debye-Ang):
   XX=           -292.9694   YY=           -249.9065   ZZ=           -259.4980
   XY=            -20.3370   XZ=             38.9529   YZ=             -2.1574

 Normal termination of Gaussian 16 at Mon Jul 15 13:41:22 2019.
