 Gaussian 16, Revision A.03,
 Gaussian 16:  ES64L-G16RevA.03 25-Dec-2016

 -------------------------------------
 # td=(NStates=1) CAM-B3LYP/6-31G(d,p)
 -------------------------------------

 --
 TD
 --
 Symbolic Z-matrix:
 Charge =  0 Multiplicity = 1

                         Standard orientation:
 ---------------------------------------------------------------------
 Center     Atomic      Atomic             Coordinates (Angstroms)
 Number     Number       Type             X           Y           Z
 ---------------------------------------------------------------------
      1          8           0      -14.132822   -2.036157    0.327193
      2          8           0       14.824966    0.971732   -0.060875
      3          6           0      -11.825524   -0.006804    1.231702
      4          6           0      -10.894222    0.337145    0.000995
      5          6           0      -11.802873   -1.539560    1.340161
      6          6           0      -12.628804   -2.121230    0.137423
      7          6           0      -11.508048   -0.241679   -1.188281
      8          6           0       11.070183    1.044059    1.004290
      9          6           0      -11.157363    0.425202    2.565267
     10          6           0      -13.128843    0.686181    1.222701
     11          6           0       12.478893    1.541535    0.641538
     12          6           0      -12.180946   -1.478762   -1.137760
     13          6           0       13.466185    0.455589    0.268336
     14          6           0       10.676382   -0.103916    0.019387
     15          6           0       -9.523012    0.029966    0.143850
     16          6           0       12.951003   -0.194100   -1.005645
     17          6           0       11.533203   -0.623162   -0.913178
     18          6           0       10.156147    2.308595    0.888502
     19          6           0       11.165314    0.521769    2.490598
     20          6           0      -11.168266    0.250159   -2.519672
     21          6           0       -8.477370    0.931278   -0.183753
     22          6           0        9.235533   -0.576993    0.186381
     23          6           0       11.068700   -1.462845   -1.995808
     24          6           0       -7.108635    0.568323   -0.199832
     25          6           0        8.751105   -1.828493    0.002001
     26          6           0       -6.679213   -0.918145    0.049905
     27          6           0        7.349792   -2.141743    0.030736
     28          6           0       -6.138863    1.556193   -0.301060
     29          6           0        7.050965   -3.659634    0.262804
     30          6           0        6.310359   -1.276227   -0.204888
     31          6           0       -4.726862    1.528392   -0.303415
     32          6           0        4.938897   -1.580969    0.013077
     33          6           0       -4.004073    2.608434   -0.482544
     34          6           0       -2.620786    2.673739   -0.659651
     35          6           0        3.931885   -0.556467   -0.050126
     36          6           0        2.575009   -0.884125   -0.098354
     37          6           0       -1.858264    3.990347   -0.857555
     38          6           0       -1.870663    1.497286   -0.485541
     39          6           0        1.703167    0.250086   -0.271852
     40          6           0        2.046298   -2.245904    0.118384
     41          6           0       -0.394618    1.408746   -0.564893
     42          6           0        0.377839    0.289524   -0.309350
     43          1           0      -11.096682    1.471196   -0.139476
     44          1           0      -12.460863   -1.704593    2.440202
     45          1           0      -10.799162   -2.046252    1.134275
     46          1           0      -12.373198   -3.237459    0.003300
     47          1           0      -10.318233   -0.348564    2.911612
     48          1           0      -10.680587    1.494709    2.415279
     49          1           0      -11.895260    0.609130    3.406132
     50          1           0      -13.747478    0.623474    0.266038
     51          1           0      -13.792571    0.279675    1.935941
     52          1           0      -13.005599    1.772877    1.416723
     53          1           0       12.571468    2.244526   -0.214147
     54          1           0       12.730230    2.095193    1.602884
     55          1           0      -12.496766   -1.877854   -2.291915
     56          1           0       13.412798   -0.271333    1.229911
     57          1           0       -9.305070   -0.861303    0.329368
     58          1           0       13.602985   -1.292977   -1.170625
     59          1           0       13.250978    0.369473   -2.053495
     60          1           0        9.228416    1.983075    1.332348
     61          1           0        9.985340    2.672161   -0.116247
     62          1           0       10.840354    3.038423    1.388968
     63          1           0       11.907040   -0.319184    2.712141
     64          1           0       10.148187    0.081574    2.761391
     65          1           0       11.289995    1.458459    3.092233
     66          1           0       -9.934119    0.466845   -2.748803
     67          1           0      -11.528295    1.343331   -2.665592
     68          1           0      -11.324124   -0.408201   -3.418820
     69          1           0      -14.530680   -2.543909   -0.572227
     70          1           0        8.407423    0.193528    0.408003
     71          1           0       -8.763766    1.908968   -0.657432
     72          1           0       11.471950   -2.510100   -1.858422
     73          1           0        9.940933   -1.559385   -2.188309
     74          1           0       11.763184   -1.183440   -2.918758
     75          1           0       15.048288    1.560249    0.618886
     76          1           0        9.510286   -2.571695   -0.271965
     77          1           0       -5.444775   -0.927580    0.290061
     78          1           0       -7.178990   -1.234758    1.004331
     79          1           0       -6.892740   -1.505307   -0.959819
     80          1           0       -6.706326    2.604292   -0.329806
     81          1           0        6.427159   -3.872787    1.199259
     82          1           0        6.419811   -4.300645   -0.463554
     83          1           0        8.043203   -4.014904    0.252176
     84          1           0        6.607790   -0.265341   -0.174449
     85          1           0       -4.307979    0.435187   -0.311363
     86          1           0        4.655543   -2.624282    0.136440
     87          1           0       -4.501814    3.656395   -0.573121
     88          1           0        4.289046    0.484112   -0.112518
     89          1           0       -1.102603    3.757270   -1.595228
     90          1           0       -1.240072    4.186896    0.118851
     91          1           0       -2.500334    4.936689   -1.007652
     92          1           0       -2.296351    0.701163   -0.101134
     93          1           0        2.430479    1.146488   -0.434688
     94          1           0        2.702448   -2.638181    1.054778
     95          1           0        1.043964   -2.293146    0.365142
     96          1           0        2.326186   -2.905446   -0.825770
     97          1           0       -0.002102    2.272524   -0.833257
     98          1           0       -0.203751   -0.784608   -0.257898
 ---------------------------------------------------------------------

 SCF Done:  E(RCAM-B3LYP) =  -1706.93645517     A.U. after   15 cycles

 Excitation energies and oscillator strengths:

 Excited State   1:      Singlet-A      1.9719 eV  628.77 nm  f=3.1014  <S**2>=0.000
     155 ->158         0.13974
     156 ->157         0.69557
     156 <-157        -0.10084
 This state for optimization and/or second-order correction.
 Total Energy, E(TD-HF/TD-DFT) =  -1706.86399067
 Copying the excited state density for this state as the 1-particle RhoCI density.

 The electronic state is 1-A.
 Alpha  occ. eigenvalues --  -19.21844 -19.21235 -10.32037 -10.31572 -10.28584
 Alpha  occ. eigenvalues --  -10.28534 -10.28234 -10.27954 -10.27607 -10.27501
 Alpha  occ. eigenvalues --  -10.27419 -10.27335 -10.27288 -10.27266 -10.27254
 Alpha  occ. eigenvalues --  -10.27252 -10.27176 -10.27168 -10.27144 -10.27042
 Alpha  occ. eigenvalues --  -10.26885 -10.26862 -10.26848 -10.26804 -10.26791
 Alpha  occ. eigenvalues --  -10.26678 -10.26594 -10.26517 -10.26493 -10.26456
 Alpha  occ. eigenvalues --  -10.26403 -10.26312 -10.26250 -10.25999 -10.25869
 Alpha  occ. eigenvalues --  -10.25755 -10.25530 -10.25490 -10.25273 -10.25172
 Alpha  occ. eigenvalues --  -10.24867 -10.23449  -1.08561  -1.04250  -0.94625
 Alpha  occ. eigenvalues --   -0.93726  -0.92450  -0.91893  -0.90616  -0.89751
 Alpha  occ. eigenvalues --   -0.87907  -0.87400  -0.86816  -0.85332  -0.84506
 Alpha  occ. eigenvalues --   -0.82943  -0.82134  -0.80607  -0.79934  -0.78291
 Alpha  occ. eigenvalues --   -0.76495  -0.76301  -0.75947  -0.75735  -0.75307
 Alpha  occ. eigenvalues --   -0.74841  -0.74623  -0.72820  -0.72496  -0.70837
 Alpha  occ. eigenvalues --   -0.68824  -0.67097  -0.66008  -0.64843  -0.64447
 Alpha  occ. eigenvalues --   -0.63341  -0.62194  -0.61760  -0.60523  -0.59669
 Alpha  occ. eigenvalues --   -0.58603  -0.57853  -0.57576  -0.56634  -0.56208
 Alpha  occ. eigenvalues --   -0.56027  -0.54671  -0.54358  -0.53975  -0.53335
 Alpha  occ. eigenvalues --   -0.53294  -0.52607  -0.52219  -0.51763  -0.51081
 Alpha  occ. eigenvalues --   -0.50665  -0.50114  -0.49422  -0.48947  -0.48671
 Alpha  occ. eigenvalues --   -0.48519  -0.48387  -0.47939  -0.47593  -0.47554
 Alpha  occ. eigenvalues --   -0.47130  -0.46898  -0.46520  -0.46312  -0.45952
 Alpha  occ. eigenvalues --   -0.45590  -0.45422  -0.45173  -0.45011  -0.44774
 Alpha  occ. eigenvalues --   -0.44261  -0.44202  -0.44032  -0.43673  -0.43282
 Alpha  occ. eigenvalues --   -0.43101  -0.42930  -0.42704  -0.42558  -0.42024
 Alpha  occ. eigenvalues --   -0.41917  -0.41373  -0.41218  -0.40571  -0.40371
 Alpha  occ. eigenvalues --   -0.40114  -0.39901  -0.39607  -0.39572  -0.39394
 Alpha  occ. eigenvalues --   -0.38832  -0.38754  -0.38592  -0.38540  -0.38331
 Alpha  occ. eigenvalues --   -0.37999  -0.37969  -0.37078  -0.36422  -0.35970
 Alpha  occ. eigenvalues --   -0.34820  -0.34309  -0.34103  -0.32451  -0.31626
 Alpha  occ. eigenvalues --   -0.31407  -0.29020  -0.28288  -0.26633  -0.23674
 Alpha  occ. eigenvalues --   -0.18916
 Alpha virt. eigenvalues --   -0.06550  -0.01407   0.01892   0.04204   0.06184
 Alpha virt. eigenvalues --    0.08189   0.10012   0.10875   0.11008   0.11252
 Alpha virt. eigenvalues --    0.11946   0.12156   0.12547   0.12880   0.13253

 Mulliken charges:
               1
     1  O   -0.557451
     2  O   -0.558948
     3  C    0.050408
     4  C   -0.162292
     5  C   -0.186623
     6  C    0.133063
     7  C    0.168634
     8  C   -0.035446
     9  C   -0.300298
    10  C   -0.303425
    11  C   -0.197802
    12  C   -0.139914
    13  C    0.162270
    14  C    0.047779
    15  C   -0.016356
    16  C   -0.216928
    17  C    0.115971
    18  C   -0.292306
    19  C   -0.303332
    20  C   -0.361635
    21  C   -0.111108
    22  C   -0.118439
    23  C   -0.382240
    24  C    0.092134
    25  C   -0.115488
    26  C   -0.349593
    27  C    0.066734
    28  C   -0.122839
    29  C   -0.368475
    30  C   -0.096258
    31  C   -0.065875
    32  C   -0.101429
    33  C   -0.106703
    34  C    0.082017
    35  C   -0.127796
    36  C    0.127409
    37  C   -0.373522
    38  C   -0.096045
    39  C   -0.097868
    40  C   -0.360107
    41  C   -0.076052
    42  C   -0.101970
    43  H    0.077874
    44  H    0.086896
    45  H    0.110981
    46  H    0.074938
    47  H    0.084189
    48  H    0.083320
    49  H    0.100740
    50  H    0.108399
    51  H    0.118804
    52  H    0.091970
    53  H    0.100154
    54  H    0.071948
    55  H    0.059959
    56  H    0.070770
    57  H    0.059391
    58  H    0.075197
    59  H    0.115265
    60  H    0.107639
    61  H    0.118610
    62  H    0.099870
    63  H    0.112019
    64  H    0.104189
    65  H    0.100171
    66  H    0.078838
    67  H    0.105279
    68  H    0.116292
    69  H    0.301084
    70  H    0.079400
    71  H    0.088467
    72  H    0.109935
    73  H    0.131405
    74  H    0.095153
    75  H    0.301480
    76  H    0.100298
    77  H    0.077484
    78  H    0.126921
    79  H    0.119123
    80  H    0.063606
    81  H    0.113871
    82  H    0.108296
    83  H    0.110328
    84  H    0.065738
    85  H    0.091156
    86  H    0.088316
    87  H    0.080731
    88  H    0.092486
    89  H    0.135298
    90  H    0.119770
    91  H    0.107077
    92  H    0.067290
    93  H    0.073817
    94  H    0.102091
    95  H    0.121712
    96  H    0.116724
    97  H    0.061277
    98  H    0.074104
 Sum of Mulliken charges =  -0.00000

 Dipole moment (field-independent basis, Debye):
    X=              0.9432    Y=             -0.0079    Z=             -0.3781  Tot=              1.0162
 Quadrupole moment (field-independent basis, Debye-Ang):
   XX=           -301.9604   YY=           -243.9988   ZZ=           -263.9423
   XY=             10.4587   XZ=             33.5029   YZ=              3.9028

 Normal termination of Gaussian 16 at Sat Jul 13 18:22:10 2019.
