 Gaussian 16, Revision A.03,
 Gaussian 16:  ES64L-G16RevA.03 25-Dec-2016

 -------------------------------------
 # td=(NStates=1) CAM-B3LYP/6-31G(d,p)
 -------------------------------------

 --
 TD
 --
 Symbolic Z-matrix:
 Charge =  0 Multiplicity = 1

                         Standard orientation:
 ---------------------------------------------------------------------
 Center     Atomic      Atomic             Coordinates (Angstroms)
 Number     Number       Type             X           Y           Z
 ---------------------------------------------------------------------
      1          8           0      -13.992863   -2.127083    0.500449
      2          8           0       14.764162    0.814567   -0.032601
      3          6           0      -11.728459    0.183202    1.163616
      4          6           0      -10.975679    0.306585   -0.141406
      5          6           0      -11.920810   -1.340517    1.503239
      6          6           0      -12.592818   -2.184708    0.424920
      7          6           0      -11.483601   -0.645637   -1.320649
      8          6           0       11.161171    0.919296    1.103235
      9          6           0      -10.962863    0.993406    2.360517
     10          6           0      -13.153995    0.792468    1.079792
     11          6           0       12.436709    1.399389    0.685730
     12          6           0      -12.209153   -1.721203   -0.924159
     13          6           0       13.445360    0.277699    0.209286
     14          6           0       10.730612   -0.111295   -0.029776
     15          6           0       -9.506436   -0.116964    0.031653
     16          6           0       12.907444   -0.214055   -1.075388
     17          6           0       11.516680   -0.497796   -1.081338
     18          6           0       10.229217    2.163413    1.170463
     19          6           0       11.175648    0.278289    2.437890
     20          6           0      -11.145472   -0.184726   -2.666089
     21          6           0       -8.417836    0.715487   -0.293886
     22          6           0        9.292261   -0.488132    0.083358
     23          6           0       10.967877   -1.284818   -2.236619
     24          6           0       -7.003850    0.536991   -0.317115
     25          6           0        8.713882   -1.646327   -0.171590
     26          6           0       -6.494219   -0.875586    0.150265
     27          6           0        7.359468   -2.181082   -0.012701
     28          6           0       -6.092126    1.569037   -0.464957
     29          6           0        6.977521   -3.626720    0.152221
     30          6           0        6.321847   -1.163697    0.051693
     31          6           0       -4.760964    1.535724   -0.320142
     32          6           0        4.924803   -1.512974    0.166866
     33          6           0       -4.043390    2.638435   -0.552339
     34          6           0       -2.619582    2.719800   -0.534797
     35          6           0        3.972736   -0.591219   -0.103311
     36          6           0        2.506811   -0.730612   -0.074149
     37          6           0       -1.975779    4.047109   -0.972480
     38          6           0       -1.830996    1.602219   -0.287229
     39          6           0        1.743165    0.325942   -0.322150
     40          6           0        2.012060   -2.026450    0.380210
     41          6           0       -0.486750    1.473056   -0.500190
     42          6           0        0.343249    0.408213   -0.142052
     43          1           0      -11.091475    1.352120   -0.591363
     44          1           0      -12.422434   -1.552762    2.672743
     45          1           0      -10.949918   -1.798118    1.689803
     46          1           0      -12.320742   -3.232882    0.582146
     47          1           0      -10.045938    0.278566    2.489351
     48          1           0      -10.665441    2.040921    2.123428
     49          1           0      -11.556601    1.042240    3.175768
     50          1           0      -13.546298    0.375691    0.177441
     51          1           0      -13.823400    0.513850    1.848351
     52          1           0      -13.106929    1.843609    0.930681
     53          1           0       12.462939    2.136599   -0.177572
     54          1           0       12.962239    1.941704    1.523833
     55          1           0      -12.401485   -2.585889   -1.674295
     56          1           0       13.700705   -0.474738    0.995419
     57          1           0       -9.307587   -1.154997    0.510568
     58          1           0       13.331094   -1.157801   -1.313501
     59          1           0       13.036952    0.433387   -1.967571
     60          1           0        9.087637    1.803743    1.571027
     61          1           0        9.903853    2.767490    0.171222
     62          1           0       10.504331    2.999448    1.892947
     63          1           0       11.572158   -0.581962    2.804821
     64          1           0       10.094188    0.116159    2.615866
     65          1           0       11.624030    0.904040    3.220486
     66          1           0      -10.188183   -0.061479   -2.957235
     67          1           0      -11.769150    0.764664   -3.050767
     68          1           0      -11.511414   -0.928934   -3.485307
     69          1           0      -14.408525   -2.329067   -0.216970
     70          1           0        8.506718    0.231765    0.637953
     71          1           0       -8.666139    1.682505   -0.719723
     72          1           0       11.316376   -2.262057   -1.964407
     73          1           0        9.949307   -1.278496   -2.474876
     74          1           0       11.569259   -1.089015   -3.257161
     75          1           0       15.101824    1.178669    0.709403
     76          1           0        9.553182   -2.180029   -0.424147
     77          1           0       -5.477209   -1.266930    0.053445
     78          1           0       -7.021113   -1.162818    1.061008
     79          1           0       -7.053264   -1.674045   -0.374750
     80          1           0       -6.559939    2.500364   -0.503667
     81          1           0        7.182815   -3.873069    1.414658
     82          1           0        6.070871   -4.082823   -0.396394
     83          1           0        7.963541   -4.045577   -0.268989
     84          1           0        6.686189   -0.193440   -0.245729
     85          1           0       -4.357119    0.641798    0.120893
     86          1           0        4.574016   -2.428991    0.199832
     87          1           0       -4.655893    3.563686   -0.945147
     88          1           0        4.267690    0.479536   -0.669993
     89          1           0       -1.476681    3.863466   -1.886885
     90          1           0       -1.260608    4.525882   -0.241580
     91          1           0       -2.750593    4.833064   -1.211881
     92          1           0       -2.563942    0.857871   -0.052951
     93          1           0        2.146884    1.271851   -0.437039
     94          1           0        2.533810   -2.343162    1.251009
     95          1           0        0.953723   -2.223727    0.512031
     96          1           0        2.147981   -2.798679   -0.229498
     97          1           0        0.173098    2.447435   -0.881887
     98          1           0       -0.192232   -0.577969    0.259715
 ---------------------------------------------------------------------

 SCF Done:  E(RCAM-B3LYP) =  -1706.93072572     A.U. after   15 cycles

 Excitation energies and oscillator strengths:

 Excited State   1:      Singlet-A      2.2367 eV  554.31 nm  f=3.0506  <S**2>=0.000
     155 ->158         0.16243
     156 ->157         0.68655
 This state for optimization and/or second-order correction.
 Total Energy, E(TD-HF/TD-DFT) =  -1706.84852790
 Copying the excited state density for this state as the 1-particle RhoCI density.

 The electronic state is 1-A.
 Alpha  occ. eigenvalues --  -19.19771 -19.19465 -10.30913 -10.30823 -10.28830
 Alpha  occ. eigenvalues --  -10.28164 -10.28072 -10.27886 -10.27824 -10.27654
 Alpha  occ. eigenvalues --  -10.27641 -10.27618 -10.27589 -10.27232 -10.27188
 Alpha  occ. eigenvalues --  -10.27171 -10.27097 -10.26978 -10.26946 -10.26810
 Alpha  occ. eigenvalues --  -10.26548 -10.26408 -10.26401 -10.26299 -10.26077
 Alpha  occ. eigenvalues --  -10.25997 -10.25962 -10.25845 -10.25446 -10.25394
 Alpha  occ. eigenvalues --  -10.25312 -10.25207 -10.25179 -10.24993 -10.24945
 Alpha  occ. eigenvalues --  -10.24915 -10.24783 -10.24501 -10.24260 -10.23768
 Alpha  occ. eigenvalues --  -10.23613 -10.21814  -1.11858  -1.09815  -0.94944
 Alpha  occ. eigenvalues --   -0.93082  -0.92715  -0.92133  -0.90183  -0.89755
 Alpha  occ. eigenvalues --   -0.89278  -0.87092  -0.86026  -0.85958  -0.84460
 Alpha  occ. eigenvalues --   -0.83462  -0.82529  -0.80688  -0.80208  -0.79385
 Alpha  occ. eigenvalues --   -0.77210  -0.76847  -0.76121  -0.76109  -0.75707
 Alpha  occ. eigenvalues --   -0.75177  -0.74748  -0.74605  -0.73217  -0.70671
 Alpha  occ. eigenvalues --   -0.69474  -0.68507  -0.67071  -0.64826  -0.64030
 Alpha  occ. eigenvalues --   -0.63582  -0.63430  -0.62086  -0.60723  -0.59838
 Alpha  occ. eigenvalues --   -0.59674  -0.59537  -0.58393  -0.57736  -0.56604
 Alpha  occ. eigenvalues --   -0.55861  -0.55284  -0.55213  -0.54861  -0.53798
 Alpha  occ. eigenvalues --   -0.53203  -0.52630  -0.52470  -0.52302  -0.51653
 Alpha  occ. eigenvalues --   -0.50974  -0.50558  -0.50365  -0.49969  -0.49625
 Alpha  occ. eigenvalues --   -0.49012  -0.48870  -0.48499  -0.48280  -0.47656
 Alpha  occ. eigenvalues --   -0.47435  -0.47065  -0.46749  -0.46367  -0.46347
 Alpha  occ. eigenvalues --   -0.45911  -0.45554  -0.45137  -0.44701  -0.44459
 Alpha  occ. eigenvalues --   -0.44329  -0.44137  -0.43950  -0.43602  -0.43522
 Alpha  occ. eigenvalues --   -0.43346  -0.42963  -0.42429  -0.42237  -0.42098
 Alpha  occ. eigenvalues --   -0.42010  -0.41315  -0.41203  -0.40868  -0.40332
 Alpha  occ. eigenvalues --   -0.40150  -0.40001  -0.39701  -0.39426  -0.39344
 Alpha  occ. eigenvalues --   -0.39254  -0.38799  -0.38498  -0.37646  -0.37347
 Alpha  occ. eigenvalues --   -0.37308  -0.36918  -0.36245  -0.35980  -0.35429
 Alpha  occ. eigenvalues --   -0.35243  -0.34448  -0.33529  -0.32361  -0.31890
 Alpha  occ. eigenvalues --   -0.31540  -0.29935  -0.28709  -0.26671  -0.23114
 Alpha  occ. eigenvalues --   -0.19621
 Alpha virt. eigenvalues --   -0.05515  -0.01135   0.02625   0.05448   0.06870
 Alpha virt. eigenvalues --    0.09059   0.11496   0.11996   0.12133   0.12571
 Alpha virt. eigenvalues --    0.12730   0.13061   0.13373   0.13601   0.13932

 Mulliken charges:
               1
     1  O   -0.518423
     2  O   -0.561438
     3  C    0.012979
     4  C   -0.131288
     5  C   -0.182113
     6  C    0.172846
     7  C    0.129383
     8  C    0.031368
     9  C   -0.294138
    10  C   -0.293349
    11  C   -0.206440
    12  C   -0.160885
    13  C    0.155539
    14  C    0.025158
    15  C   -0.091322
    16  C   -0.203614
    17  C    0.060755
    18  C   -0.290587
    19  C   -0.297970
    20  C   -0.370842
    21  C   -0.114076
    22  C   -0.119531
    23  C   -0.366877
    24  C    0.109192
    25  C   -0.098575
    26  C   -0.402444
    27  C    0.077159
    28  C   -0.129013
    29  C   -0.356570
    30  C   -0.116565
    31  C   -0.032059
    32  C   -0.072460
    33  C   -0.134867
    34  C    0.069822
    35  C   -0.123477
    36  C    0.142263
    37  C   -0.379679
    38  C   -0.065125
    39  C   -0.121647
    40  C   -0.399250
    41  C   -0.106088
    42  C   -0.084631
    43  H    0.089722
    44  H    0.067782
    45  H    0.092186
    46  H    0.086078
    47  H    0.086171
    48  H    0.099281
    49  H    0.111826
    50  H    0.102154
    51  H    0.113698
    52  H    0.085588
    53  H    0.103482
    54  H    0.061740
    55  H    0.069058
    56  H    0.085043
    57  H    0.087263
    58  H    0.113002
    59  H    0.129553
    60  H    0.068699
    61  H    0.096408
    62  H    0.106425
    63  H    0.115107
    64  H    0.106804
    65  H    0.091161
    66  H    0.144460
    67  H    0.105342
    68  H    0.098489
    69  H    0.280345
    70  H    0.058851
    71  H    0.076014
    72  H    0.130583
    73  H    0.142129
    74  H    0.086386
    75  H    0.290902
    76  H    0.060563
    77  H    0.115608
    78  H    0.122986
    79  H    0.106743
    80  H    0.077673
    81  H    0.099545
    82  H    0.129568
    83  H    0.110549
    84  H    0.093844
    85  H    0.104508
    86  H    0.078566
    87  H    0.085457
    88  H    0.064300
    89  H    0.134150
    90  H    0.119508
    91  H    0.098596
    92  H    0.066212
    93  H    0.081619
    94  H    0.127313
    95  H    0.107939
    96  H    0.131531
    97  H    0.071097
    98  H    0.069265
 Sum of Mulliken charges =  -0.00000

 Dipole moment (field-independent basis, Debye):
    X=              0.9076    Y=             -1.2782    Z=             -0.7697  Tot=              1.7464
 Quadrupole moment (field-independent basis, Debye-Ang):
   XX=           -273.1509   YY=           -242.7650   ZZ=           -259.8365
   XY=             -1.6267   XZ=             35.6446   YZ=              0.7113

 Normal termination of Gaussian 16 at Sat Jul 13 01:26:00 2019.
