 Gaussian 16, Revision A.03,
 Gaussian 16:  ES64L-G16RevA.03 25-Dec-2016

 -------------------------------------
 # td=(NStates=1) CAM-B3LYP/6-31G(d,p)
 -------------------------------------

 --
 TD
 --
 Symbolic Z-matrix:
 Charge =  0 Multiplicity = 1

                         Standard orientation:
 ---------------------------------------------------------------------
 Center     Atomic      Atomic             Coordinates (Angstroms)
 Number     Number       Type             X           Y           Z
 ---------------------------------------------------------------------
      1          8           0      -14.056001   -1.965552    0.697020
      2          8           0       14.800127    1.126742   -0.065831
      3          6           0      -11.771534    0.188104    1.309880
      4          6           0      -10.951354    0.292846    0.021304
      5          6           0      -11.843682   -1.342189    1.610157
      6          6           0      -12.588201   -2.115314    0.537675
      7          6           0      -11.574880   -0.412674   -1.166722
      8          6           0       11.192314    0.948274    1.203176
      9          6           0      -11.026243    0.771120    2.457275
     10          6           0      -13.220836    0.757242    1.116133
     11          6           0       12.606894    1.406461    0.916048
     12          6           0      -12.282638   -1.624592   -0.916535
     13          6           0       13.528168    0.450122    0.288854
     14          6           0       10.652284   -0.066157    0.122615
     15          6           0       -9.491514   -0.093086    0.165042
     16          6           0       12.968238   -0.132338   -0.972290
     17          6           0       11.486301   -0.442606   -0.928088
     18          6           0       10.167681    2.137317    1.389842
     19          6           0       11.144066    0.101209    2.591490
     20          6           0      -11.306831   -0.179778   -2.625919
     21          6           0       -8.435113    0.771242   -0.197664
     22          6           0        9.285172   -0.425940    0.176660
     23          6           0       11.070086   -1.461408   -1.968308
     24          6           0       -7.015771    0.521259   -0.300988
     25          6           0        8.754764   -1.682857    0.012235
     26          6           0       -6.744037   -0.885402    0.060054
     27          6           0        7.414301   -2.065617   -0.051725
     28          6           0       -6.139322    1.502139   -0.415361
     29          6           0        7.207480   -3.668406   -0.073778
     30          6           0        6.356821   -1.208660   -0.116538
     31          6           0       -4.746662    1.454548   -0.443925
     32          6           0        4.946330   -1.550034   -0.258959
     33          6           0       -3.988746    2.581341   -0.723716
     34          6           0       -2.580949    2.693887   -0.814172
     35          6           0        4.019730   -0.536934   -0.331911
     36          6           0        2.630954   -0.789741   -0.335582
     37          6           0       -1.972533    3.980044   -1.203135
     38          6           0       -1.863872    1.518885   -0.557458
     39          6           0        1.698564    0.304985   -0.356441
     40          6           0        2.004834   -2.187980   -0.065139
     41          6           0       -0.401499    1.463108   -0.580292
     42          6           0        0.317102    0.288802   -0.363169
     43          1           0      -10.965290    1.493575   -0.068003
     44          1           0      -12.338533   -1.629164    2.481332
     45          1           0      -10.980788   -1.633523    2.015576
     46          1           0      -12.280273   -3.162858    0.684341
     47          1           0      -10.058580    0.369250    2.653267
     48          1           0      -10.829014    1.818031    2.237436
     49          1           0      -11.508852    0.620741    3.360814
     50          1           0      -13.921066    0.573911    0.146293
     51          1           0      -13.894063    0.708762    1.977465
     52          1           0      -13.229528    1.747890    1.023185
     53          1           0       12.493074    2.153552    0.219976
     54          1           0       13.035440    1.981056    1.794488
     55          1           0      -12.832480   -2.153771   -1.732275
     56          1           0       13.761536   -0.365356    1.005899
     57          1           0       -9.186774   -1.135621    0.174839
     58          1           0       13.611620   -1.066003   -1.519828
     59          1           0       12.981657    0.773470   -1.616022
     60          1           0        9.072297    1.797995    1.381863
     61          1           0        9.999164    2.890697    0.447864
     62          1           0       10.580661    2.830341    2.288218
     63          1           0       11.827945   -0.636294    2.636808
     64          1           0       10.120695   -0.415887    2.960380
     65          1           0       11.519101    0.789363    3.373904
     66          1           0      -10.073782   -0.201016   -2.872118
     67          1           0      -11.745931    0.826317   -2.984284
     68          1           0      -11.685908   -0.658498   -3.354294
     69          1           0      -14.414354   -2.427589   -0.069247
     70          1           0        8.531410    0.321691    0.440410
     71          1           0       -8.855273    1.822768   -0.371787
     72          1           0       11.395667   -2.379076   -1.849939
     73          1           0        9.882584   -1.557634   -1.803691
     74          1           0       11.470977   -1.194254   -2.850333
     75          1           0       15.335545    1.046154    0.777338
     76          1           0        9.382200   -2.400145    0.161848
     77          1           0       -5.803534   -1.002536   -0.202780
     78          1           0       -6.860382   -1.246094    1.068764
     79          1           0       -7.332047   -1.683510   -0.462141
     80          1           0       -6.655212    2.636546   -0.201466
     81          1           0        6.953689   -3.947660    0.917820
     82          1           0        6.363927   -3.704340   -0.868780
     83          1           0        8.098380   -4.265787   -0.386625
     84          1           0        6.460578   -0.016447    0.164435
     85          1           0       -4.428111    0.344579   -0.231081
     86          1           0        4.627126   -2.568955   -0.368378
     87          1           0       -4.603621    3.461347   -0.933883
     88          1           0        4.405015    0.596823   -0.443268
     89          1           0       -1.381064    3.710279   -1.870056
     90          1           0       -1.125060    4.590053   -0.462639
     91          1           0       -2.958790    4.643295   -1.186236
     92          1           0       -2.301673    0.544650   -0.314836
     93          1           0        2.295784    1.318429   -0.642622
     94          1           0        2.199013   -2.448039    0.989171
     95          1           0        0.795363   -2.176515   -0.315100
     96          1           0        2.422698   -3.023721   -0.658049
     97          1           0        0.093556    2.464596   -0.942616
     98          1           0       -0.454932   -0.632703   -0.114625
 ---------------------------------------------------------------------

 SCF Done:  E(RCAM-B3LYP) =  -1706.84725540     A.U. after   15 cycles

 Excitation energies and oscillator strengths:

 Excited State   1:      Singlet-A      2.0418 eV  607.24 nm  f=3.0534  <S**2>=0.000
     155 ->158        -0.15463
     156 ->157         0.69058
 This state for optimization and/or second-order correction.
 Total Energy, E(TD-HF/TD-DFT) =  -1706.77222163
 Copying the excited state density for this state as the 1-particle RhoCI density.

 The electronic state is 1-A.
 Alpha  occ. eigenvalues --  -19.21609 -19.20282 -10.30979 -10.30732 -10.28948
 Alpha  occ. eigenvalues --  -10.28290 -10.28287 -10.27851 -10.27748 -10.27717
 Alpha  occ. eigenvalues --  -10.27686 -10.27558 -10.27547 -10.27509 -10.27434
 Alpha  occ. eigenvalues --  -10.27342 -10.27320 -10.27269 -10.27214 -10.27145
 Alpha  occ. eigenvalues --  -10.27069 -10.27018 -10.26926 -10.26825 -10.26795
 Alpha  occ. eigenvalues --  -10.26650 -10.26534 -10.26492 -10.26226 -10.26184
 Alpha  occ. eigenvalues --  -10.26171 -10.26014 -10.25954 -10.25525 -10.25028
 Alpha  occ. eigenvalues --  -10.24795 -10.24259 -10.24101 -10.23022 -10.22734
 Alpha  occ. eigenvalues --  -10.22592 -10.22576  -1.07680  -1.07200  -0.93510
 Alpha  occ. eigenvalues --   -0.93113  -0.92548  -0.91489  -0.91012  -0.90055
 Alpha  occ. eigenvalues --   -0.87378  -0.86403  -0.86058  -0.85468  -0.84753
 Alpha  occ. eigenvalues --   -0.82826  -0.82323  -0.80417  -0.80116  -0.78165
 Alpha  occ. eigenvalues --   -0.77506  -0.76774  -0.76724  -0.75742  -0.75538
 Alpha  occ. eigenvalues --   -0.75491  -0.74667  -0.74502  -0.72818  -0.70865
 Alpha  occ. eigenvalues --   -0.69547  -0.67220  -0.66547  -0.65112  -0.64149
 Alpha  occ. eigenvalues --   -0.63550  -0.62867  -0.61452  -0.59930  -0.59667
 Alpha  occ. eigenvalues --   -0.59212  -0.58770  -0.58168  -0.57806  -0.55900
 Alpha  occ. eigenvalues --   -0.55235  -0.54885  -0.54657  -0.54157  -0.53900
 Alpha  occ. eigenvalues --   -0.53299  -0.52585  -0.51896  -0.51335  -0.51152
 Alpha  occ. eigenvalues --   -0.50392  -0.49807  -0.49382  -0.49020  -0.48776
 Alpha  occ. eigenvalues --   -0.48742  -0.48303  -0.48243  -0.48077  -0.47738
 Alpha  occ. eigenvalues --   -0.47646  -0.47421  -0.47108  -0.46724  -0.46268
 Alpha  occ. eigenvalues --   -0.45911  -0.45657  -0.44943  -0.44754  -0.44418
 Alpha  occ. eigenvalues --   -0.44268  -0.43966  -0.43771  -0.43264  -0.43105
 Alpha  occ. eigenvalues --   -0.42771  -0.42569  -0.42286  -0.42028  -0.41457
 Alpha  occ. eigenvalues --   -0.41321  -0.41241  -0.40907  -0.40762  -0.40132
 Alpha  occ. eigenvalues --   -0.39997  -0.39792  -0.39700  -0.39546  -0.39488
 Alpha  occ. eigenvalues --   -0.39077  -0.39041  -0.38863  -0.38374  -0.38309
 Alpha  occ. eigenvalues --   -0.37969  -0.37278  -0.36851  -0.35827  -0.35454
 Alpha  occ. eigenvalues --   -0.34878  -0.34546  -0.33746  -0.33016  -0.31212
 Alpha  occ. eigenvalues --   -0.31022  -0.29348  -0.27815  -0.26387  -0.23504
 Alpha  occ. eigenvalues --   -0.19360
 Alpha virt. eigenvalues --   -0.06345  -0.01603   0.02013   0.04702   0.06358
 Alpha virt. eigenvalues --    0.08636   0.09943   0.10789   0.11289   0.11476
 Alpha virt. eigenvalues --    0.11769   0.12368   0.12585   0.13295   0.13454

 Mulliken charges:
               1
     1  O   -0.544261
     2  O   -0.559843
     3  C    0.028935
     4  C   -0.138726
     5  C   -0.176537
     6  C    0.127908
     7  C    0.118777
     8  C   -0.009769
     9  C   -0.317442
    10  C   -0.292195
    11  C   -0.179392
    12  C   -0.137665
    13  C    0.133012
    14  C    0.061475
    15  C   -0.076923
    16  C   -0.217009
    17  C    0.044944
    18  C   -0.293360
    19  C   -0.302791
    20  C   -0.329353
    21  C   -0.111024
    22  C   -0.099891
    23  C   -0.356229
    24  C    0.106165
    25  C   -0.111417
    26  C   -0.375124
    27  C    0.059564
    28  C   -0.110807
    29  C   -0.362585
    30  C   -0.123696
    31  C   -0.065496
    32  C   -0.084619
    33  C   -0.141041
    34  C    0.090634
    35  C   -0.110357
    36  C    0.095609
    37  C   -0.333512
    38  C   -0.105998
    39  C   -0.129441
    40  C   -0.364191
    41  C   -0.082714
    42  C   -0.085782
    43  H    0.076320
    44  H    0.103488
    45  H    0.096935
    46  H    0.080757
    47  H    0.113190
    48  H    0.091940
    49  H    0.107792
    50  H    0.098794
    51  H    0.100889
    52  H    0.092175
    53  H    0.120525
    54  H    0.085336
    55  H    0.073908
    56  H    0.080891
    57  H    0.079414
    58  H    0.092546
    59  H    0.130701
    60  H    0.106502
    61  H    0.079116
    62  H    0.090240
    63  H    0.110636
    64  H    0.093961
    65  H    0.088055
    66  H    0.088210
    67  H    0.086381
    68  H    0.122750
    69  H    0.301136
    70  H    0.077166
    71  H    0.062445
    72  H    0.125468
    73  H    0.106117
    74  H    0.107721
    75  H    0.308821
    76  H    0.081397
    77  H    0.100310
    78  H    0.132945
    79  H    0.110892
    80  H    0.069932
    81  H    0.138235
    82  H    0.113913
    83  H    0.111978
    84  H    0.073098
    85  H    0.089520
    86  H    0.091597
    87  H    0.084874
    88  H    0.084676
    89  H    0.145069
    90  H    0.083878
    91  H    0.109676
    92  H    0.082114
    93  H    0.075862
    94  H    0.132199
    95  H    0.092274
    96  H    0.114757
    97  H    0.073660
    98  H    0.088984
 Sum of Mulliken charges =  -0.00000

 Dipole moment (field-independent basis, Debye):
    X=              2.3802    Y=             -2.0996    Z=              0.5931  Tot=              3.2288
 Quadrupole moment (field-independent basis, Debye-Ang):
   XX=           -278.4695   YY=           -244.4733   ZZ=           -262.8165
   XY=             -4.9599   XZ=             37.9963   YZ=              1.5482

 Normal termination of Gaussian 16 at Sun Jul 14 11:10:23 2019.
