 Gaussian 16, Revision A.03,
 Gaussian 16:  ES64L-G16RevA.03 25-Dec-2016

 -------------------------------------
 # td=(NStates=1) CAM-B3LYP/6-31G(d,p)
 -------------------------------------

 --
 TD
 --
 Symbolic Z-matrix:
 Charge =  0 Multiplicity = 1

                         Standard orientation:
 ---------------------------------------------------------------------
 Center     Atomic      Atomic             Coordinates (Angstroms)
 Number     Number       Type             X           Y           Z
 ---------------------------------------------------------------------
      1          8           0      -14.060222   -2.127084    0.067700
      2          8           0       14.833130    0.924448   -0.317398
      3          6           0      -11.816002   -0.098696    1.298283
      4          6           0      -10.983013    0.359570    0.017823
      5          6           0      -12.039147   -1.518547    1.331417
      6          6           0      -12.716456   -2.087075   -0.058719
      7          6           0      -11.488588   -0.333625   -1.319396
      8          6           0       11.232858    0.900579    0.968143
      9          6           0      -11.028735    0.330860    2.496797
     10          6           0      -13.028338    0.767541    1.192708
     11          6           0       12.626140    1.584447    0.606484
     12          6           0      -12.359861   -1.342022   -1.264638
     13          6           0       13.534418    0.451097    0.101580
     14          6           0       10.634087   -0.099498   -0.014855
     15          6           0       -9.536931   -0.015289    0.028917
     16          6           0       12.967138   -0.231314   -1.095868
     17          6           0       11.447300   -0.624332   -0.955989
     18          6           0       10.266682    2.172149    0.958426
     19          6           0       11.221221    0.305424    2.366891
     20          6           0      -11.192622    0.277563   -2.630240
     21          6           0       -8.447274    0.849726   -0.137330
     22          6           0        9.277824   -0.561464    0.188224
     23          6           0       10.964465   -1.632197   -1.962224
     24          6           0       -6.999490    0.492614    0.013641
     25          6           0        8.734885   -1.745949    0.063350
     26          6           0       -6.563370   -0.893061    0.352236
     27          6           0        7.284054   -2.194873    0.118182
     28          6           0       -6.131963    1.516212   -0.237185
     29          6           0        6.970559   -3.613188    0.192643
     30          6           0        6.303319   -1.262412   -0.065124
     31          6           0       -4.774841    1.545471   -0.287308
     32          6           0        4.904535   -1.536880    0.063939
     33          6           0       -4.050526    2.662593   -0.487236
     34          6           0       -2.606990    2.696031   -0.522927
     35          6           0        3.979093   -0.501931   -0.118662
     36          6           0        2.565163   -0.728999   -0.041748
     37          6           0       -1.894877    3.922998   -0.921197
     38          6           0       -1.807784    1.596764   -0.337935
     39          6           0        1.828799    0.405890   -0.126208
     40          6           0        2.009161   -2.059696    0.141234
     41          6           0       -0.448460    1.575307   -0.329211
     42          6           0        0.412961    0.465216   -0.191733
     43          1           0      -10.949926    1.403652   -0.109792
     44          1           0      -12.909878   -1.698508    2.130838
     45          1           0      -11.268436   -2.014817    1.600010
     46          1           0      -12.285640   -3.313844   -0.195169
     47          1           0       -9.961446   -0.099515    2.531072
     48          1           0      -10.781663    1.396719    2.376835
     49          1           0      -11.677557    0.183932    3.334601
     50          1           0      -13.652089    0.433019    0.447800
     51          1           0      -13.714316    0.654116    2.232426
     52          1           0      -12.855735    1.738046    1.149954
     53          1           0       12.186535    2.487788   -0.277108
     54          1           0       12.926277    2.007973    1.360748
     55          1           0      -12.448017   -2.027858   -2.193156
     56          1           0       13.458446   -0.163851    0.908750
     57          1           0       -9.355750   -0.997495    0.170080
     58          1           0       13.665914   -1.073025   -1.158507
     59          1           0       13.124891    0.528786   -1.841517
     60          1           0        9.329224    1.812106    1.279539
     61          1           0       10.276704    2.736768   -0.008938
     62          1           0       10.501862    2.791904    1.737379
     63          1           0       12.171903   -0.482392    2.172342
     64          1           0       10.253900    0.035495    2.641461
     65          1           0       11.434315    0.994731    3.173461
     66          1           0      -10.218825    0.302718   -2.806787
     67          1           0      -11.791091    1.335801   -2.883111
     68          1           0      -11.419911   -0.430584   -3.407802
     69          1           0      -14.430691   -2.659411   -0.742356
     70          1           0        8.696698    0.196756    0.766591
     71          1           0       -8.553177    1.780492   -0.253403
     72          1           0       11.134350   -2.755276   -1.674826
     73          1           0       10.040207   -1.524566   -2.181359
     74          1           0       11.326068   -1.427962   -2.908382
     75          1           0       15.134686    1.384326    0.519199
     76          1           0        9.387685   -2.418075   -0.381701
     77          1           0       -5.511264   -1.196732    0.073796
     78          1           0       -6.418002   -1.055606    1.750052
     79          1           0       -7.386586   -1.763112   -0.054484
     80          1           0       -6.427329    2.600402   -0.376959
     81          1           0        6.855703   -3.912982    1.436767
     82          1           0        6.010725   -3.858520   -0.431531
     83          1           0        7.796688   -4.226476   -0.271867
     84          1           0        6.450026   -0.349219   -0.413775
     85          1           0       -4.265165    0.696173   -0.054133
     86          1           0        4.485604   -2.453979    0.481703
     87          1           0       -4.699602    3.578144   -0.656956
     88          1           0        4.222357    0.552831   -0.405213
     89          1           0       -1.238901    3.671354   -1.677962
     90          1           0       -1.270138    4.140950   -0.039437
     91          1           0       -2.687920    4.700402   -1.194766
     92          1           0       -2.375914    0.853355   -0.070385
     93          1           0        2.359944    1.570318   -0.079679
     94          1           0        2.624541   -2.875666    1.023547
     95          1           0        0.843973   -2.284167    0.559307
     96          1           0        1.978915   -2.662122   -0.940387
     97          1           0        0.200649    2.570610   -0.321699
     98          1           0       -0.003450   -0.574849   -0.218637
 ---------------------------------------------------------------------

 SCF Done:  E(RCAM-B3LYP) =  -1706.78575621     A.U. after   15 cycles

 Excitation energies and oscillator strengths:

 Excited State   1:      Singlet-A      2.1955 eV  564.72 nm  f=2.9222  <S**2>=0.000
     155 ->158        -0.14299
     156 ->157         0.69204
 This state for optimization and/or second-order correction.
 Total Energy, E(TD-HF/TD-DFT) =  -1706.70507252
 Copying the excited state density for this state as the 1-particle RhoCI density.

 The electronic state is 1-A.
 Alpha  occ. eigenvalues --  -19.22167 -19.21836 -10.32165 -10.30864 -10.30542
 Alpha  occ. eigenvalues --  -10.29312 -10.28287 -10.27858 -10.27840 -10.27555
 Alpha  occ. eigenvalues --  -10.27433 -10.27263 -10.27042 -10.27033 -10.26932
 Alpha  occ. eigenvalues --  -10.26894 -10.26693 -10.26671 -10.26652 -10.26398
 Alpha  occ. eigenvalues --  -10.25991 -10.25954 -10.25872 -10.25859 -10.25644
 Alpha  occ. eigenvalues --  -10.25576 -10.25548 -10.25374 -10.25304 -10.24990
 Alpha  occ. eigenvalues --  -10.24976 -10.24925 -10.24870 -10.24746 -10.24719
 Alpha  occ. eigenvalues --  -10.24435 -10.24362 -10.23895 -10.23887 -10.23340
 Alpha  occ. eigenvalues --  -10.23234 -10.22927  -1.11255  -1.08782  -0.94128
 Alpha  occ. eigenvalues --   -0.93602  -0.93289  -0.92235  -0.90934  -0.90200
 Alpha  occ. eigenvalues --   -0.88209  -0.87265  -0.86895  -0.85937  -0.84838
 Alpha  occ. eigenvalues --   -0.83133  -0.82236  -0.80761  -0.80359  -0.78211
 Alpha  occ. eigenvalues --   -0.77524  -0.77280  -0.76436  -0.76064  -0.75875
 Alpha  occ. eigenvalues --   -0.75826  -0.75350  -0.75053  -0.72891  -0.70205
 Alpha  occ. eigenvalues --   -0.68736  -0.67687  -0.66874  -0.64910  -0.64480
 Alpha  occ. eigenvalues --   -0.64261  -0.62623  -0.62270  -0.60666  -0.60567
 Alpha  occ. eigenvalues --   -0.60015  -0.59323  -0.59160  -0.57771  -0.55955
 Alpha  occ. eigenvalues --   -0.55434  -0.55226  -0.54906  -0.54470  -0.54224
 Alpha  occ. eigenvalues --   -0.53913  -0.53375  -0.53119  -0.52048  -0.50899
 Alpha  occ. eigenvalues --   -0.50778  -0.50520  -0.50101  -0.49608  -0.49478
 Alpha  occ. eigenvalues --   -0.49216  -0.49109  -0.49059  -0.48811  -0.48180
 Alpha  occ. eigenvalues --   -0.47334  -0.47218  -0.46968  -0.46357  -0.46085
 Alpha  occ. eigenvalues --   -0.46003  -0.45915  -0.45369  -0.44939  -0.44821
 Alpha  occ. eigenvalues --   -0.44363  -0.44103  -0.43962  -0.43819  -0.43602
 Alpha  occ. eigenvalues --   -0.43584  -0.43424  -0.43184  -0.43110  -0.42410
 Alpha  occ. eigenvalues --   -0.41924  -0.41425  -0.41091  -0.40857  -0.40507
 Alpha  occ. eigenvalues --   -0.40094  -0.39914  -0.39692  -0.39601  -0.39398
 Alpha  occ. eigenvalues --   -0.39253  -0.38603  -0.38432  -0.38185  -0.37639
 Alpha  occ. eigenvalues --   -0.37463  -0.36900  -0.36563  -0.36264  -0.35870
 Alpha  occ. eigenvalues --   -0.35254  -0.34521  -0.33398  -0.31926  -0.31868
 Alpha  occ. eigenvalues --   -0.31442  -0.29781  -0.28798  -0.26802  -0.23928
 Alpha  occ. eigenvalues --   -0.19659
 Alpha virt. eigenvalues --   -0.05853  -0.00901   0.02492   0.04932   0.06584
 Alpha virt. eigenvalues --    0.08584   0.09182   0.10539   0.10917   0.11164
 Alpha virt. eigenvalues --    0.11774   0.12077   0.12335   0.12774   0.13215

 Mulliken charges:
               1
     1  O   -0.516310
     2  O   -0.560622
     3  C    0.019001
     4  C   -0.133508
     5  C   -0.155563
     6  C    0.131601
     7  C    0.092243
     8  C   -0.091907
     9  C   -0.294764
    10  C   -0.275434
    11  C   -0.127433
    12  C   -0.108692
    13  C    0.149171
    14  C    0.139174
    15  C   -0.086769
    16  C   -0.207648
    17  C   -0.005855
    18  C   -0.309096
    19  C   -0.278552
    20  C   -0.337400
    21  C   -0.057628
    22  C   -0.105336
    23  C   -0.361775
    24  C    0.117299
    25  C   -0.098701
    26  C   -0.342639
    27  C    0.083199
    28  C   -0.133973
    29  C   -0.356384
    30  C   -0.081010
    31  C   -0.012596
    32  C   -0.102717
    33  C   -0.145428
    34  C    0.062845
    35  C   -0.116894
    36  C    0.168905
    37  C   -0.368521
    38  C   -0.048651
    39  C   -0.125914
    40  C   -0.367116
    41  C   -0.108937
    42  C   -0.094570
    43  H    0.089107
    44  H    0.098881
    45  H    0.098843
    46  H    0.009263
    47  H    0.095718
    48  H    0.092718
    49  H    0.102350
    50  H    0.129627
    51  H    0.049627
    52  H    0.106732
    53  H    0.047395
    54  H    0.082016
    55  H    0.069288
    56  H    0.083165
    57  H    0.078044
    58  H    0.115075
    59  H    0.129392
    60  H    0.091334
    61  H    0.104939
    62  H    0.100640
    63  H    0.077913
    64  H    0.118437
    65  H    0.098222
    66  H    0.125521
    67  H    0.096930
    68  H    0.105315
    69  H    0.314628
    70  H    0.068153
    71  H    0.056014
    72  H    0.101889
    73  H    0.131596
    74  H    0.106589
    75  H    0.305301
    76  H    0.071539
    77  H    0.125434
    78  H    0.057805
    79  H    0.098491
    80  H    0.071388
    81  H    0.089629
    82  H    0.114594
    83  H    0.113282
    84  H    0.076262
    85  H    0.073233
    86  H    0.086595
    87  H    0.081907
    88  H    0.089949
    89  H    0.141172
    90  H    0.127068
    91  H    0.094840
    92  H    0.055510
    93  H    0.063386
    94  H    0.081279
    95  H    0.104525
    96  H    0.112235
    97  H    0.072864
    98  H    0.071258
 Sum of Mulliken charges =  -0.00000

 Dipole moment (field-independent basis, Debye):
    X=             -0.5681    Y=             -0.5431    Z=              0.0597  Tot=              0.7882
 Quadrupole moment (field-independent basis, Debye-Ang):
   XX=           -289.0055   YY=           -245.0826   ZZ=           -261.6394
   XY=              7.7760   XZ=             40.5426   YZ=              5.7308

 Normal termination of Gaussian 16 at Sun Jul 14 19:28:29 2019.
