 Gaussian 16, Revision A.03,
 Gaussian 16:  ES64L-G16RevA.03 25-Dec-2016

 -------------------------------------
 # td=(NStates=1) CAM-B3LYP/6-31G(d,p)
 -------------------------------------

 --
 TD
 --
 Symbolic Z-matrix:
 Charge =  0 Multiplicity = 1

                         Standard orientation:
 ---------------------------------------------------------------------
 Center     Atomic      Atomic             Coordinates (Angstroms)
 Number     Number       Type             X           Y           Z
 ---------------------------------------------------------------------
      1          8           0      -14.138122   -1.937809    0.754065
      2          8           0       14.774651    1.057290    0.086629
      3          6           0      -11.812811    0.274689    1.245103
      4          6           0      -11.026787    0.283044   -0.147879
      5          6           0      -12.080267   -1.294123    1.556816
      6          6           0      -12.762661   -2.070139    0.526534
      7          6           0      -11.499771   -0.614437   -1.200140
      8          6           0       11.076915    1.024777    1.085560
      9          6           0      -10.976972    0.812991    2.331821
     10          6           0      -13.102767    1.039498    1.143988
     11          6           0       12.459957    1.589384    0.748849
     12          6           0      -12.342611   -1.719772   -0.945797
     13          6           0       13.471699    0.480830    0.420198
     14          6           0       10.605256   -0.064213    0.110552
     15          6           0       -9.568765    0.020043    0.072864
     16          6           0       12.956161   -0.222995   -0.800907
     17          6           0       11.538647   -0.652757   -0.740284
     18          6           0       10.055330    2.189932    1.053919
     19          6           0       11.004393    0.413951    2.468721
     20          6           0      -11.139291   -0.291418   -2.655757
     21          6           0       -8.500900    0.812946   -0.017398
     22          6           0        9.246969   -0.458228    0.109432
     23          6           0       11.103713   -1.553861   -1.947460
     24          6           0       -7.057987    0.489828   -0.035924
     25          6           0        8.766528   -1.743565    0.158462
     26          6           0       -6.621205   -0.948159    0.276791
     27          6           0        7.469911   -2.066294    0.024234
     28          6           0       -6.184748    1.418099   -0.249331
     29          6           0        7.285476   -3.682379    0.320800
     30          6           0        6.385960   -1.279607   -0.283720
     31          6           0       -4.813299    1.345975   -0.436370
     32          6           0        4.946527   -1.604482   -0.251112
     33          6           0       -3.992562    2.495777   -0.665183
     34          6           0       -2.593661    2.624606   -0.749273
     35          6           0        3.949553   -0.604409   -0.351143
     36          6           0        2.621147   -0.793279   -0.383705
     37          6           0       -1.985619    3.961459   -1.202371
     38          6           0       -1.707800    1.510279   -0.601376
     39          6           0        1.845336    0.445147   -0.502018
     40          6           0        2.102939   -2.204959   -0.119598
     41          6           0       -0.352956    1.578575   -0.725923
     42          6           0        0.430453    0.371392   -0.542413
     43          1           0      -11.260026    1.441060   -0.725054
     44          1           0      -12.602278   -1.530058    2.574537
     45          1           0      -11.186943   -1.786760    1.642290
     46          1           0      -12.380654   -3.201768    0.533628
     47          1           0      -10.268502   -0.101252    2.424942
     48          1           0      -10.698709    1.966540    2.076686
     49          1           0      -11.728730    1.070398    3.202797
     50          1           0      -13.705743    0.755945    0.356175
     51          1           0      -13.660635    0.947615    2.003325
     52          1           0      -12.790445    1.965670    0.827455
     53          1           0       12.194936    2.380762    0.046342
     54          1           0       12.908566    1.964390    1.697785
     55          1           0      -12.703743   -2.540586   -1.619586
     56          1           0       13.593655   -0.262811    1.284136
     57          1           0       -9.348216   -1.105502    0.309203
     58          1           0       13.532902   -1.160795   -1.043702
     59          1           0       13.311404    0.572528   -1.494247
     60          1           0        9.243173    1.823519    1.832756
     61          1           0        9.833475    2.316913   -0.043053
     62          1           0       10.567243    3.256209    1.329048
     63          1           0       11.861161   -0.384672    2.634003
     64          1           0       10.072202   -0.107397    2.840116
     65          1           0       11.256058    1.235721    3.167684
     66          1           0      -10.044913   -0.341440   -2.770358
     67          1           0      -11.250623    0.658680   -2.840645
     68          1           0      -11.597521   -0.980772   -3.225371
     69          1           0      -14.492097   -2.590555    0.047406
     70          1           0        8.483870    0.325181    0.290146
     71          1           0       -8.726899    1.852320   -0.360308
     72          1           0       11.651113   -2.663093   -1.845522
     73          1           0       10.039794   -1.491272   -2.144686
     74          1           0       11.699051   -1.256781   -3.030933
     75          1           0       15.112875    1.329478    1.000583
     76          1           0        9.646575   -2.511983    0.160217
     77          1           0       -5.582255   -0.971948    0.622682
     78          1           0       -6.872667   -1.312352    1.298351
     79          1           0       -6.861006   -1.633975   -0.549080
     80          1           0       -6.522840    2.503289   -0.250803
     81          1           0        6.778938   -3.714853    1.340579
     82          1           0        6.730272   -4.113639   -0.495886
     83          1           0        8.382615   -4.096663    0.426455
     84          1           0        6.498259   -0.178630   -0.425132
     85          1           0       -4.297575    0.364003   -0.442135
     86          1           0        4.530871   -2.601636   -0.124019
     87          1           0       -4.471000    3.462555   -0.692256
     88          1           0        4.432896    0.376249   -0.381284
     89          1           0       -1.233544    3.842313   -2.058713
     90          1           0       -1.343696    4.522390   -0.255842
     91          1           0       -2.907299    4.669188   -1.410739
     92          1           0       -2.222414    0.528456   -0.289756
     93          1           0        2.167241    1.331061   -0.868645
     94          1           0        2.391567   -2.455106    0.846356
     95          1           0        0.996895   -2.271827   -0.193006
     96          1           0        2.411588   -2.918525   -1.055012
     97          1           0        0.222618    2.549007   -1.119292
     98          1           0       -0.079664   -0.565514   -0.383541
 ---------------------------------------------------------------------

 SCF Done:  E(RCAM-B3LYP) =  -1706.94512965     A.U. after   16 cycles

 Excitation energies and oscillator strengths:

 Excited State   1:      Singlet-A      1.7327 eV  715.57 nm  f=3.0587  <S**2>=0.000
     155 ->158         0.12791
     156 ->157         0.70529
     156 <-157        -0.13599
 This state for optimization and/or second-order correction.
 Total Energy, E(TD-HF/TD-DFT) =  -1706.88145574
 Copying the excited state density for this state as the 1-particle RhoCI density.

 The electronic state is 1-A.
 Alpha  occ. eigenvalues --  -19.22078 -19.21751 -10.31230 -10.30602 -10.28465
 Alpha  occ. eigenvalues --  -10.28449 -10.28149 -10.28057 -10.27803 -10.27540
 Alpha  occ. eigenvalues --  -10.27509 -10.27473 -10.27408 -10.27366 -10.27247
 Alpha  occ. eigenvalues --  -10.27226 -10.26920 -10.26914 -10.26858 -10.26839
 Alpha  occ. eigenvalues --  -10.26559 -10.26496 -10.26492 -10.26463 -10.26436
 Alpha  occ. eigenvalues --  -10.26431 -10.26419 -10.26405 -10.26112 -10.26041
 Alpha  occ. eigenvalues --  -10.26004 -10.25837 -10.25821 -10.25761 -10.25704
 Alpha  occ. eigenvalues --  -10.25623 -10.25495 -10.25378 -10.25139 -10.23979
 Alpha  occ. eigenvalues --  -10.23116 -10.20869  -1.09492  -1.08303  -0.94355
 Alpha  occ. eigenvalues --   -0.93181  -0.92059  -0.91510  -0.90670  -0.89861
 Alpha  occ. eigenvalues --   -0.87050  -0.86972  -0.86607  -0.85244  -0.84426
 Alpha  occ. eigenvalues --   -0.82665  -0.81923  -0.80658  -0.78978  -0.78545
 Alpha  occ. eigenvalues --   -0.76898  -0.76432  -0.76066  -0.75768  -0.75491
 Alpha  occ. eigenvalues --   -0.75152  -0.74891  -0.74173  -0.72001  -0.70395
 Alpha  occ. eigenvalues --   -0.68936  -0.66489  -0.65211  -0.64495  -0.63143
 Alpha  occ. eigenvalues --   -0.62702  -0.62285  -0.62070  -0.60419  -0.59743
 Alpha  occ. eigenvalues --   -0.59276  -0.58989  -0.58388  -0.57193  -0.55577
 Alpha  occ. eigenvalues --   -0.55135  -0.54918  -0.54043  -0.53826  -0.53667
 Alpha  occ. eigenvalues --   -0.53074  -0.52763  -0.52365  -0.52112  -0.51273
 Alpha  occ. eigenvalues --   -0.50906  -0.50684  -0.50403  -0.50179  -0.49365
 Alpha  occ. eigenvalues --   -0.48978  -0.48847  -0.48532  -0.48323  -0.47542
 Alpha  occ. eigenvalues --   -0.47242  -0.46969  -0.46603  -0.45968  -0.45773
 Alpha  occ. eigenvalues --   -0.45414  -0.45315  -0.44947  -0.44548  -0.44336
 Alpha  occ. eigenvalues --   -0.44119  -0.43947  -0.43657  -0.43219  -0.43144
 Alpha  occ. eigenvalues --   -0.42933  -0.42868  -0.42735  -0.42385  -0.42293
 Alpha  occ. eigenvalues --   -0.41726  -0.41410  -0.40872  -0.40834  -0.40388
 Alpha  occ. eigenvalues --   -0.40276  -0.39861  -0.39632  -0.39559  -0.39162
 Alpha  occ. eigenvalues --   -0.39008  -0.38742  -0.38575  -0.38236  -0.37792
 Alpha  occ. eigenvalues --   -0.37618  -0.36916  -0.36719  -0.36476  -0.36366
 Alpha  occ. eigenvalues --   -0.35352  -0.34912  -0.33760  -0.32514  -0.31697
 Alpha  occ. eigenvalues --   -0.30845  -0.29425  -0.28106  -0.26865  -0.23582
 Alpha  occ. eigenvalues --   -0.17988
 Alpha virt. eigenvalues --   -0.07306  -0.01289   0.02391   0.05201   0.06894
 Alpha virt. eigenvalues --    0.08280   0.10356   0.10903   0.11184   0.11840
 Alpha virt. eigenvalues --    0.12118   0.12626   0.12816   0.13040   0.13962

 Mulliken charges:
               1
     1  O   -0.521123
     2  O   -0.562948
     3  C    0.019188
     4  C   -0.133712
     5  C   -0.192953
     6  C    0.138640
     7  C    0.101517
     8  C   -0.004559
     9  C   -0.261944
    10  C   -0.287424
    11  C   -0.171638
    12  C   -0.156430
    13  C    0.131378
    14  C    0.069599
    15  C   -0.098570
    16  C   -0.213516
    17  C    0.051906
    18  C   -0.313786
    19  C   -0.305822
    20  C   -0.328112
    21  C   -0.083562
    22  C   -0.134443
    23  C   -0.339005
    24  C    0.104861
    25  C   -0.113728
    26  C   -0.379433
    27  C    0.094948
    28  C   -0.104692
    29  C   -0.358720
    30  C   -0.141043
    31  C   -0.079009
    32  C   -0.095955
    33  C   -0.127728
    34  C    0.089703
    35  C   -0.094734
    36  C    0.083600
    37  C   -0.355377
    38  C   -0.099962
    39  C   -0.109515
    40  C   -0.372939
    41  C   -0.098439
    42  C   -0.083388
    43  H    0.046980
    44  H    0.096635
    45  H    0.095161
    46  H    0.047351
    47  H    0.104381
    48  H    0.084667
    49  H    0.085858
    50  H    0.116948
    51  H    0.108327
    52  H    0.089580
    53  H    0.110367
    54  H    0.077597
    55  H    0.077573
    56  H    0.083327
    57  H    0.083393
    58  H    0.096395
    59  H    0.131764
    60  H    0.106522
    61  H    0.112611
    62  H    0.087519
    63  H    0.080198
    64  H    0.112621
    65  H    0.097495
    66  H    0.111430
    67  H    0.119805
    68  H    0.115921
    69  H    0.302109
    70  H    0.092528
    71  H    0.069968
    72  H    0.087897
    73  H    0.136138
    74  H    0.078425
    75  H    0.308941
    76  H    0.094141
    77  H    0.106843
    78  H    0.116345
    79  H    0.125388
    80  H    0.077620
    81  H    0.121741
    82  H    0.127583
    83  H    0.099310
    84  H    0.077433
    85  H    0.082358
    86  H    0.082299
    87  H    0.072731
    88  H    0.075719
    89  H    0.124077
    90  H    0.087546
    91  H    0.098644
    92  H    0.080195
    93  H    0.089642
    94  H    0.146641
    95  H    0.109400
    96  H    0.115991
    97  H    0.087459
    98  H    0.083329
 Sum of Mulliken charges =  -0.00000

 Dipole moment (field-independent basis, Debye):
    X=              2.0722    Y=             -1.3500    Z=              0.2032  Tot=              2.4815
 Quadrupole moment (field-independent basis, Debye-Ang):
   XX=           -285.2723   YY=           -245.1203   ZZ=           -263.7950
   XY=             13.4129   XZ=             40.2118   YZ=              1.3360

 Normal termination of Gaussian 16 at Tue Jul 16 15:28:33 2019.
