 Gaussian 16, Revision A.03,
 Gaussian 16:  ES64L-G16RevA.03 25-Dec-2016

 -------------------------------------
 # td=(NStates=1) CAM-B3LYP/6-31G(d,p)
 -------------------------------------

 --
 TD
 --
 Symbolic Z-matrix:
 Charge =  0 Multiplicity = 1

                         Standard orientation:
 ---------------------------------------------------------------------
 Center     Atomic      Atomic             Coordinates (Angstroms)
 Number     Number       Type             X           Y           Z
 ---------------------------------------------------------------------
      1          8           0      -14.038772   -2.106997    0.574797
      2          8           0       14.841790    0.746449    0.236518
      3          6           0      -11.689021    0.013679    1.291613
      4          6           0      -10.893284    0.333950    0.031249
      5          6           0      -11.929835   -1.496060    1.396860
      6          6           0      -12.573770   -2.055124    0.175172
      7          6           0      -11.494316   -0.367113   -1.192812
      8          6           0       11.044870    0.871136    1.177013
      9          6           0      -10.784794    0.417184    2.410647
     10          6           0      -12.970839    0.759232    1.239599
     11          6           0       12.495272    1.425430    0.964407
     12          6           0      -12.183587   -1.440864   -1.003639
     13          6           0       13.457665    0.282811    0.367485
     14          6           0       10.612772    0.089278    0.006203
     15          6           0       -9.507605    0.039225   -0.008414
     16          6           0       12.914097    0.017102   -1.055920
     17          6           0       11.466670   -0.300689   -0.990645
     18          6           0       10.164154    2.225866    1.267372
     19          6           0       11.029246    0.008769    2.472070
     20          6           0      -11.282686    0.255111   -2.545634
     21          6           0       -8.424888    0.769439   -0.110649
     22          6           0        9.190508   -0.439889    0.070192
     23          6           0       10.940977   -0.903369   -2.258432
     24          6           0       -7.007475    0.465006   -0.065984
     25          6           0        8.668035   -1.701104   -0.245209
     26          6           0       -6.671379   -0.880142    0.130926
     27          6           0        7.346361   -2.149238   -0.085173
     28          6           0       -6.177626    1.564198   -0.284693
     29          6           0        7.193225   -3.649518   -0.082289
     30          6           0        6.274557   -1.307933   -0.149006
     31          6           0       -4.852049    1.520281   -0.378004
     32          6           0        5.007353   -1.573377   -0.073789
     33          6           0       -4.013729    2.545129   -0.571355
     34          6           0       -2.498750    2.645813   -0.601324
     35          6           0        3.884037   -0.713335   -0.268759
     36          6           0        2.518860   -0.824748   -0.261422
     37          6           0       -1.935949    4.092959   -0.804513
     38          6           0       -1.776230    1.536622   -0.503736
     39          6           0        1.722596    0.265796   -0.492151
     40          6           0        2.011981   -2.215919    0.174548
     41          6           0       -0.399298    1.431817   -0.571352
     42          6           0        0.351585    0.300902   -0.400414
     43          1           0      -10.936533    1.393494   -0.132906
     44          1           0      -12.770323   -1.618761    2.158213
     45          1           0      -11.009245   -2.037008    1.534170
     46          1           0      -12.105198   -3.066141    0.132305
     47          1           0       -9.756224    0.102674    2.186766
     48          1           0      -10.892712    1.686615    2.466281
     49          1           0      -11.149087    0.194418    3.478607
     50          1           0      -13.559523    0.674340    0.365271
     51          1           0      -13.756553    0.725977    2.183581
     52          1           0      -12.809241    1.832085    1.269326
     53          1           0       12.479917    2.524200    0.318762
     54          1           0       12.800690    1.689575    1.985174
     55          1           0      -12.509153   -2.122805   -1.859559
     56          1           0       13.408462   -0.602698    0.963422
     57          1           0       -9.231695   -1.148319   -0.064653
     58          1           0       13.589344   -0.784539   -1.531516
     59          1           0       12.880495    0.868412   -1.669890
     60          1           0        8.937788    2.082938    1.653703
     61          1           0        9.916244    2.649659    0.176160
     62          1           0       10.519574    2.988397    1.950829
     63          1           0       11.685555   -0.989234    2.462605
     64          1           0       10.136469   -0.525333    2.986596
     65          1           0       11.378188    0.610420    3.334727
     66          1           0      -10.077136    0.427425   -2.677586
     67          1           0      -11.898492    1.285449   -2.794915
     68          1           0      -11.713505   -0.453164   -3.234133
     69          1           0      -14.398456   -2.239083   -0.222768
     70          1           0        8.500063    0.308910    0.599508
     71          1           0       -8.736837    1.718735   -0.554893
     72          1           0       11.379629   -1.983553   -2.293478
     73          1           0        9.938725   -0.972710   -2.460754
     74          1           0       11.613259   -0.625398   -3.097088
     75          1           0       15.148852    1.121104    1.158604
     76          1           0        9.247332   -2.497588   -0.481687
     77          1           0       -5.617461   -1.137282    0.160921
     78          1           0       -7.137669   -1.521456    0.952249
     79          1           0       -6.808234   -1.436442   -0.835651
     80          1           0       -6.694543    2.514000   -0.447199
     81          1           0        6.885941   -4.112426    0.899394
     82          1           0        6.416415   -3.938697   -0.784007
     83          1           0        8.027668   -4.086072   -0.331029
     84          1           0        6.538351   -0.194256   -0.285410
     85          1           0       -4.478763    0.420086   -0.315436
     86          1           0        4.815450   -2.584206    0.128263
     87          1           0       -4.557903    3.566604   -0.527981
     88          1           0        4.104477    0.499947   -0.267442
     89          1           0       -1.399660    4.285022   -1.785713
     90          1           0       -1.132739    4.208457    0.022728
     91          1           0       -2.789898    4.643055   -0.633156
     92          1           0       -2.134360    0.538478   -0.269012
     93          1           0        2.207658    1.064032   -0.845415
     94          1           0        2.227333   -2.467090    1.248533
     95          1           0        0.893241   -2.207976   -0.164142
     96          1           0        2.429620   -3.031328   -0.566503
     97          1           0        0.277206    2.254801   -0.982953
     98          1           0       -0.113205   -0.761226   -0.170583
 ---------------------------------------------------------------------

 SCF Done:  E(RCAM-B3LYP) =  -1706.93281215     A.U. after   15 cycles

 Excitation energies and oscillator strengths:

 Excited State   1:      Singlet-A      2.0651 eV  600.39 nm  f=3.2486  <S**2>=0.000
     155 ->158         0.14739
     156 ->157         0.69300
 This state for optimization and/or second-order correction.
 Total Energy, E(TD-HF/TD-DFT) =  -1706.85692268
 Copying the excited state density for this state as the 1-particle RhoCI density.

 The electronic state is 1-A.
 Alpha  occ. eigenvalues --  -19.21672 -19.20638 -10.31347 -10.29317 -10.29048
 Alpha  occ. eigenvalues --  -10.28087 -10.27864 -10.27862 -10.27593 -10.27491
 Alpha  occ. eigenvalues --  -10.27250 -10.27220 -10.27171 -10.26980 -10.26978
 Alpha  occ. eigenvalues --  -10.26962 -10.26846 -10.26738 -10.26652 -10.26487
 Alpha  occ. eigenvalues --  -10.26458 -10.26285 -10.26073 -10.26031 -10.25932
 Alpha  occ. eigenvalues --  -10.25871 -10.25851 -10.25788 -10.25738 -10.25662
 Alpha  occ. eigenvalues --  -10.25284 -10.25240 -10.25228 -10.25199 -10.25138
 Alpha  occ. eigenvalues --  -10.24981 -10.24921 -10.24762 -10.24567 -10.24481
 Alpha  occ. eigenvalues --  -10.23900 -10.23527  -1.09258  -1.06651  -0.95880
 Alpha  occ. eigenvalues --   -0.93558  -0.92964  -0.92624  -0.91708  -0.90374
 Alpha  occ. eigenvalues --   -0.88273  -0.87732  -0.86970  -0.86597  -0.85392
 Alpha  occ. eigenvalues --   -0.83994  -0.82742  -0.81870  -0.79572  -0.79089
 Alpha  occ. eigenvalues --   -0.77364  -0.76499  -0.76075  -0.75880  -0.75595
 Alpha  occ. eigenvalues --   -0.75239  -0.74682  -0.74162  -0.73530  -0.70686
 Alpha  occ. eigenvalues --   -0.69456  -0.68149  -0.67036  -0.65663  -0.64514
 Alpha  occ. eigenvalues --   -0.63126  -0.62458  -0.61625  -0.60720  -0.60535
 Alpha  occ. eigenvalues --   -0.59440  -0.58007  -0.57941  -0.57463  -0.57173
 Alpha  occ. eigenvalues --   -0.55850  -0.55287  -0.54584  -0.54481  -0.54333
 Alpha  occ. eigenvalues --   -0.54028  -0.53296  -0.52458  -0.51664  -0.50805
 Alpha  occ. eigenvalues --   -0.50356  -0.49967  -0.49589  -0.49151  -0.49091
 Alpha  occ. eigenvalues --   -0.49074  -0.48886  -0.48613  -0.48044  -0.47761
 Alpha  occ. eigenvalues --   -0.47380  -0.47148  -0.46750  -0.46485  -0.46305
 Alpha  occ. eigenvalues --   -0.46130  -0.45793  -0.45628  -0.45194  -0.45022
 Alpha  occ. eigenvalues --   -0.44425  -0.44343  -0.44046  -0.43688  -0.43219
 Alpha  occ. eigenvalues --   -0.42812  -0.42683  -0.42605  -0.42423  -0.42020
 Alpha  occ. eigenvalues --   -0.41448  -0.41278  -0.41043  -0.40758  -0.40293
 Alpha  occ. eigenvalues --   -0.40098  -0.39842  -0.39737  -0.39695  -0.39538
 Alpha  occ. eigenvalues --   -0.39053  -0.38865  -0.38573  -0.38206  -0.37887
 Alpha  occ. eigenvalues --   -0.37750  -0.37048  -0.36560  -0.36429  -0.35745
 Alpha  occ. eigenvalues --   -0.35566  -0.35303  -0.33667  -0.32794  -0.32191
 Alpha  occ. eigenvalues --   -0.31835  -0.30267  -0.29004  -0.26722  -0.23420
 Alpha  occ. eigenvalues --   -0.19028
 Alpha virt. eigenvalues --   -0.06265  -0.01522   0.02779   0.05232   0.07016
 Alpha virt. eigenvalues --    0.09861   0.11135   0.11412   0.11783   0.12207
 Alpha virt. eigenvalues --    0.12625   0.12831   0.13244   0.13597   0.13787

 Mulliken charges:
               1
     1  O   -0.533900
     2  O   -0.578843
     3  C    0.036531
     4  C   -0.128998
     5  C   -0.184262
     6  C    0.110640
     7  C    0.129537
     8  C    0.007906
     9  C   -0.285802
    10  C   -0.294950
    11  C   -0.204416
    12  C   -0.122025
    13  C    0.177623
    14  C    0.061577
    15  C   -0.103622
    16  C   -0.222853
    17  C    0.053837
    18  C   -0.307217
    19  C   -0.312495
    20  C   -0.347382
    21  C   -0.088566
    22  C   -0.114888
    23  C   -0.357582
    24  C    0.150576
    25  C   -0.098427
    26  C   -0.414559
    27  C    0.078347
    28  C   -0.105134
    29  C   -0.376161
    30  C   -0.080247
    31  C   -0.038918
    32  C   -0.089903
    33  C   -0.153443
    34  C    0.067805
    35  C   -0.133509
    36  C    0.122673
    37  C   -0.351192
    38  C   -0.093931
    39  C   -0.097966
    40  C   -0.362437
    41  C   -0.096929
    42  C   -0.078498
    43  H    0.088776
    44  H    0.128656
    45  H    0.089466
    46  H    0.087121
    47  H    0.119049
    48  H    0.047817
    49  H    0.093210
    50  H    0.113796
    51  H    0.081032
    52  H    0.090119
    53  H    0.084810
    54  H    0.084143
    55  H    0.064590
    56  H    0.100922
    57  H    0.052274
    58  H    0.106316
    59  H    0.139692
    60  H    0.060076
    61  H    0.106861
    62  H    0.114702
    63  H    0.089684
    64  H    0.109922
    65  H    0.098025
    66  H    0.101654
    67  H    0.103599
    68  H    0.118287
    69  H    0.286633
    70  H    0.085286
    71  H    0.069398
    72  H    0.091084
    73  H    0.132309
    74  H    0.106697
    75  H    0.306728
    76  H    0.076319
    77  H    0.112369
    78  H    0.128193
    79  H    0.127313
    80  H    0.083264
    81  H    0.114783
    82  H    0.122286
    83  H    0.116268
    84  H    0.069801
    85  H    0.072571
    86  H    0.072518
    87  H    0.066534
    88  H    0.047629
    89  H    0.125001
    90  H    0.116949
    91  H    0.120703
    92  H    0.084229
    93  H    0.074991
    94  H    0.132398
    95  H    0.091996
    96  H    0.108400
    97  H    0.074433
    98  H    0.070322
 Sum of Mulliken charges =  -0.00000

 Dipole moment (field-independent basis, Debye):
    X=              1.7443    Y=             -0.6397    Z=             -0.8391  Tot=              2.0387
 Quadrupole moment (field-independent basis, Debye-Ang):
   XX=           -282.7169   YY=           -245.3163   ZZ=           -260.7739
   XY=             -5.5349   XZ=             45.9961   YZ=              2.9220

 Normal termination of Gaussian 16 at Tue Jul 16 06:40:23 2019.
