 Gaussian 16, Revision A.03,
 Gaussian 16:  ES64L-G16RevA.03 25-Dec-2016

 -------------------------------------
 # td=(NStates=1) CAM-B3LYP/6-31G(d,p)
 -------------------------------------

 --
 TD
 --
 Symbolic Z-matrix:
 Charge =  0 Multiplicity = 1

                         Standard orientation:
 ---------------------------------------------------------------------
 Center     Atomic      Atomic             Coordinates (Angstroms)
 Number     Number       Type             X           Y           Z
 ---------------------------------------------------------------------
      1          8           0      -14.142271   -1.977232    0.615150
      2          8           0       14.785344    0.987080   -0.070538
      3          6           0      -11.782093    0.051823    1.255698
      4          6           0      -11.107659    0.327431   -0.135398
      5          6           0      -11.907669   -1.477844    1.303353
      6          6           0      -12.780715   -2.129718    0.271846
      7          6           0      -11.640361   -0.384943   -1.228514
      8          6           0       11.167182    0.898745    1.132572
      9          6           0      -10.981190    0.561530    2.435752
     10          6           0      -13.145893    0.771563    1.232567
     11          6           0       12.592740    1.363861    0.766593
     12          6           0      -12.393980   -1.472982   -1.127326
     13          6           0       13.473213    0.330990    0.199707
     14          6           0       10.690969   -0.021585    0.004329
     15          6           0       -9.551982   -0.062784   -0.095819
     16          6           0       12.932915   -0.142744   -1.023933
     17          6           0       11.499379   -0.466979   -1.006215
     18          6           0       10.196719    2.181661    1.232997
     19          6           0       11.162176    0.199698    2.478618
     20          6           0      -11.465300    0.270240   -2.534834
     21          6           0       -8.526623    0.744254   -0.422895
     22          6           0        9.277578   -0.508806    0.052146
     23          6           0       10.999603   -1.261377   -2.180242
     24          6           0       -7.112373    0.479065   -0.261355
     25          6           0        8.790773   -1.669139   -0.013591
     26          6           0       -6.659278   -0.974397    0.136148
     27          6           0        7.439720   -2.160884   -0.029487
     28          6           0       -6.143045    1.463445   -0.332001
     29          6           0        7.082304   -3.577793    0.092196
     30          6           0        6.386220   -1.248861   -0.186445
     31          6           0       -4.739953    1.373675   -0.327452
     32          6           0        5.025516   -1.571926   -0.154066
     33          6           0       -3.978419    2.580094   -0.501897
     34          6           0       -2.531331    2.621964   -0.590865
     35          6           0        4.068530   -0.558306   -0.153786
     36          6           0        2.650285   -0.894976   -0.064553
     37          6           0       -1.986213    4.037353   -0.766374
     38          6           0       -1.704744    1.537557   -0.319396
     39          6           0        1.810002    0.315102   -0.236129
     40          6           0        2.142871   -2.188419    0.164163
     41          6           0       -0.313019    1.571388   -0.342193
     42          6           0        0.460856    0.432411   -0.187923
     43          1           0      -11.347663    1.238099   -0.350885
     44          1           0      -12.591120   -1.667018    2.219367
     45          1           0      -10.936009   -1.903118    1.451175
     46          1           0      -12.808203   -3.277863    0.004801
     47          1           0       -9.870610    0.150109    2.417980
     48          1           0      -11.037655    1.724763    2.233220
     49          1           0      -11.393930    0.178010    3.434084
     50          1           0      -13.889216    0.153536    0.597040
     51          1           0      -13.504666    0.874499    2.297820
     52          1           0      -13.021173    1.884882    0.827853
     53          1           0       12.543806    2.126637   -0.037347
     54          1           0       13.077990    1.828414    1.547313
     55          1           0      -12.966552   -2.092414   -1.976318
     56          1           0       13.669287   -0.572963    0.849617
     57          1           0       -9.317168   -1.198606    0.225414
     58          1           0       13.496303   -0.878662   -1.354681
     59          1           0       13.031651    0.769800   -1.675039
     60          1           0        9.262366    1.643601    1.474917
     61          1           0       10.010790    2.629250    0.193284
     62          1           0       10.664064    2.825269    1.909692
     63          1           0       12.137346   -0.469552    2.592880
     64          1           0       10.304253   -0.363332    2.519897
     65          1           0       11.422061    0.742216    3.397642
     66          1           0      -10.351724    0.395108   -2.586779
     67          1           0      -11.650118    1.451113   -2.505832
     68          1           0      -11.860139   -0.164156   -3.554342
     69          1           0      -14.551685   -2.613757   -0.050681
     70          1           0        8.813537    0.517876    0.161258
     71          1           0       -8.713250    1.644817   -0.723171
     72          1           0       11.609864   -2.139696   -2.302409
     73          1           0       10.013358   -1.009912   -2.154173
     74          1           0       11.174923   -0.716788   -3.277916
     75          1           0       15.127395    1.217849    0.904703
     76          1           0        9.391634   -2.619025   -0.093583
     77          1           0       -5.612608   -1.239983   -0.314007
     78          1           0       -6.604592   -1.099744    1.248618
     79          1           0       -7.305262   -1.649565   -0.409759
     80          1           0       -6.497824    2.418952   -0.507051
     81          1           0        6.498521   -4.059152    0.825532
     82          1           0        6.575192   -3.868496   -0.787869
     83          1           0        8.121518   -4.135532    0.101370
     84          1           0        6.684590   -0.073079   -0.211971
     85          1           0       -4.212469    0.593661   -0.047671
     86          1           0        4.831010   -2.387986    0.111359
     87          1           0       -4.702435    3.481543   -0.853856
     88          1           0        4.437212    0.343051   -0.446586
     89          1           0       -1.485367    4.191831   -1.800852
     90          1           0       -1.271112    4.419515   -0.053632
     91          1           0       -2.873974    4.806775   -0.546753
     92          1           0       -1.986834    0.484051   -0.036927
     93          1           0        2.303815    1.224121   -0.364354
     94          1           0        2.695924   -2.718556    0.937612
     95          1           0        0.989565   -2.246942    0.520817
     96          1           0        1.976954   -2.912786   -0.827432
     97          1           0        0.159134    2.529769   -0.747429
     98          1           0       -0.191555   -0.525539    0.021162
 ---------------------------------------------------------------------

 SCF Done:  E(RCAM-B3LYP) =  -1706.88074099     A.U. after   15 cycles

 Excitation energies and oscillator strengths:

 Excited State   1:      Singlet-A      1.9579 eV  633.26 nm  f=2.9887  <S**2>=0.000
     155 ->158         0.13329
     156 ->157         0.69911
     156 <-157        -0.10896
 This state for optimization and/or second-order correction.
 Total Energy, E(TD-HF/TD-DFT) =  -1706.80879066
 Copying the excited state density for this state as the 1-particle RhoCI density.

 The electronic state is 1-A.
 Alpha  occ. eigenvalues --  -19.22107 -19.21157 -10.31611 -10.29089 -10.28644
 Alpha  occ. eigenvalues --  -10.28357 -10.28068 -10.28048 -10.28030 -10.27579
 Alpha  occ. eigenvalues --  -10.27551 -10.27047 -10.26874 -10.26815 -10.26690
 Alpha  occ. eigenvalues --  -10.26676 -10.26647 -10.26595 -10.26368 -10.26281
 Alpha  occ. eigenvalues --  -10.26250 -10.26208 -10.26173 -10.26031 -10.25950
 Alpha  occ. eigenvalues --  -10.25827 -10.25674 -10.25665 -10.25432 -10.25429
 Alpha  occ. eigenvalues --  -10.25385 -10.25367 -10.25364 -10.25315 -10.25145
 Alpha  occ. eigenvalues --  -10.24903 -10.24889 -10.24879 -10.24594 -10.23865
 Alpha  occ. eigenvalues --  -10.23616 -10.22708  -1.10270  -1.06070  -0.94809
 Alpha  occ. eigenvalues --   -0.94100  -0.92398  -0.91589  -0.90739  -0.89889
 Alpha  occ. eigenvalues --   -0.87670  -0.87493  -0.87282  -0.86236  -0.84820
 Alpha  occ. eigenvalues --   -0.83422  -0.82219  -0.81238  -0.79920  -0.78910
 Alpha  occ. eigenvalues --   -0.76761  -0.76439  -0.76155  -0.76097  -0.75692
 Alpha  occ. eigenvalues --   -0.75468  -0.74582  -0.73770  -0.72429  -0.70678
 Alpha  occ. eigenvalues --   -0.68810  -0.67273  -0.66724  -0.64567  -0.64261
 Alpha  occ. eigenvalues --   -0.63876  -0.63437  -0.62215  -0.61452  -0.60758
 Alpha  occ. eigenvalues --   -0.60027  -0.58850  -0.58524  -0.57948  -0.56600
 Alpha  occ. eigenvalues --   -0.56147  -0.55716  -0.54908  -0.53976  -0.53580
 Alpha  occ. eigenvalues --   -0.53212  -0.52933  -0.52526  -0.52322  -0.51624
 Alpha  occ. eigenvalues --   -0.51225  -0.50947  -0.50182  -0.49681  -0.49237
 Alpha  occ. eigenvalues --   -0.49180  -0.48627  -0.48358  -0.48130  -0.47979
 Alpha  occ. eigenvalues --   -0.47933  -0.47404  -0.47067  -0.46816  -0.46512
 Alpha  occ. eigenvalues --   -0.46265  -0.45753  -0.45303  -0.45020  -0.44714
 Alpha  occ. eigenvalues --   -0.44141  -0.43843  -0.43722  -0.43288  -0.43189
 Alpha  occ. eigenvalues --   -0.43150  -0.42807  -0.42602  -0.41921  -0.41671
 Alpha  occ. eigenvalues --   -0.41412  -0.41176  -0.41084  -0.40740  -0.40594
 Alpha  occ. eigenvalues --   -0.40476  -0.40204  -0.40155  -0.39834  -0.39510
 Alpha  occ. eigenvalues --   -0.39361  -0.39087  -0.38812  -0.38487  -0.37688
 Alpha  occ. eigenvalues --   -0.37142  -0.36953  -0.36641  -0.35945  -0.35500
 Alpha  occ. eigenvalues --   -0.35220  -0.35035  -0.34521  -0.32114  -0.31830
 Alpha  occ. eigenvalues --   -0.30945  -0.28699  -0.28427  -0.26595  -0.23765
 Alpha  occ. eigenvalues --   -0.18909
 Alpha virt. eigenvalues --   -0.06729  -0.01023   0.02729   0.05809   0.07035
 Alpha virt. eigenvalues --    0.08054   0.10371   0.11054   0.11306   0.11799
 Alpha virt. eigenvalues --    0.12230   0.12626   0.13309   0.13428   0.13843

 Mulliken charges:
               1
     1  O   -0.522875
     2  O   -0.574226
     3  C    0.024164
     4  C   -0.109922
     5  C   -0.194625
     6  C    0.125048
     7  C    0.164280
     8  C   -0.019144
     9  C   -0.283624
    10  C   -0.313426
    11  C   -0.175647
    12  C   -0.145898
    13  C    0.141687
    14  C    0.019576
    15  C   -0.108947
    16  C   -0.190079
    17  C    0.049375
    18  C   -0.304282
    19  C   -0.294885
    20  C   -0.363480
    21  C   -0.047619
    22  C   -0.152062
    23  C   -0.343491
    24  C    0.073010
    25  C   -0.049807
    26  C   -0.372536
    27  C    0.076511
    28  C   -0.116120
    29  C   -0.392320
    30  C   -0.120558
    31  C   -0.027421
    32  C   -0.016522
    33  C   -0.144628
    34  C    0.077694
    35  C   -0.100672
    36  C    0.129438
    37  C   -0.374537
    38  C   -0.099873
    39  C   -0.117633
    40  C   -0.392310
    41  C   -0.072026
    42  C   -0.088582
    43  H    0.082977
    44  H    0.095711
    45  H    0.104282
    46  H    0.059277
    47  H    0.090381
    48  H    0.089414
    49  H    0.101397
    50  H    0.143090
    51  H    0.097544
    52  H    0.070679
    53  H    0.100334
    54  H    0.070112
    55  H    0.054577
    56  H    0.074489
    57  H    0.088742
    58  H    0.101652
    59  H    0.115276
    60  H    0.108063
    61  H    0.098187
    62  H    0.114578
    63  H    0.076027
    64  H    0.119365
    65  H    0.102729
    66  H    0.112662
    67  H    0.092785
    68  H    0.111342
    69  H    0.309943
    70  H    0.088337
    71  H    0.065228
    72  H    0.124615
    73  H    0.136938
    74  H    0.067648
    75  H    0.301433
    76  H    0.074727
    77  H    0.098606
    78  H    0.126785
    79  H    0.117153
    80  H    0.067223
    81  H    0.133738
    82  H    0.136370
    83  H    0.085613
    84  H    0.063596
    85  H    0.076489
    86  H    0.032528
    87  H    0.082120
    88  H    0.085846
    89  H    0.115002
    90  H    0.130220
    91  H    0.100153
    92  H    0.083668
    93  H    0.080331
    94  H    0.130064
    95  H    0.103836
    96  H    0.108898
    97  H    0.081628
    98  H    0.064588
 Sum of Mulliken charges =  -0.00000

 Dipole moment (field-independent basis, Debye):
    X=             -0.7131    Y=             -1.4526    Z=              0.4486  Tot=              1.6792
 Quadrupole moment (field-independent basis, Debye-Ang):
   XX=           -292.2923   YY=           -241.5145   ZZ=           -263.5482
   XY=              6.2764   XZ=             37.7419   YZ=              1.3436

 Normal termination of Gaussian 16 at Tue Jul 16 11:44:11 2019.
