 Gaussian 16, Revision A.03,
 Gaussian 16:  ES64L-G16RevA.03 25-Dec-2016

 -------------------------------------
 # td=(NStates=1) CAM-B3LYP/6-31G(d,p)
 -------------------------------------

 --
 TD
 --
 Symbolic Z-matrix:
 Charge =  0 Multiplicity = 1

                         Standard orientation:
 ---------------------------------------------------------------------
 Center     Atomic      Atomic             Coordinates (Angstroms)
 Number     Number       Type             X           Y           Z
 ---------------------------------------------------------------------
      1          8           0      -14.145557   -1.831431    0.555975
      2          8           0       14.752282    0.819795    0.065970
      3          6           0      -11.682030   -0.189761    1.336243
      4          6           0      -11.002211    0.265470   -0.026576
      5          6           0      -11.996806   -1.725357    1.252474
      6          6           0      -12.933698   -2.009968    0.117605
      7          6           0      -11.575029   -0.427130   -1.189414
      8          6           0       11.024019    0.926179    1.095271
      9          6           0      -10.922741    0.221164    2.509453
     10          6           0      -13.031003    0.779302    1.336922
     11          6           0       12.478342    1.335726    0.951920
     12          6           0      -12.546941   -1.371492   -1.131664
     13          6           0       13.423213    0.287080    0.309625
     14          6           0       10.664262   -0.011803   -0.061562
     15          6           0       -9.412839   -0.021323   -0.019523
     16          6           0       12.922662   -0.218948   -0.990955
     17          6           0       11.509216   -0.515103   -0.981291
     18          6           0       10.134946    2.248120    1.115810
     19          6           0       10.910686    0.241569    2.513687
     20          6           0      -11.167493    0.261240   -2.559086
     21          6           0       -8.459075    0.870448   -0.231894
     22          6           0        9.296858   -0.428188   -0.017178
     23          6           0       11.041068   -1.327813   -2.177223
     24          6           0       -7.123103    0.490702   -0.260903
     25          6           0        8.788379   -1.670573   -0.203875
     26          6           0       -6.734317   -1.002866   -0.111090
     27          6           0        7.399312   -2.150644   -0.060922
     28          6           0       -6.043019    1.437221   -0.399829
     29          6           0        7.238914   -3.670510   -0.060176
     30          6           0        6.375075   -1.320735   -0.195689
     31          6           0       -4.703546    1.417942   -0.416527
     32          6           0        4.935820   -1.592902   -0.101289
     33          6           0       -3.967448    2.599413   -0.623606
     34          6           0       -2.485156    2.760334   -0.556468
     35          6           0        4.030758   -0.582179   -0.073670
     36          6           0        2.605779   -0.655499    0.123368
     37          6           0       -1.883845    4.087744   -0.882630
     38          6           0       -1.728963    1.687742   -0.423896
     39          6           0        1.853420    0.447604   -0.113156
     40          6           0        2.094312   -2.086553    0.288136
     41          6           0       -0.329410    1.638634   -0.316724
     42          6           0        0.437876    0.431570   -0.194502
     43          1           0      -11.043740    1.297438   -0.154955
     44          1           0      -12.323350   -1.922697    2.306430
     45          1           0      -11.083030   -2.278596    1.155822
     46          1           0      -12.802098   -3.064907   -0.180891
     47          1           0       -9.938651   -0.308618    2.487892
     48          1           0      -10.748069    1.215365    2.618909
     49          1           0      -11.482176   -0.246520    3.326700
     50          1           0      -13.459331    0.886219    0.285488
     51          1           0      -13.880107    0.222378    2.044334
     52          1           0      -12.689584    1.890382    1.822696
     53          1           0       12.383453    2.220174    0.175664
     54          1           0       12.945592    1.851001    1.806706
     55          1           0      -12.871858   -1.805913   -1.974068
     56          1           0       13.604124   -0.585357    0.835630
     57          1           0       -9.081460   -1.047948   -0.035569
     58          1           0       13.523187   -1.234312   -1.216073
     59          1           0       13.104112    0.436034   -1.730880
     60          1           0        8.886011    2.051999    1.209485
     61          1           0       10.272651    2.644879    0.145800
     62          1           0       10.451298    2.710541    1.965647
     63          1           0       11.513521   -0.592361    2.737379
     64          1           0        9.736471   -0.039680    2.624720
     65          1           0       11.313490    0.969014    3.178609
     66          1           0      -10.277521    0.358075   -2.636557
     67          1           0      -11.647310    1.294824   -2.508609
     68          1           0      -11.713118   -0.168933   -3.423060
     69          1           0      -14.678333   -2.397356   -0.054201
     70          1           0        8.489334    0.324591    0.172420
     71          1           0       -8.644756    2.018207   -0.058075
     72          1           0       11.295973   -2.466080   -2.223902
     73          1           0        9.936000   -1.203736   -2.546861
     74          1           0       11.714771   -1.016820   -3.187308
     75          1           0       14.871545    1.305173    0.934244
     76          1           0        9.576353   -2.405501   -0.550520
     77          1           0       -5.551462   -1.150200    0.038922
     78          1           0       -7.209501   -1.464187    0.791855
     79          1           0       -6.931036   -1.354302   -1.214513
     80          1           0       -6.450250    2.379934   -0.574840
     81          1           0        7.026558   -4.023139    0.945852
     82          1           0        6.449818   -3.936503   -0.481306
     83          1           0        8.103297   -3.976030   -0.426786
     84          1           0        6.669724   -0.329658   -0.409454
     85          1           0       -4.129616    0.467003   -0.249930
     86          1           0        4.570499   -2.624395    0.235335
     87          1           0       -4.489907    3.503014   -0.784224
     88          1           0        4.407909    0.387999   -0.322500
     89          1           0       -1.205601    4.084152   -1.741368
     90          1           0       -1.259890    4.249281   -0.096786
     91          1           0       -2.541985    4.964933   -1.097223
     92          1           0       -2.410912    0.754445   -0.330816
     93          1           0        2.303807    1.501755   -0.163753
     94          1           0        2.148649   -2.328439    1.356191
     95          1           0        0.895794   -2.204244   -0.078670
     96          1           0        2.780369   -2.551511   -0.471335
     97          1           0        0.189696    2.541998   -0.695913
     98          1           0       -0.090635   -0.444928    0.027468
 ---------------------------------------------------------------------

 SCF Done:  E(RCAM-B3LYP) =  -1706.94493958     A.U. after   15 cycles

 Excitation energies and oscillator strengths:

 Excited State   1:      Singlet-A      2.3113 eV  536.43 nm  f=2.9030  <S**2>=0.000
     155 ->158        -0.14568
     156 ->157         0.69080
 This state for optimization and/or second-order correction.
 Total Energy, E(TD-HF/TD-DFT) =  -1706.86000130
 Copying the excited state density for this state as the 1-particle RhoCI density.

 The electronic state is 1-A.
 Alpha  occ. eigenvalues --  -19.21672 -19.21114 -10.29639 -10.29501 -10.28172
 Alpha  occ. eigenvalues --  -10.27722 -10.27586 -10.27491 -10.27440 -10.27150
 Alpha  occ. eigenvalues --  -10.27000 -10.26810 -10.26768 -10.26744 -10.26653
 Alpha  occ. eigenvalues --  -10.26639 -10.26639 -10.26638 -10.26589 -10.26523
 Alpha  occ. eigenvalues --  -10.26519 -10.26516 -10.26362 -10.26077 -10.25996
 Alpha  occ. eigenvalues --  -10.25906 -10.25891 -10.25855 -10.25854 -10.25764
 Alpha  occ. eigenvalues --  -10.25279 -10.25274 -10.25066 -10.25020 -10.24882
 Alpha  occ. eigenvalues --  -10.24790 -10.24511 -10.24481 -10.23852 -10.23417
 Alpha  occ. eigenvalues --  -10.22777 -10.22449  -1.14345  -1.08319  -0.94177
 Alpha  occ. eigenvalues --   -0.93039  -0.92272  -0.91742  -0.90662  -0.90186
 Alpha  occ. eigenvalues --   -0.87742  -0.87113  -0.86260  -0.85931  -0.84902
 Alpha  occ. eigenvalues --   -0.83292  -0.82080  -0.79939  -0.79698  -0.78550
 Alpha  occ. eigenvalues --   -0.76978  -0.76659  -0.76272  -0.76197  -0.75889
 Alpha  occ. eigenvalues --   -0.75575  -0.75104  -0.73592  -0.72469  -0.70421
 Alpha  occ. eigenvalues --   -0.68932  -0.67871  -0.66946  -0.65402  -0.64441
 Alpha  occ. eigenvalues --   -0.63487  -0.62659  -0.62430  -0.60517  -0.59837
 Alpha  occ. eigenvalues --   -0.59464  -0.58773  -0.57992  -0.57312  -0.56583
 Alpha  occ. eigenvalues --   -0.55879  -0.55444  -0.55013  -0.54131  -0.53741
 Alpha  occ. eigenvalues --   -0.53701  -0.53587  -0.52449  -0.52368  -0.51462
 Alpha  occ. eigenvalues --   -0.51102  -0.50582  -0.50541  -0.50011  -0.49954
 Alpha  occ. eigenvalues --   -0.49289  -0.49114  -0.48727  -0.48473  -0.47942
 Alpha  occ. eigenvalues --   -0.47802  -0.47563  -0.47478  -0.46631  -0.46122
 Alpha  occ. eigenvalues --   -0.46040  -0.45941  -0.45698  -0.45552  -0.45317
 Alpha  occ. eigenvalues --   -0.45152  -0.44677  -0.43586  -0.43540  -0.43190
 Alpha  occ. eigenvalues --   -0.43071  -0.42627  -0.42430  -0.42327  -0.42198
 Alpha  occ. eigenvalues --   -0.41822  -0.41553  -0.41057  -0.40842  -0.40533
 Alpha  occ. eigenvalues --   -0.40116  -0.40082  -0.39834  -0.39716  -0.39417
 Alpha  occ. eigenvalues --   -0.39156  -0.38810  -0.38385  -0.38253  -0.37551
 Alpha  occ. eigenvalues --   -0.37161  -0.37030  -0.36518  -0.35952  -0.35573
 Alpha  occ. eigenvalues --   -0.35380  -0.34514  -0.33224  -0.32479  -0.32287
 Alpha  occ. eigenvalues --   -0.31714  -0.29467  -0.28987  -0.26513  -0.23497
 Alpha  occ. eigenvalues --   -0.19789
 Alpha virt. eigenvalues --   -0.05361  -0.00715   0.02549   0.05893   0.07156
 Alpha virt. eigenvalues --    0.09423   0.10768   0.11755   0.11847   0.12457
 Alpha virt. eigenvalues --    0.12695   0.12947   0.13146   0.13818   0.14150

 Mulliken charges:
               1
     1  O   -0.492470
     2  O   -0.564357
     3  C    0.024540
     4  C   -0.122632
     5  C   -0.182969
     6  C    0.128755
     7  C    0.105606
     8  C   -0.032574
     9  C   -0.287672
    10  C   -0.288539
    11  C   -0.222882
    12  C   -0.125822
    13  C    0.174352
    14  C    0.074735
    15  C   -0.122559
    16  C   -0.222333
    17  C    0.077038
    18  C   -0.280450
    19  C   -0.286437
    20  C   -0.326627
    21  C   -0.076989
    22  C   -0.122233
    23  C   -0.370549
    24  C    0.084183
    25  C   -0.122374
    26  C   -0.367660
    27  C    0.066848
    28  C   -0.126185
    29  C   -0.336414
    30  C   -0.116976
    31  C   -0.045567
    32  C   -0.113929
    33  C   -0.138395
    34  C    0.098534
    35  C   -0.091770
    36  C    0.085424
    37  C   -0.388979
    38  C   -0.090766
    39  C   -0.117299
    40  C   -0.357560
    41  C   -0.121901
    42  C   -0.076439
    43  H    0.095359
    44  H    0.095750
    45  H    0.096088
    46  H    0.053223
    47  H    0.087033
    48  H    0.107876
    49  H    0.094945
    50  H    0.106793
    51  H    0.092449
    52  H    0.061075
    53  H    0.087871
    54  H    0.080154
    55  H    0.069886
    56  H    0.095474
    57  H    0.092193
    58  H    0.091927
    59  H    0.134043
    60  H    0.073726
    61  H    0.119865
    62  H    0.115371
    63  H    0.109499
    64  H    0.094127
    65  H    0.096200
    66  H    0.120125
    67  H    0.101664
    68  H    0.100353
    69  H    0.305171
    70  H    0.072581
    71  H    0.081761
    72  H    0.108748
    73  H    0.124560
    74  H    0.070893
    75  H    0.302175
    76  H    0.081399
    77  H    0.091576
    78  H    0.123613
    79  H    0.124652
    80  H    0.064402
    81  H    0.113398
    82  H    0.121066
    83  H    0.115025
    84  H    0.074747
    85  H    0.083956
    86  H    0.087483
    87  H    0.081009
    88  H    0.079761
    89  H    0.125826
    90  H    0.137570
    91  H    0.107578
    92  H    0.064543
    93  H    0.085506
    94  H    0.136935
    95  H    0.082499
    96  H    0.130786
    97  H    0.084976
    98  H    0.083030
 Sum of Mulliken charges =  -0.00000

 Dipole moment (field-independent basis, Debye):
    X=             -1.1155    Y=             -0.7836    Z=             -0.0972  Tot=              1.3667
 Quadrupole moment (field-independent basis, Debye-Ang):
   XX=           -278.3572   YY=           -241.5778   ZZ=           -262.3478
   XY=             18.0646   XZ=             37.0161   YZ=              2.0553

 Normal termination of Gaussian 16 at Tue Jul 16 08:34:53 2019.
