 Gaussian 16, Revision A.03,
 Gaussian 16:  ES64L-G16RevA.03 25-Dec-2016

 -------------------------------------
 # td=(NStates=1) CAM-B3LYP/6-31G(d,p)
 -------------------------------------

 --
 TD
 --
 Symbolic Z-matrix:
 Charge =  0 Multiplicity = 1

                         Standard orientation:
 ---------------------------------------------------------------------
 Center     Atomic      Atomic             Coordinates (Angstroms)
 Number     Number       Type             X           Y           Z
 ---------------------------------------------------------------------
      1          8           0      -14.129375   -2.076128    0.540581
      2          8           0       14.797677    1.010049    0.101480
      3          6           0      -11.716525   -0.051672    1.318763
      4          6           0      -10.954374    0.387999    0.057864
      5          6           0      -11.918188   -1.559033    1.323090
      6          6           0      -12.671939   -2.121630    0.179385
      7          6           0      -11.657522   -0.242576   -1.182869
      8          6           0       11.082446    1.030205    1.127737
      9          6           0      -10.974996    0.403953    2.552951
     10          6           0      -13.013546    0.783496    1.366940
     11          6           0       12.501362    1.526082    0.811230
     12          6           0      -12.416132   -1.267932   -1.032339
     13          6           0       13.458417    0.457274    0.261095
     14          6           0       10.646872   -0.044559    0.020826
     15          6           0       -9.548830   -0.003909    0.038796
     16          6           0       12.998586   -0.131569   -0.935405
     17          6           0       11.518362   -0.499333   -0.820731
     18          6           0       10.204764    2.315355    1.083659
     19          6           0       11.021457    0.471894    2.477859
     20          6           0      -11.439464    0.319902   -2.572998
     21          6           0       -8.470195    0.769931   -0.188902
     22          6           0        9.299147   -0.506985    0.123360
     23          6           0       11.182803   -1.471251   -1.967902
     24          6           0       -7.089645    0.468320   -0.205533
     25          6           0        8.845883   -1.721475   -0.088159
     26          6           0       -6.667254   -0.994727    0.041889
     27          6           0        7.437794   -2.192445   -0.085125
     28          6           0       -6.147132    1.500798   -0.330829
     29          6           0        7.160651   -3.667728    0.102818
     30          6           0        6.378035   -1.324578   -0.247108
     31          6           0       -4.794475    1.467921   -0.442420
     32          6           0        4.990704   -1.599883   -0.228466
     33          6           0       -3.975562    2.588631   -0.568133
     34          6           0       -2.586935    2.628905   -0.633792
     35          6           0        3.970053   -0.580654   -0.248194
     36          6           0        2.587164   -0.869257   -0.096569
     37          6           0       -1.958494    4.044851   -1.031812
     38          6           0       -1.756380    1.490902   -0.609991
     39          6           0        1.754084    0.219689   -0.337921
     40          6           0        2.135594   -2.333612    0.122622
     41          6           0       -0.414360    1.423055   -0.592228
     42          6           0        0.349622    0.298320   -0.343529
     43          1           0      -11.071004    1.447247   -0.284352
     44          1           0      -12.285678   -1.545385    2.386387
     45          1           0      -10.857392   -1.842017    1.412126
     46          1           0      -12.383643   -3.171888    0.139404
     47          1           0       -9.905423    0.070044    2.743013
     48          1           0      -10.743241    1.546410    2.528310
     49          1           0      -11.641379    0.171512    3.431551
     50          1           0      -13.523716    0.359127    0.588934
     51          1           0      -13.687180    0.628894    2.385355
     52          1           0      -12.719860    1.851326    1.297580
     53          1           0       12.256014    2.334949    0.035028
     54          1           0       12.988724    2.074674    1.666564
     55          1           0      -12.877749   -1.698203   -2.043266
     56          1           0       13.533285   -0.335693    1.016941
     57          1           0       -9.327029   -1.124369    0.165018
     58          1           0       13.694314   -1.174033   -1.177992
     59          1           0       13.161023    0.612530   -1.815191
     60          1           0        9.307687    2.085784    1.453066
     61          1           0       10.434114    2.657406    0.078495
     62          1           0       10.538993    2.923963    1.842630
     63          1           0       11.627262   -0.453364    2.553231
     64          1           0        9.981061    0.204914    2.911379
     65          1           0       11.238509    1.346685    3.150926
     66          1           0      -10.321950    0.699684   -2.489886
     67          1           0      -12.041581    1.273264   -2.575515
     68          1           0      -11.566885   -0.306862   -3.415167
     69          1           0      -14.696693   -2.473390   -0.137908
     70          1           0        8.646075    0.265693    0.677564
     71          1           0       -8.675171    2.017497   -0.087240
     72          1           0       11.369518   -2.555418   -1.522677
     73          1           0        9.993736   -1.323948   -2.158687
     74          1           0       11.884303   -1.415187   -3.004999
     75          1           0       15.175700    1.145135    1.107297
     76          1           0        9.336589   -2.727967   -0.687333
     77          1           0       -5.545263   -1.179680    0.132305
     78          1           0       -7.096354   -1.302547    0.935239
     79          1           0       -7.241291   -1.565811   -0.822997
     80          1           0       -6.496831    2.476165   -0.647246
     81          1           0        6.839807   -3.750830    1.093655
     82          1           0        6.318223   -3.942350   -0.544655
     83          1           0        7.970421   -4.454882   -0.374155
     84          1           0        6.667777   -0.388911   -0.220008
     85          1           0       -4.275083    0.322213   -0.452300
     86          1           0        4.461253   -2.687364    0.017552
     87          1           0       -4.611817    3.526652   -0.617195
     88          1           0        4.305010    0.307588   -0.455325
     89          1           0       -1.201546    4.027251   -1.912307
     90          1           0       -1.351658    4.353473   -0.197159
     91          1           0       -2.879266    4.789057   -1.203014
     92          1           0       -2.216851    0.668354   -0.325999
     93          1           0        2.170976    1.238888   -0.573449
     94          1           0        2.375721   -2.503440    1.226389
     95          1           0        1.018349   -2.316304    0.036068
     96          1           0        2.679948   -2.972655   -0.686634
     97          1           0       -0.061076    2.364736   -0.732581
     98          1           0       -0.129295   -0.526031   -0.302823
 ---------------------------------------------------------------------

 SCF Done:  E(RCAM-B3LYP) =  -1706.91677426     A.U. after   15 cycles

 Excitation energies and oscillator strengths:

 Excited State   1:      Singlet-A      1.9601 eV  632.55 nm  f=3.1612  <S**2>=0.000
     155 ->158         0.13431
     156 ->157         0.69920
     156 <-157        -0.10819
 This state for optimization and/or second-order correction.
 Total Energy, E(TD-HF/TD-DFT) =  -1706.84474334
 Copying the excited state density for this state as the 1-particle RhoCI density.

 The electronic state is 1-A.
 Alpha  occ. eigenvalues --  -19.21458 -19.20572 -10.31517 -10.29626 -10.28182
 Alpha  occ. eigenvalues --  -10.27990 -10.27904 -10.27881 -10.27786 -10.27620
 Alpha  occ. eigenvalues --  -10.27594 -10.27568 -10.27502 -10.27376 -10.27196
 Alpha  occ. eigenvalues --  -10.27060 -10.27009 -10.27002 -10.26980 -10.26879
 Alpha  occ. eigenvalues --  -10.26816 -10.26529 -10.26525 -10.26502 -10.26493
 Alpha  occ. eigenvalues --  -10.26326 -10.26212 -10.25999 -10.25935 -10.25509
 Alpha  occ. eigenvalues --  -10.25476 -10.25357 -10.25221 -10.25159 -10.25051
 Alpha  occ. eigenvalues --  -10.25017 -10.24990 -10.24975 -10.24553 -10.24286
 Alpha  occ. eigenvalues --  -10.23645 -10.23279  -1.06743  -1.06431  -0.94915
 Alpha  occ. eigenvalues --   -0.94366  -0.92474  -0.91531  -0.90838  -0.89929
 Alpha  occ. eigenvalues --   -0.88154  -0.87751  -0.87492  -0.86087  -0.85306
 Alpha  occ. eigenvalues --   -0.83536  -0.82038  -0.80838  -0.79970  -0.78786
 Alpha  occ. eigenvalues --   -0.77320  -0.76467  -0.76363  -0.76156  -0.75959
 Alpha  occ. eigenvalues --   -0.75343  -0.74536  -0.74142  -0.72935  -0.70854
 Alpha  occ. eigenvalues --   -0.69322  -0.68465  -0.66419  -0.64789  -0.64018
 Alpha  occ. eigenvalues --   -0.62926  -0.62390  -0.61833  -0.60598  -0.59452
 Alpha  occ. eigenvalues --   -0.58812  -0.58388  -0.57697  -0.57350  -0.56699
 Alpha  occ. eigenvalues --   -0.55939  -0.55018  -0.54892  -0.54515  -0.53903
 Alpha  occ. eigenvalues --   -0.53824  -0.53496  -0.52783  -0.52154  -0.51392
 Alpha  occ. eigenvalues --   -0.50457  -0.50251  -0.50045  -0.49885  -0.49425
 Alpha  occ. eigenvalues --   -0.49158  -0.48669  -0.48506  -0.48310  -0.48024
 Alpha  occ. eigenvalues --   -0.47806  -0.47234  -0.46919  -0.46580  -0.46529
 Alpha  occ. eigenvalues --   -0.46145  -0.45959  -0.45531  -0.44612  -0.44170
 Alpha  occ. eigenvalues --   -0.44114  -0.43766  -0.43405  -0.43305  -0.43166
 Alpha  occ. eigenvalues --   -0.42776  -0.42738  -0.42625  -0.41895  -0.41492
 Alpha  occ. eigenvalues --   -0.41169  -0.41026  -0.40844  -0.40642  -0.40471
 Alpha  occ. eigenvalues --   -0.40324  -0.39799  -0.39655  -0.39476  -0.39242
 Alpha  occ. eigenvalues --   -0.39146  -0.38514  -0.38373  -0.38134  -0.37782
 Alpha  occ. eigenvalues --   -0.37437  -0.36983  -0.36446  -0.36188  -0.35880
 Alpha  occ. eigenvalues --   -0.35264  -0.34586  -0.34261  -0.33027  -0.32546
 Alpha  occ. eigenvalues --   -0.31552  -0.30461  -0.29622  -0.27441  -0.23792
 Alpha  occ. eigenvalues --   -0.18865
 Alpha virt. eigenvalues --   -0.06708  -0.01182   0.02741   0.05801   0.07488
 Alpha virt. eigenvalues --    0.09583   0.09885   0.10844   0.11138   0.11777
 Alpha virt. eigenvalues --    0.12329   0.12597   0.12797   0.13165   0.13767

 Mulliken charges:
               1
     1  O   -0.568120
     2  O   -0.576403
     3  C   -0.022149
     4  C   -0.128388
     5  C   -0.162556
     6  C    0.132422
     7  C    0.112872
     8  C   -0.050065
     9  C   -0.299419
    10  C   -0.265609
    11  C   -0.173787
    12  C   -0.125931
    13  C    0.182903
    14  C    0.115839
    15  C   -0.074053
    16  C   -0.204129
    17  C    0.032496
    18  C   -0.291344
    19  C   -0.285294
    20  C   -0.352109
    21  C   -0.096424
    22  C   -0.138492
    23  C   -0.350269
    24  C    0.103353
    25  C   -0.077894
    26  C   -0.364961
    27  C    0.040427
    28  C   -0.134156
    29  C   -0.366109
    30  C   -0.080097
    31  C   -0.042016
    32  C   -0.115117
    33  C   -0.142027
    34  C    0.075301
    35  C   -0.069852
    36  C    0.079722
    37  C   -0.373054
    38  C   -0.082484
    39  C   -0.117425
    40  C   -0.366139
    41  C   -0.052659
    42  C   -0.068948
    43  H    0.089881
    44  H    0.111750
    45  H    0.098222
    46  H    0.102180
    47  H    0.089945
    48  H    0.088035
    49  H    0.097154
    50  H    0.124688
    51  H    0.071120
    52  H    0.091814
    53  H    0.084439
    54  H    0.076001
    55  H    0.049935
    56  H    0.080061
    57  H    0.083565
    58  H    0.079842
    59  H    0.116802
    60  H    0.100836
    61  H    0.113119
    62  H    0.105472
    63  H    0.104073
    64  H    0.088007
    65  H    0.090869
    66  H    0.103736
    67  H    0.118712
    68  H    0.124679
    69  H    0.303881
    70  H    0.090740
    71  H    0.060425
    72  H    0.104406
    73  H    0.108805
    74  H    0.088976
    75  H    0.303332
    76  H    0.082095
    77  H    0.108736
    78  H    0.135667
    79  H    0.110464
    80  H    0.080750
    81  H    0.142322
    82  H    0.122590
    83  H    0.085949
    84  H    0.067363
    85  H    0.065469
    86  H    0.068140
    87  H    0.084627
    88  H    0.069707
    89  H    0.119233
    90  H    0.131129
    91  H    0.099215
    92  H    0.057651
    93  H    0.078564
    94  H    0.132568
    95  H    0.112447
    96  H    0.130397
    97  H    0.057536
    98  H    0.054019
 Sum of Mulliken charges =  -0.00000

 Dipole moment (field-independent basis, Debye):
    X=             -0.2841    Y=             -1.0862    Z=              0.3889  Tot=              1.1882
 Quadrupole moment (field-independent basis, Debye-Ang):
   XX=           -291.8984   YY=           -246.0202   ZZ=           -262.4162
   XY=              4.0197   XZ=             43.7122   YZ=              4.3720

 Normal termination of Gaussian 16 at Tue Jul 16 15:18:07 2019.
