 Gaussian 16, Revision A.03,
 Gaussian 16:  ES64L-G16RevA.03 25-Dec-2016

 -------------------------------------
 # td=(NStates=1) CAM-B3LYP/6-31G(d,p)
 -------------------------------------

 --
 TD
 --
 Symbolic Z-matrix:
 Charge =  0 Multiplicity = 1

                         Standard orientation:
 ---------------------------------------------------------------------
 Center     Atomic      Atomic             Coordinates (Angstroms)
 Number     Number       Type             X           Y           Z
 ---------------------------------------------------------------------
      1          8           0      -14.218416   -1.799561    0.769362
      2          8           0       14.932858    0.856382    0.343476
      3          6           0      -11.769009    0.227441    1.264043
      4          6           0      -11.021054    0.309417   -0.089827
      5          6           0      -12.010349   -1.267341    1.594281
      6          6           0      -12.864748   -2.091769    0.599847
      7          6           0      -11.677308   -0.631049   -1.228221
      8          6           0       11.128361    1.012828    1.167267
      9          6           0      -10.985798    0.963035    2.416125
     10          6           0      -13.162349    1.005055    1.142714
     11          6           0       12.576737    1.425210    0.889506
     12          6           0      -12.367947   -1.736546   -0.800686
     13          6           0       13.578140    0.308074    0.476417
     14          6           0       10.757709    0.087738   -0.011985
     15          6           0       -9.602777   -0.061591    0.033790
     16          6           0       13.102723   -0.202903   -0.894336
     17          6           0       11.696246   -0.422581   -0.884173
     18          6           0       10.269405    2.283207    1.059947
     19          6           0       10.990272    0.274019    2.443613
     20          6           0      -11.427716   -0.317364   -2.629838
     21          6           0       -8.600773    0.853174   -0.280379
     22          6           0        9.287678   -0.333572   -0.059311
     23          6           0       11.350207   -1.268050   -2.197712
     24          6           0       -7.176647    0.587062   -0.186525
     25          6           0        8.882904   -1.596731   -0.091740
     26          6           0       -6.749036   -0.876726    0.278264
     27          6           0        7.480377   -2.035378   -0.112620
     28          6           0       -6.277237    1.469227   -0.560638
     29          6           0        7.255236   -3.513801    0.093058
     30          6           0        6.405011   -1.145625   -0.144429
     31          6           0       -4.897480    1.376346   -0.544465
     32          6           0        5.032682   -1.511248   -0.033685
     33          6           0       -4.064174    2.409711   -0.747712
     34          6           0       -2.555888    2.445634   -0.837744
     35          6           0        4.003789   -0.628217   -0.148097
     36          6           0        2.721979   -0.841512   -0.136852
     37          6           0       -1.891950    3.803322   -1.200316
     38          6           0       -1.834048    1.313600   -0.537063
     39          6           0        1.698051    0.252955   -0.344814
     40          6           0        2.190727   -2.167632    0.118397
     41          6           0       -0.441859    1.290883   -0.668711
     42          6           0        0.343005    0.160560   -0.415181
     43          1           0      -11.124654    1.270060   -0.496257
     44          1           0      -12.644492   -1.404976    2.475056
     45          1           0      -11.122682   -1.826732    1.801049
     46          1           0      -12.577111   -3.175749    0.947713
     47          1           0      -10.314936    0.320626    2.455419
     48          1           0      -10.531595    1.926556    1.893156
     49          1           0      -11.677029    1.128840    3.207118
     50          1           0      -13.634933    0.693594    0.250166
     51          1           0      -13.769086    0.813406    1.856319
     52          1           0      -12.947192    2.078031    1.075687
     53          1           0       12.533922    2.308418    0.252000
     54          1           0       12.958486    1.998652    1.768448
     55          1           0      -12.856950   -2.284311   -1.559306
     56          1           0       13.487085   -0.648343    1.144612
     57          1           0       -9.316121   -1.086436    0.375272
     58          1           0       13.803601   -1.098846   -1.215453
     59          1           0       13.471278    0.684420   -1.691141
     60          1           0        9.124809    1.994834    1.255755
     61          1           0       10.469001    2.946262    0.191459
     62          1           0       10.632177    3.051586    2.136488
     63          1           0       11.601720   -0.737958    2.506824
     64          1           0        9.925324   -0.079756    2.424901
     65          1           0       11.251042    0.809950    3.537628
     66          1           0      -10.498375   -0.168702   -2.797261
     67          1           0      -12.187493    0.563164   -2.963932
     68          1           0      -11.890788   -1.267335   -3.283717
     69          1           0      -14.777375   -1.772370    0.099667
     70          1           0        8.664920    0.643561   -0.040565
     71          1           0       -8.902079    1.833236   -0.676698
     72          1           0       11.730694   -2.480926   -2.133223
     73          1           0       10.319799   -1.217094   -2.422322
     74          1           0       11.874466   -0.994411   -3.114565
     75          1           0       15.276711    1.212897    1.145164
     76          1           0        9.624741   -2.451183   -0.162764
     77          1           0       -5.755772   -0.937199    0.653597
     78          1           0       -7.219372   -1.114657    1.129568
     79          1           0       -7.152231   -1.613323   -0.495530
     80          1           0       -6.573134    2.429128   -0.834397
     81          1           0        6.567439   -3.631932    1.084216
     82          1           0        6.657745   -3.744513   -0.877280
     83          1           0        8.313010   -4.030236    0.308861
     84          1           0        6.623371   -0.033679   -0.253468
     85          1           0       -4.454017    0.466709   -0.138902
     86          1           0        4.831474   -2.547278    0.069127
     87          1           0       -4.440011    3.453775   -1.046149
     88          1           0        4.267809    0.594731   -0.161219
     89          1           0       -1.338346    3.859062   -2.065270
     90          1           0       -1.313407    4.096669   -0.308704
     91          1           0       -2.623965    4.684309   -1.308815
     92          1           0       -2.414172    0.482323   -0.277783
     93          1           0        1.953065    1.094426   -0.706140
     94          1           0        2.826835   -3.087129    0.777594
     95          1           0        1.138088   -2.339199    0.294742
     96          1           0        2.173482   -2.849114   -0.821722
     97          1           0        0.079769    2.307497   -0.607826
     98          1           0       -0.078614   -0.831054   -0.301148
 ---------------------------------------------------------------------

 SCF Done:  E(RCAM-B3LYP) =  -1706.89465044     A.U. after   15 cycles

 Excitation energies and oscillator strengths:

 Excited State   1:      Singlet-A      1.9815 eV  625.72 nm  f=3.0410  <S**2>=0.000
     155 ->158         0.12095
     156 ->157         0.70260
     156 <-157        -0.12257
 This state for optimization and/or second-order correction.
 Total Energy, E(TD-HF/TD-DFT) =  -1706.82183340
 Copying the excited state density for this state as the 1-particle RhoCI density.

 The electronic state is 1-A.
 Alpha  occ. eigenvalues --  -19.20848 -19.20649 -10.31766 -10.31575 -10.28704
 Alpha  occ. eigenvalues --  -10.28189 -10.28161 -10.27708 -10.27539 -10.27536
 Alpha  occ. eigenvalues --  -10.27288 -10.27247 -10.27205 -10.27066 -10.27049
 Alpha  occ. eigenvalues --  -10.26995 -10.26990 -10.26928 -10.26729 -10.26709
 Alpha  occ. eigenvalues --  -10.26702 -10.26653 -10.26632 -10.26573 -10.26562
 Alpha  occ. eigenvalues --  -10.26267 -10.26149 -10.26125 -10.26099 -10.26039
 Alpha  occ. eigenvalues --  -10.26037 -10.25835 -10.25727 -10.25448 -10.25232
 Alpha  occ. eigenvalues --  -10.25153 -10.24788 -10.24782 -10.24520 -10.23980
 Alpha  occ. eigenvalues --  -10.22877 -10.21484  -1.11658  -1.07948  -0.93765
 Alpha  occ. eigenvalues --   -0.93043  -0.92672  -0.91833  -0.90614  -0.89766
 Alpha  occ. eigenvalues --   -0.87520  -0.87020  -0.86689  -0.85723  -0.84514
 Alpha  occ. eigenvalues --   -0.83346  -0.81718  -0.80904  -0.79385  -0.78786
 Alpha  occ. eigenvalues --   -0.77557  -0.76622  -0.75896  -0.75718  -0.75415
 Alpha  occ. eigenvalues --   -0.75260  -0.74790  -0.74040  -0.72697  -0.70408
 Alpha  occ. eigenvalues --   -0.69272  -0.68290  -0.66973  -0.64406  -0.63657
 Alpha  occ. eigenvalues --   -0.63169  -0.62563  -0.62329  -0.60804  -0.60410
 Alpha  occ. eigenvalues --   -0.59806  -0.59241  -0.58183  -0.57653  -0.56706
 Alpha  occ. eigenvalues --   -0.55678  -0.54758  -0.54306  -0.54099  -0.53674
 Alpha  occ. eigenvalues --   -0.53310  -0.52875  -0.52369  -0.52213  -0.50906
 Alpha  occ. eigenvalues --   -0.50668  -0.50438  -0.50109  -0.49868  -0.49762
 Alpha  occ. eigenvalues --   -0.48951  -0.48849  -0.48476  -0.48072  -0.47799
 Alpha  occ. eigenvalues --   -0.47456  -0.46952  -0.46705  -0.46113  -0.45995
 Alpha  occ. eigenvalues --   -0.45794  -0.45520  -0.45327  -0.44778  -0.44464
 Alpha  occ. eigenvalues --   -0.44323  -0.44298  -0.43517  -0.43433  -0.43427
 Alpha  occ. eigenvalues --   -0.43019  -0.42783  -0.42564  -0.42507  -0.42056
 Alpha  occ. eigenvalues --   -0.41776  -0.40796  -0.40692  -0.40557  -0.40367
 Alpha  occ. eigenvalues --   -0.40189  -0.40038  -0.39799  -0.39282  -0.39196
 Alpha  occ. eigenvalues --   -0.39182  -0.39101  -0.38628  -0.38458  -0.38033
 Alpha  occ. eigenvalues --   -0.37760  -0.37004  -0.36201  -0.35761  -0.35567
 Alpha  occ. eigenvalues --   -0.34904  -0.34019  -0.33628  -0.32448  -0.31931
 Alpha  occ. eigenvalues --   -0.31280  -0.29456  -0.28936  -0.26880  -0.24310
 Alpha  occ. eigenvalues --   -0.18682
 Alpha virt. eigenvalues --   -0.06700  -0.00591   0.02505   0.05360   0.06558
 Alpha virt. eigenvalues --    0.08081   0.10696   0.11269   0.11631   0.12541
 Alpha virt. eigenvalues --    0.12795   0.12973   0.13469   0.13632   0.14111

 Mulliken charges:
               1
     1  O   -0.523563
     2  O   -0.572390
     3  C   -0.004653
     4  C   -0.125863
     5  C   -0.194426
     6  C    0.169537
     7  C    0.105312
     8  C    0.013502
     9  C   -0.266423
    10  C   -0.288612
    11  C   -0.192958
    12  C   -0.153657
    13  C    0.170663
    14  C    0.017842
    15  C   -0.084908
    16  C   -0.217262
    17  C    0.082561
    18  C   -0.285346
    19  C   -0.278755
    20  C   -0.336294
    21  C   -0.106734
    22  C   -0.125162
    23  C   -0.346841
    24  C    0.092757
    25  C   -0.089108
    26  C   -0.372487
    27  C    0.064833
    28  C   -0.104951
    29  C   -0.358710
    30  C   -0.093055
    31  C   -0.056575
    32  C   -0.093712
    33  C   -0.130542
    34  C    0.069577
    35  C   -0.119211
    36  C    0.166325
    37  C   -0.383667
    38  C   -0.085351
    39  C   -0.112913
    40  C   -0.400280
    41  C   -0.119906
    42  C   -0.057122
    43  H    0.087613
    44  H    0.102214
    45  H    0.090489
    46  H    0.068957
    47  H    0.108594
    48  H    0.080309
    49  H    0.108403
    50  H    0.089836
    51  H    0.111905
    52  H    0.080380
    53  H    0.099799
    54  H    0.068748
    55  H    0.058707
    56  H    0.080040
    57  H    0.094315
    58  H    0.102608
    59  H    0.099654
    60  H    0.097085
    61  H    0.125169
    62  H    0.042321
    63  H    0.093695
    64  H    0.106988
    65  H    0.080056
    66  H    0.134958
    67  H    0.103976
    68  H    0.088131
    69  H    0.291194
    70  H    0.098237
    71  H    0.082528
    72  H    0.068560
    73  H    0.121319
    74  H    0.117198
    75  H    0.304867
    76  H    0.096341
    77  H    0.109142
    78  H    0.128925
    79  H    0.120018
    80  H    0.071981
    81  H    0.112610
    82  H    0.129087
    83  H    0.101074
    84  H    0.074211
    85  H    0.078372
    86  H    0.083405
    87  H    0.070174
    88  H    0.063654
    89  H    0.139626
    90  H    0.130124
    91  H    0.100446
    92  H    0.081046
    93  H    0.065482
    94  H    0.081313
    95  H    0.120992
    96  H    0.112389
    97  H    0.091958
    98  H    0.077302
 Sum of Mulliken charges =  -0.00000

 Dipole moment (field-independent basis, Debye):
    X=             -1.3771    Y=             -0.0764    Z=             -0.4761  Tot=              1.4591
 Quadrupole moment (field-independent basis, Debye-Ang):
   XX=           -271.1108   YY=           -245.4907   ZZ=           -263.6354
   XY=              0.3025   XZ=             33.5624   YZ=             -1.1251

 Normal termination of Gaussian 16 at Sun Jul 14 22:30:28 2019.
