 Gaussian 16, Revision A.03,
 Gaussian 16:  ES64L-G16RevA.03 25-Dec-2016

 -------------------------------------
 # td=(NStates=1) CAM-B3LYP/6-31G(d,p)
 -------------------------------------

 --
 TD
 --
 Symbolic Z-matrix:
 Charge =  0 Multiplicity = 1

                         Standard orientation:
 ---------------------------------------------------------------------
 Center     Atomic      Atomic             Coordinates (Angstroms)
 Number     Number       Type             X           Y           Z
 ---------------------------------------------------------------------
      1          8           0      -14.124636   -2.058063    0.379089
      2          8           0       14.811628    0.824783   -0.045515
      3          6           0      -11.821700    0.016336    1.242163
      4          6           0      -10.989859    0.203786   -0.015383
      5          6           0      -12.123006   -1.457562    1.494928
      6          6           0      -12.743056   -2.116314    0.203429
      7          6           0      -11.517937   -0.445277   -1.219437
      8          6           0       11.172350    0.916232    1.063862
      9          6           0      -11.059108    0.549575    2.463342
     10          6           0      -13.118556    0.826973    1.221795
     11          6           0       12.621709    1.480942    0.788876
     12          6           0      -12.225811   -1.555568   -1.123759
     13          6           0       13.488840    0.370239    0.285669
     14          6           0       10.629361   -0.012193   -0.031950
     15          6           0       -9.496446   -0.112557    0.029559
     16          6           0       12.910343   -0.237235   -0.987816
     17          6           0       11.474603   -0.578161   -0.981009
     18          6           0       10.284190    2.200970    1.114415
     19          6           0       10.987941    0.271523    2.455938
     20          6           0      -11.132340    0.038113   -2.627567
     21          6           0       -8.568924    0.828560   -0.253320
     22          6           0        9.288442   -0.339302    0.041545
     23          6           0       11.012834   -1.510548   -2.084635
     24          6           0       -7.100198    0.538043   -0.123260
     25          6           0        8.805521   -1.676181   -0.041618
     26          6           0       -6.663377   -0.849561    0.309212
     27          6           0        7.424456   -2.119554    0.034709
     28          6           0       -6.180655    1.548107   -0.336180
     29          6           0        7.087781   -3.587443    0.332525
     30          6           0        6.379587   -1.252229   -0.112742
     31          6           0       -4.889194    1.489713   -0.335773
     32          6           0        5.021755   -1.515711   -0.161664
     33          6           0       -4.022740    2.668586   -0.540382
     34          6           0       -2.640694    2.705538   -0.681714
     35          6           0        4.043088   -0.581699   -0.345810
     36          6           0        2.684728   -0.793053   -0.233984
     37          6           0       -1.932755    4.034329   -0.862170
     38          6           0       -1.784554    1.539051   -0.589552
     39          6           0        1.837404    0.334214   -0.371008
     40          6           0        2.154096   -2.069271    0.136898
     41          6           0       -0.304148    1.514610   -0.515848
     42          6           0        0.419062    0.325938   -0.309043
     43          1           0      -10.934815    1.167712   -0.139238
     44          1           0      -12.830884   -1.505581    2.322026
     45          1           0      -11.144992   -1.987197    1.899048
     46          1           0      -12.367846   -3.165543    0.286296
     47          1           0      -10.195446    0.068944    2.557129
     48          1           0      -10.927027    1.635917    2.397796
     49          1           0      -11.793596    0.526847    3.340929
     50          1           0      -13.703693    0.300344    0.363599
     51          1           0      -13.788276    0.557574    2.058304
     52          1           0      -12.989087    1.798446    1.050006
     53          1           0       12.608221    2.269467    0.067713
     54          1           0       12.886189    1.967147    1.785843
     55          1           0      -12.629039   -2.138967   -2.150696
     56          1           0       13.462481   -0.383466    0.994822
     57          1           0       -9.172459   -1.211347    0.124489
     58          1           0       13.586095   -1.179544   -1.072429
     59          1           0       13.171092    0.436767   -1.757674
     60          1           0        9.296358    1.962962    1.598492
     61          1           0       10.130065    2.302021    0.082499
     62          1           0       10.681080    3.053566    1.622074
     63          1           0       11.810740   -0.323807    2.602530
     64          1           0        9.991535   -0.417959    2.536517
     65          1           0       11.119491    1.126583    3.261483
     66          1           0      -10.083158    0.037717   -2.641893
     67          1           0      -11.195471    1.025894   -2.731607
     68          1           0      -11.653623   -0.475157   -3.350122
     69          1           0      -14.513817   -2.166913   -0.502217
     70          1           0        8.693430    0.303139    0.313288
     71          1           0       -8.938965    1.865334   -0.563243
     72          1           0       11.260141   -2.377556   -1.698570
     73          1           0       10.050601   -1.402338   -2.157372
     74          1           0       11.458223   -1.189413   -3.060413
     75          1           0       15.194445    1.215768    0.886234
     76          1           0        9.556514   -2.474261    0.151218
     77          1           0       -5.735134   -1.064833    0.140993
     78          1           0       -7.041908   -0.979249    1.391501
     79          1           0       -7.232214   -1.385371   -0.248849
     80          1           0       -6.719813    2.581035   -0.302906
     81          1           0        6.475691   -3.667932    1.202134
     82          1           0        6.407258   -3.796327   -0.539614
     83          1           0        8.057172   -4.057982    0.445682
     84          1           0        6.588758   -0.140656   -0.295205
     85          1           0       -4.378879    0.599813   -0.128497
     86          1           0        4.725892   -2.428748    0.070430
     87          1           0       -4.467273    3.745058   -0.725361
     88          1           0        4.325784    0.437903   -0.639241
     89          1           0       -1.357305    3.826716   -1.737865
     90          1           0       -1.217590    4.317574   -0.067426
     91          1           0       -2.627125    4.849409   -0.883826
     92          1           0       -2.287298    0.492972   -0.519283
     93          1           0        2.326381    1.296467   -0.302766
     94          1           0        2.186139   -2.218228    1.225529
     95          1           0        1.124799   -2.172107    0.011189
     96          1           0        2.771651   -2.865013   -0.353557
     97          1           0        0.251985    2.436362   -0.718445
     98          1           0       -0.245597   -0.715478   -0.169513
 ---------------------------------------------------------------------

 SCF Done:  E(RCAM-B3LYP) =  -1706.97397977     A.U. after   16 cycles

 Excitation energies and oscillator strengths:

 Excited State   1:      Singlet-A      1.7660 eV  702.07 nm  f=3.0742  <S**2>=0.000
     155 ->158         0.14590
     156 ->157         0.69897
     156 <-157        -0.11990
 This state for optimization and/or second-order correction.
 Total Energy, E(TD-HF/TD-DFT) =  -1706.90908152
 Copying the excited state density for this state as the 1-particle RhoCI density.

 The electronic state is 1-A.
 Alpha  occ. eigenvalues --  -19.22065 -19.21533 -10.30692 -10.29272 -10.28281
 Alpha  occ. eigenvalues --  -10.27919 -10.27662 -10.27576 -10.27535 -10.27510
 Alpha  occ. eigenvalues --  -10.27467 -10.27187 -10.27111 -10.26927 -10.26842
 Alpha  occ. eigenvalues --  -10.26720 -10.26621 -10.26574 -10.26337 -10.26133
 Alpha  occ. eigenvalues --  -10.26127 -10.25669 -10.25655 -10.25556 -10.25522
 Alpha  occ. eigenvalues --  -10.25514 -10.25255 -10.25195 -10.25150 -10.25089
 Alpha  occ. eigenvalues --  -10.25039 -10.25015 -10.24991 -10.24812 -10.24584
 Alpha  occ. eigenvalues --  -10.24383 -10.23904 -10.23699 -10.23336 -10.22872
 Alpha  occ. eigenvalues --  -10.22849 -10.22604  -1.10482  -1.07452  -0.94524
 Alpha  occ. eigenvalues --   -0.93875  -0.92783  -0.91914  -0.90373  -0.89641
 Alpha  occ. eigenvalues --   -0.87548  -0.87351  -0.86873  -0.86099  -0.85248
 Alpha  occ. eigenvalues --   -0.83219  -0.82708  -0.80795  -0.80711  -0.78194
 Alpha  occ. eigenvalues --   -0.78055  -0.77056  -0.76945  -0.76425  -0.75839
 Alpha  occ. eigenvalues --   -0.75584  -0.75288  -0.75104  -0.72440  -0.71020
 Alpha  occ. eigenvalues --   -0.69704  -0.68207  -0.66657  -0.65584  -0.63403
 Alpha  occ. eigenvalues --   -0.63244  -0.62481  -0.61800  -0.60980  -0.59865
 Alpha  occ. eigenvalues --   -0.59632  -0.59220  -0.58547  -0.57710  -0.56456
 Alpha  occ. eigenvalues --   -0.55868  -0.55418  -0.54590  -0.54018  -0.53744
 Alpha  occ. eigenvalues --   -0.53407  -0.53061  -0.52989  -0.52581  -0.51559
 Alpha  occ. eigenvalues --   -0.51159  -0.50466  -0.50265  -0.49967  -0.49600
 Alpha  occ. eigenvalues --   -0.49463  -0.49256  -0.48842  -0.48659  -0.48510
 Alpha  occ. eigenvalues --   -0.48269  -0.47815  -0.47616  -0.47487  -0.47127
 Alpha  occ. eigenvalues --   -0.46498  -0.46467  -0.46015  -0.45800  -0.45615
 Alpha  occ. eigenvalues --   -0.44908  -0.44791  -0.44403  -0.44303  -0.44097
 Alpha  occ. eigenvalues --   -0.43536  -0.43366  -0.43174  -0.43047  -0.42683
 Alpha  occ. eigenvalues --   -0.42405  -0.41961  -0.41712  -0.41333  -0.40884
 Alpha  occ. eigenvalues --   -0.40730  -0.40608  -0.40321  -0.39901  -0.39555
 Alpha  occ. eigenvalues --   -0.39330  -0.39044  -0.38409  -0.38217  -0.37903
 Alpha  occ. eigenvalues --   -0.37592  -0.37346  -0.36798  -0.36377  -0.36167
 Alpha  occ. eigenvalues --   -0.35282  -0.34370  -0.33637  -0.32052  -0.31718
 Alpha  occ. eigenvalues --   -0.31562  -0.29872  -0.29321  -0.26588  -0.22553
 Alpha  occ. eigenvalues --   -0.18148
 Alpha virt. eigenvalues --   -0.06975  -0.02163   0.02592   0.05755   0.07840
 Alpha virt. eigenvalues --    0.09268   0.10507   0.10946   0.11858   0.12352
 Alpha virt. eigenvalues --    0.12667   0.13035   0.13543   0.13936   0.14313

 Mulliken charges:
               1
     1  O   -0.529749
     2  O   -0.570153
     3  C   -0.006738
     4  C   -0.099331
     5  C   -0.176937
     6  C    0.149768
     7  C    0.134423
     8  C   -0.030485
     9  C   -0.283939
    10  C   -0.295092
    11  C   -0.187233
    12  C   -0.178987
    13  C    0.165133
    14  C    0.067713
    15  C   -0.109300
    16  C   -0.227765
    17  C    0.002693
    18  C   -0.310945
    19  C   -0.289425
    20  C   -0.346198
    21  C   -0.091926
    22  C   -0.069643
    23  C   -0.323005
    24  C    0.041667
    25  C   -0.136753
    26  C   -0.337158
    27  C    0.053087
    28  C   -0.078149
    29  C   -0.360146
    30  C   -0.099288
    31  C   -0.079690
    32  C   -0.077136
    33  C   -0.140687
    34  C    0.091020
    35  C   -0.111750
    36  C    0.135715
    37  C   -0.370227
    38  C   -0.135154
    39  C   -0.144714
    40  C   -0.377947
    41  C   -0.090269
    42  C   -0.082861
    43  H    0.078734
    44  H    0.113941
    45  H    0.071398
    46  H    0.073672
    47  H    0.103959
    48  H    0.086608
    49  H    0.085652
    50  H    0.095452
    51  H    0.105532
    52  H    0.099879
    53  H    0.107548
    54  H    0.072407
    55  H    0.054098
    56  H    0.085933
    57  H    0.091592
    58  H    0.099951
    59  H    0.128333
    60  H    0.092515
    61  H    0.109945
    62  H    0.103220
    63  H    0.103522
    64  H    0.101726
    65  H    0.081189
    66  H    0.123281
    67  H    0.114302
    68  H    0.114258
    69  H    0.303889
    70  H    0.060928
    71  H    0.090042
    72  H    0.128307
    73  H    0.130229
    74  H    0.099707
    75  H    0.304595
    76  H    0.080330
    77  H    0.109108
    78  H    0.119788
    79  H    0.131865
    80  H    0.073639
    81  H    0.133785
    82  H    0.126803
    83  H    0.107531
    84  H    0.067257
    85  H    0.086656
    86  H    0.061207
    87  H    0.072181
    88  H    0.075633
    89  H    0.134332
    90  H    0.122658
    91  H    0.107221
    92  H    0.071374
    93  H    0.089599
    94  H    0.129373
    95  H    0.113356
    96  H    0.108535
    97  H    0.089882
    98  H    0.079107
 Sum of Mulliken charges =  -0.00000

 Dipole moment (field-independent basis, Debye):
    X=              0.3788    Y=             -0.1100    Z=              0.4215  Tot=              0.5773
 Quadrupole moment (field-independent basis, Debye-Ang):
   XX=           -279.9481   YY=           -246.0800   ZZ=           -262.4727
   XY=             -2.8333   XZ=             42.0136   YZ=              1.6047

 Normal termination of Gaussian 16 at Fri Jul 12 22:05:33 2019.
