 Gaussian 16, Revision A.03,
 Gaussian 16:  ES64L-G16RevA.03 25-Dec-2016

 -------------------------------------
 # td=(NStates=1) CAM-B3LYP/6-31G(d,p)
 -------------------------------------

 --
 TD
 --
 Symbolic Z-matrix:
 Charge =  0 Multiplicity = 1

                         Standard orientation:
 ---------------------------------------------------------------------
 Center     Atomic      Atomic             Coordinates (Angstroms)
 Number     Number       Type             X           Y           Z
 ---------------------------------------------------------------------
      1          8           0      -14.164643   -2.054722    0.375024
      2          8           0       14.811752    0.892785    0.085801
      3          6           0      -11.824589    0.147885    1.271251
      4          6           0      -11.010378    0.303631    0.078385
      5          6           0      -12.029161   -1.396922    1.446982
      6          6           0      -12.673407   -2.031426    0.261454
      7          6           0      -11.583693   -0.339994   -1.194525
      8          6           0       11.253179    0.837109    1.189049
      9          6           0      -11.161657    0.676921    2.548976
     10          6           0      -13.107272    0.927424    1.167638
     11          6           0       12.576893    1.401699    0.849517
     12          6           0      -12.224096   -1.464254   -1.046914
     13          6           0       13.573733    0.355303    0.265906
     14          6           0       10.660478   -0.004867    0.068991
     15          6           0       -9.633295   -0.059379    0.125299
     16          6           0       12.944086   -0.062836   -1.045011
     17          6           0       11.470532   -0.397164   -0.969353
     18          6           0       10.444996    2.019930    1.259506
     19          6           0       11.212535    0.122146    2.567944
     20          6           0      -11.191379    0.113112   -2.607299
     21          6           0       -8.579689    0.653334   -0.097583
     22          6           0        9.264400   -0.372920    0.159909
     23          6           0       10.951948   -1.208343   -2.198132
     24          6           0       -7.105146    0.327873    0.008612
     25          6           0        8.765334   -1.558627   -0.120454
     26          6           0       -6.717539   -1.092709    0.259466
     27          6           0        7.378420   -2.097241   -0.112862
     28          6           0       -6.206297    1.391620   -0.332866
     29          6           0        7.075589   -3.575026   -0.012737
     30          6           0        6.402095   -1.170397   -0.115681
     31          6           0       -4.832211    1.355146   -0.371133
     32          6           0        5.012047   -1.461230    0.034776
     33          6           0       -4.033203    2.519384   -0.673438
     34          6           0       -2.549642    2.606960   -0.716948
     35          6           0        3.994529   -0.493276   -0.143583
     36          6           0        2.609554   -0.671259   -0.200877
     37          6           0       -1.993472    3.940046   -1.035600
     38          6           0       -1.747662    1.490408   -0.418383
     39          6           0        1.824914    0.314572   -0.430400
     40          6           0        2.076645   -2.100312    0.063815
     41          6           0       -0.373840    1.503190   -0.693197
     42          6           0        0.493546    0.356130   -0.434961
     43          1           0      -11.037100    1.414247   -0.096244
     44          1           0      -12.438607   -1.818148    2.330737
     45          1           0      -11.026085   -1.749352    1.518290
     46          1           0      -12.134699   -3.092593    0.194060
     47          1           0      -10.067550    0.403478    2.597588
     48          1           0      -11.007428    1.780854    2.351579
     49          1           0      -11.699137    0.361543    3.577173
     50          1           0      -13.740729    0.729712    0.251507
     51          1           0      -13.980652    0.809685    1.883089
     52          1           0      -12.814309    2.080707    1.095267
     53          1           0       12.689455    2.073469    0.060772
     54          1           0       13.178055    1.791586    1.862723
     55          1           0      -12.604911   -2.141604   -1.781577
     56          1           0       13.533071   -0.534139    0.760702
     57          1           0       -9.575575   -1.164900    0.156981
     58          1           0       13.587508   -1.005162   -1.568070
     59          1           0       13.004798    0.714872   -1.934386
     60          1           0        9.387457    1.822453    1.757287
     61          1           0       10.116259    2.337922    0.224837
     62          1           0       10.675211    2.950299    1.828480
     63          1           0       11.922370   -0.709928    2.534746
     64          1           0       10.309649   -0.415926    2.767771
     65          1           0       11.599076    0.706802    3.357483
     66          1           0       -9.914088    0.193975   -2.804465
     67          1           0      -11.344472    1.248204   -2.763130
     68          1           0      -12.023450   -0.583834   -3.097239
     69          1           0      -14.523357   -2.057395   -0.611608
     70          1           0        8.555448    0.246532    0.646086
     71          1           0       -8.851755    1.716787   -0.428626
     72          1           0       11.140806   -2.321628   -2.042626
     73          1           0        9.891992   -0.978996   -2.290965
     74          1           0       11.574910   -0.963527   -3.007249
     75          1           0       14.946893    1.341591    0.844835
     76          1           0        9.485472   -2.413811   -0.557772
     77          1           0       -5.699707   -1.419574   -0.069783
     78          1           0       -6.980266   -1.461795    1.300543
     79          1           0       -7.320578   -1.816152   -0.424549
     80          1           0       -6.877332    2.261979   -0.507422
     81          1           0        6.882310   -3.935628    1.023319
     82          1           0        6.117930   -3.968173   -0.543273
     83          1           0        7.944864   -4.314711   -0.236484
     84          1           0        6.808950   -0.163230   -0.281876
     85          1           0       -4.334605    0.358800   -0.236759
     86          1           0        4.646001   -2.502578    0.315566
     87          1           0       -4.611003    3.399630   -0.795881
     88          1           0        4.248456    0.463145   -0.079012
     89          1           0       -1.215591    3.782665   -1.816074
     90          1           0       -1.419539    4.371538   -0.245162
     91          1           0       -2.777598    4.695004   -1.277738
     92          1           0       -2.197036    0.522665   -0.183914
     93          1           0        2.372867    1.164484   -0.598337
     94          1           0        1.620031   -2.327849    1.318296
     95          1           0        0.945847   -2.243765   -0.706745
     96          1           0        3.138996   -2.923785   -0.263725
     97          1           0        0.200596    2.375421   -0.725693
     98          1           0        0.068039   -0.630221   -0.203178
 ---------------------------------------------------------------------

 SCF Done:  E(RCAM-B3LYP) =  -1706.89992946     A.U. after   15 cycles

 Excitation energies and oscillator strengths:

 Excited State   1:      Singlet-A      2.0195 eV  613.92 nm  f=2.8969  <S**2>=0.000
     155 ->158        -0.13050
     156 ->157         0.69844
     156 <-157        -0.10299
 This state for optimization and/or second-order correction.
 Total Energy, E(TD-HF/TD-DFT) =  -1706.82571257
 Copying the excited state density for this state as the 1-particle RhoCI density.

 The electronic state is 1-A.
 Alpha  occ. eigenvalues --  -19.22304 -19.21159 -10.32055 -10.31208 -10.29081
 Alpha  occ. eigenvalues --  -10.29047 -10.29032 -10.28542 -10.27799 -10.27606
 Alpha  occ. eigenvalues --  -10.27362 -10.27340 -10.27290 -10.27289 -10.27194
 Alpha  occ. eigenvalues --  -10.27137 -10.27135 -10.27104 -10.27055 -10.26868
 Alpha  occ. eigenvalues --  -10.26803 -10.26686 -10.26659 -10.26601 -10.26315
 Alpha  occ. eigenvalues --  -10.26281 -10.26122 -10.26059 -10.25985 -10.25948
 Alpha  occ. eigenvalues --  -10.25713 -10.25606 -10.25574 -10.25404 -10.25290
 Alpha  occ. eigenvalues --  -10.25094 -10.24934 -10.24925 -10.24825 -10.24128
 Alpha  occ. eigenvalues --  -10.24022 -10.23827  -1.13567  -1.06297  -0.95868
 Alpha  occ. eigenvalues --   -0.94929  -0.93653  -0.91447  -0.90995  -0.90130
 Alpha  occ. eigenvalues --   -0.87650  -0.87510  -0.87069  -0.86415  -0.85233
 Alpha  occ. eigenvalues --   -0.83480  -0.82186  -0.81197  -0.80518  -0.78107
 Alpha  occ. eigenvalues --   -0.77229  -0.76688  -0.76175  -0.76042  -0.75504
 Alpha  occ. eigenvalues --   -0.74733  -0.74231  -0.74105  -0.73164  -0.70957
 Alpha  occ. eigenvalues --   -0.69382  -0.67755  -0.67079  -0.65676  -0.63994
 Alpha  occ. eigenvalues --   -0.63907  -0.62923  -0.62709  -0.60830  -0.60319
 Alpha  occ. eigenvalues --   -0.60140  -0.59260  -0.58500  -0.57796  -0.56978
 Alpha  occ. eigenvalues --   -0.56329  -0.55806  -0.55516  -0.54464  -0.54010
 Alpha  occ. eigenvalues --   -0.53345  -0.53112  -0.52602  -0.52103  -0.51209
 Alpha  occ. eigenvalues --   -0.50924  -0.50320  -0.49891  -0.49529  -0.49398
 Alpha  occ. eigenvalues --   -0.48771  -0.48543  -0.48482  -0.48250  -0.47576
 Alpha  occ. eigenvalues --   -0.47506  -0.47122  -0.46763  -0.46562  -0.45920
 Alpha  occ. eigenvalues --   -0.45796  -0.45620  -0.45306  -0.45060  -0.44972
 Alpha  occ. eigenvalues --   -0.44447  -0.44079  -0.43628  -0.43505  -0.43003
 Alpha  occ. eigenvalues --   -0.42955  -0.42677  -0.42480  -0.42398  -0.42367
 Alpha  occ. eigenvalues --   -0.41940  -0.41508  -0.41215  -0.41151  -0.40522
 Alpha  occ. eigenvalues --   -0.40375  -0.40104  -0.39935  -0.39775  -0.39213
 Alpha  occ. eigenvalues --   -0.39108  -0.38817  -0.38432  -0.38096  -0.37966
 Alpha  occ. eigenvalues --   -0.37645  -0.37339  -0.36833  -0.36771  -0.35837
 Alpha  occ. eigenvalues --   -0.35401  -0.34647  -0.33891  -0.32723  -0.32148
 Alpha  occ. eigenvalues --   -0.32031  -0.30377  -0.29259  -0.26941  -0.24207
 Alpha  occ. eigenvalues --   -0.19491
 Alpha virt. eigenvalues --   -0.06841  -0.01306   0.02399   0.05194   0.06589
 Alpha virt. eigenvalues --    0.08339   0.08983   0.10766   0.11428   0.11630
 Alpha virt. eigenvalues --    0.11721   0.12222   0.12806   0.13221   0.13607

 Mulliken charges:
               1
     1  O   -0.561826
     2  O   -0.519908
     3  C    0.034606
     4  C   -0.159529
     5  C   -0.184334
     6  C    0.159826
     7  C    0.119123
     8  C    0.017045
     9  C   -0.296328
    10  C   -0.283667
    11  C   -0.205223
    12  C   -0.145865
    13  C    0.175033
    14  C    0.056962
    15  C   -0.039865
    16  C   -0.237284
    17  C    0.043124
    18  C   -0.304167
    19  C   -0.310832
    20  C   -0.336846
    21  C   -0.117085
    22  C   -0.113643
    23  C   -0.354126
    24  C    0.107648
    25  C   -0.115337
    26  C   -0.385506
    27  C    0.118815
    28  C   -0.105468
    29  C   -0.389745
    30  C   -0.113478
    31  C   -0.076041
    32  C   -0.119136
    33  C   -0.130201
    34  C    0.095348
    35  C   -0.105748
    36  C    0.159370
    37  C   -0.386324
    38  C   -0.100073
    39  C   -0.074252
    40  C   -0.312508
    41  C   -0.096339
    42  C   -0.111405
    43  H    0.074219
    44  H    0.107605
    45  H    0.099242
    46  H    0.061985
    47  H    0.096479
    48  H    0.089084
    49  H    0.098975
    50  H    0.094398
    51  H    0.108698
    52  H    0.068797
    53  H    0.123585
    54  H    0.045708
    55  H    0.081313
    56  H    0.087424
    57  H    0.081869
    58  H    0.076649
    59  H    0.101965
    60  H    0.069807
    61  H    0.101275
    62  H    0.102311
    63  H    0.097022
    64  H    0.118724
    65  H    0.108230
    66  H    0.102496
    67  H    0.107499
    68  H    0.109944
    69  H    0.306884
    70  H    0.089350
    71  H    0.070280
    72  H    0.110856
    73  H    0.130291
    74  H    0.107615
    75  H    0.293238
    76  H    0.067753
    77  H    0.115561
    78  H    0.125021
    79  H    0.112021
    80  H    0.083836
    81  H    0.126468
    82  H    0.113430
    83  H    0.103888
    84  H    0.088321
    85  H    0.089886
    86  H    0.090791
    87  H    0.084975
    88  H    0.075829
    89  H    0.126140
    90  H    0.136176
    91  H    0.113334
    92  H    0.088339
    93  H    0.062512
    94  H    0.085192
    95  H    0.066485
    96  H    0.068095
    97  H    0.088362
    98  H    0.068955
 Sum of Mulliken charges =  -0.00000

 Dipole moment (field-independent basis, Debye):
    X=             -0.1169    Y=              0.5306    Z=             -0.0055  Tot=              0.5433
 Quadrupole moment (field-independent basis, Debye-Ang):
   XX=           -297.9802   YY=           -247.3058   ZZ=           -264.0780
   XY=             -0.6814   XZ=             38.1848   YZ=              0.7064

 Normal termination of Gaussian 16 at Sat Jul 13 10:37:56 2019.
