 Gaussian 16, Revision A.03,
 Gaussian 16:  ES64L-G16RevA.03 25-Dec-2016

 -------------------------------------
 # td=(NStates=1) CAM-B3LYP/6-31G(d,p)
 -------------------------------------

 --
 TD
 --
 Symbolic Z-matrix:
 Charge =  0 Multiplicity = 1

                         Standard orientation:
 ---------------------------------------------------------------------
 Center     Atomic      Atomic             Coordinates (Angstroms)
 Number     Number       Type             X           Y           Z
 ---------------------------------------------------------------------
      1          8           0      -14.172324   -1.952449    0.327302
      2          8           0       14.840179    0.870810   -0.159604
      3          6           0      -11.795251   -0.071746    1.235573
      4          6           0      -10.990616    0.301258   -0.028888
      5          6           0      -11.993792   -1.590962    1.264617
      6          6           0      -12.887453   -2.104611    0.023583
      7          6           0      -11.534692   -0.389000   -1.307996
      8          6           0       11.151495    1.044269    0.989411
      9          6           0      -10.933280    0.393146    2.453004
     10          6           0      -13.207831    0.576968    1.266866
     11          6           0       12.577958    1.512105    0.689789
     12          6           0      -12.359072   -1.411637   -1.247903
     13          6           0       13.512830    0.413690    0.232403
     14          6           0       10.687496    0.025943   -0.075155
     15          6           0       -9.541924   -0.013920    0.104504
     16          6           0       12.900787   -0.224540   -1.104273
     17          6           0       11.501948   -0.506699   -1.002730
     18          6           0       10.206923    2.192151    0.985185
     19          6           0       11.235231    0.271316    2.386895
     20          6           0      -11.143702    0.244291   -2.669189
     21          6           0       -8.502520    0.880846   -0.048392
     22          6           0        9.233507   -0.422398    0.149445
     23          6           0       11.050663   -1.317984   -2.132124
     24          6           0       -7.142364    0.658496   -0.087614
     25          6           0        8.778890   -1.669736   -0.110296
     26          6           0       -6.707628   -0.840521    0.083936
     27          6           0        7.434514   -2.026537    0.084075
     28          6           0       -6.180071    1.652440   -0.257311
     29          6           0        7.150749   -3.557096    0.253189
     30          6           0        6.314231   -1.181980   -0.021092
     31          6           0       -4.834967    1.595133   -0.305717
     32          6           0        5.010582   -1.615359    0.129485
     33          6           0       -4.019205    2.574786   -0.458518
     34          6           0       -2.559965    2.561394   -0.482289
     35          6           0        3.973347   -0.690426   -0.102487
     36          6           0        2.599998   -0.893969   -0.050997
     37          6           0       -1.861722    3.963423   -0.623253
     38          6           0       -1.836299    1.403783   -0.433481
     39          6           0        1.751733    0.222502   -0.380794
     40          6           0        2.088379   -2.216397    0.324631
     41          6           0       -0.400097    1.509605   -0.429301
     42          6           0        0.372444    0.386948   -0.368945
     43          1           0      -11.198151    1.415135   -0.219675
     44          1           0      -12.512115   -2.066009    2.269989
     45          1           0      -10.981531   -2.090068    1.324140
     46          1           0      -12.593667   -3.165984   -0.097399
     47          1           0       -9.931497   -0.068944    2.465216
     48          1           0      -10.834870    1.645027    2.343141
     49          1           0      -11.312471    0.044490    3.464332
     50          1           0      -13.900423    0.456087    0.313716
     51          1           0      -13.666378    0.662857    2.241980
     52          1           0      -13.079133    1.789039    1.270228
     53          1           0       12.550793    2.292946   -0.080090
     54          1           0       12.878168    2.079195    1.549448
     55          1           0      -12.613768   -1.823954   -2.272263
     56          1           0       13.659432   -0.412783    1.067585
     57          1           0       -9.147617   -1.039466    0.278922
     58          1           0       13.401736   -1.171982   -1.318153
     59          1           0       13.108557    0.402845   -1.966654
     60          1           0        9.088608    1.905037    1.488953
     61          1           0        9.968546    2.559305   -0.108494
     62          1           0       10.745627    2.909321    1.511526
     63          1           0       12.198693   -0.545655    2.398431
     64          1           0       10.370895   -0.438236    2.791560
     65          1           0       11.559852    0.995653    2.981954
     66          1           0       -9.939207    0.000168   -2.658225
     67          1           0      -11.445057    1.297356   -2.657314
     68          1           0      -11.576504   -0.201782   -3.614564
     69          1           0      -14.545680   -1.824385   -0.493318
     70          1           0        8.627326    0.273043    0.745544
     71          1           0       -8.843636    2.127053   -0.160815
     72          1           0       11.266772   -2.314422   -1.776076
     73          1           0        9.993695   -1.578902   -2.295654
     74          1           0       11.789934   -1.395161   -3.030606
     75          1           0       15.197350    1.152994    0.597810
     76          1           0        9.406082   -2.401920   -0.382205
     77          1           0       -5.709585   -0.965434   -0.009813
     78          1           0       -7.046366   -1.184981    1.142097
     79          1           0       -7.165111   -1.526872   -0.603217
     80          1           0       -6.433980    2.726000   -0.310897
     81          1           0        6.822045   -4.056392    1.136509
     82          1           0        6.437875   -4.161932   -0.702354
     83          1           0        8.123229   -3.947340    0.269008
     84          1           0        6.476106   -0.156745   -0.052121
     85          1           0       -4.319336    0.559882    0.004056
     86          1           0        4.750933   -2.683326    0.342783
     87          1           0       -4.380660    3.594408   -1.083654
     88          1           0        4.319883    0.363890   -0.159002
     89          1           0       -1.212300    3.829977   -1.440409
     90          1           0       -1.274921    4.416457    0.025934
     91          1           0       -2.606336    4.796252   -0.864372
     92          1           0       -2.321314    0.437971   -0.521260
     93          1           0        2.213074    1.177808   -0.585725
     94          1           0        2.839845   -2.629673    1.186945
     95          1           0        1.010592   -2.138191    0.617373
     96          1           0        2.105221   -2.926517   -0.531923
     97          1           0        0.021314    2.456281   -0.498214
     98          1           0       -0.290918   -0.630152   -0.243357
 ---------------------------------------------------------------------

 SCF Done:  E(RCAM-B3LYP) =  -1706.93863349     A.U. after   15 cycles

 Excitation energies and oscillator strengths:

 Excited State   1:      Singlet-A      2.1313 eV  581.74 nm  f=3.2064  <S**2>=0.000
     155 ->158        -0.15297
     156 ->157         0.68961
 This state for optimization and/or second-order correction.
 Total Energy, E(TD-HF/TD-DFT) =  -1706.86031066
 Copying the excited state density for this state as the 1-particle RhoCI density.

 The electronic state is 1-A.
 Alpha  occ. eigenvalues --  -19.21576 -19.20750 -10.32179 -10.30881 -10.27791
 Alpha  occ. eigenvalues --  -10.27787 -10.27735 -10.27569 -10.27486 -10.27348
 Alpha  occ. eigenvalues --  -10.27344 -10.27186 -10.27147 -10.27099 -10.27033
 Alpha  occ. eigenvalues --  -10.26859 -10.26830 -10.26747 -10.26715 -10.26470
 Alpha  occ. eigenvalues --  -10.26336 -10.26333 -10.26329 -10.26276 -10.26068
 Alpha  occ. eigenvalues --  -10.26057 -10.26014 -10.25975 -10.25965 -10.25942
 Alpha  occ. eigenvalues --  -10.25913 -10.25807 -10.25517 -10.25396 -10.25370
 Alpha  occ. eigenvalues --  -10.25337 -10.25219 -10.25197 -10.25027 -10.24991
 Alpha  occ. eigenvalues --  -10.24881 -10.24813  -1.14565  -1.10555  -0.94170
 Alpha  occ. eigenvalues --   -0.93267  -0.92490  -0.91800  -0.90644  -0.89883
 Alpha  occ. eigenvalues --   -0.88722  -0.87708  -0.85981  -0.85781  -0.84318
 Alpha  occ. eigenvalues --   -0.82669  -0.82216  -0.79780  -0.79260  -0.78642
 Alpha  occ. eigenvalues --   -0.77222  -0.76709  -0.76109  -0.75781  -0.75582
 Alpha  occ. eigenvalues --   -0.75318  -0.74417  -0.73841  -0.73122  -0.70501
 Alpha  occ. eigenvalues --   -0.69292  -0.68042  -0.67078  -0.65904  -0.63844
 Alpha  occ. eigenvalues --   -0.63443  -0.62494  -0.62127  -0.60585  -0.59831
 Alpha  occ. eigenvalues --   -0.59654  -0.58836  -0.58442  -0.57493  -0.56254
 Alpha  occ. eigenvalues --   -0.56040  -0.55208  -0.54738  -0.54523  -0.53894
 Alpha  occ. eigenvalues --   -0.53221  -0.52634  -0.52095  -0.51505  -0.50776
 Alpha  occ. eigenvalues --   -0.50411  -0.50315  -0.49313  -0.49086  -0.48690
 Alpha  occ. eigenvalues --   -0.48674  -0.48337  -0.47981  -0.47911  -0.47749
 Alpha  occ. eigenvalues --   -0.47646  -0.47568  -0.47271  -0.47110  -0.46824
 Alpha  occ. eigenvalues --   -0.46144  -0.46097  -0.45762  -0.45328  -0.45109
 Alpha  occ. eigenvalues --   -0.44218  -0.43927  -0.43754  -0.43644  -0.43477
 Alpha  occ. eigenvalues --   -0.43274  -0.42662  -0.42551  -0.42125  -0.41498
 Alpha  occ. eigenvalues --   -0.41424  -0.41342  -0.41034  -0.40950  -0.40628
 Alpha  occ. eigenvalues --   -0.40293  -0.40262  -0.39799  -0.39441  -0.39397
 Alpha  occ. eigenvalues --   -0.38652  -0.38394  -0.38371  -0.37862  -0.37778
 Alpha  occ. eigenvalues --   -0.37687  -0.37187  -0.37029  -0.36372  -0.35786
 Alpha  occ. eigenvalues --   -0.35515  -0.34567  -0.34026  -0.32954  -0.32043
 Alpha  occ. eigenvalues --   -0.31485  -0.29948  -0.28868  -0.26358  -0.23331
 Alpha  occ. eigenvalues --   -0.19278
 Alpha virt. eigenvalues --   -0.05940  -0.01642   0.02528   0.06317   0.07650
 Alpha virt. eigenvalues --    0.09318   0.10696   0.11382   0.12052   0.12305
 Alpha virt. eigenvalues --    0.12692   0.12983   0.13165   0.13756   0.13945

 Mulliken charges:
               1
     1  O   -0.473170
     2  O   -0.540476
     3  C    0.035636
     4  C   -0.118450
     5  C   -0.177598
     6  C    0.144222
     7  C    0.116626
     8  C   -0.014148
     9  C   -0.293881
    10  C   -0.275472
    11  C   -0.204847
    12  C   -0.195445
    13  C    0.144885
    14  C    0.050333
    15  C   -0.098933
    16  C   -0.239413
    17  C    0.088351
    18  C   -0.289883
    19  C   -0.284804
    20  C   -0.338614
    21  C   -0.077681
    22  C   -0.092413
    23  C   -0.396083
    24  C    0.106491
    25  C   -0.096243
    26  C   -0.372326
    27  C    0.052922
    28  C   -0.129778
    29  C   -0.359879
    30  C   -0.094149
    31  C   -0.027373
    32  C   -0.076878
    33  C   -0.134794
    34  C    0.067226
    35  C   -0.119284
    36  C    0.126385
    37  C   -0.379928
    38  C   -0.098665
    39  C   -0.135104
    40  C   -0.372654
    41  C   -0.072671
    42  C   -0.083849
    43  H    0.097343
    44  H    0.078765
    45  H    0.080020
    46  H    0.071108
    47  H    0.110431
    48  H    0.074596
    49  H    0.093812
    50  H    0.100294
    51  H    0.117363
    52  H    0.040558
    53  H    0.109949
    54  H    0.085161
    55  H    0.070232
    56  H    0.073283
    57  H    0.095836
    58  H    0.109252
    59  H    0.132452
    60  H    0.082229
    61  H    0.109009
    62  H    0.104446
    63  H    0.064097
    64  H    0.106468
    65  H    0.109559
    66  H    0.106911
    67  H    0.120073
    68  H    0.106986
    69  H    0.298688
    70  H    0.080346
    71  H    0.048447
    72  H    0.124950
    73  H    0.128326
    74  H    0.105471
    75  H    0.291977
    76  H    0.082558
    77  H    0.111295
    78  H    0.108790
    79  H    0.125261
    80  H    0.082999
    81  H    0.125683
    82  H    0.068217
    83  H    0.102006
    84  H    0.075645
    85  H    0.071772
    86  H    0.094064
    87  H    0.065576
    88  H    0.079535
    89  H    0.129046
    90  H    0.135817
    91  H    0.097385
    92  H    0.091968
    93  H    0.074455
    94  H    0.102039
    95  H    0.113965
    96  H    0.128987
    97  H    0.083786
    98  H    0.052520
 Sum of Mulliken charges =  -0.00000

 Dipole moment (field-independent basis, Debye):
    X=              1.5483    Y=             -0.1089    Z=             -0.1021  Tot=              1.5555
 Quadrupole moment (field-independent basis, Debye-Ang):
   XX=           -264.5407   YY=           -246.6639   ZZ=           -262.9920
   XY=             -1.3222   XZ=             43.0225   YZ=              2.2447

 Normal termination of Gaussian 16 at Mon Jul 15 21:11:41 2019.
